Title
81363
    1CHL1    C3    1   1.428   3.128  10.154 -0.2424 -0.5899 -0.0735
    1CHL1    H3    2   1.513   3.199  10.150 -1.2111  0.5586 -1.3240
    1CHL1    O3    3   1.425   3.100  10.293  0.5737  0.6332  0.6459
    1CHL1   H3'    4   1.488   3.031  10.316  0.1340  0.1701  0.4904
    1CHL1    C4    5   1.297   3.192  10.114 -0.0127 -0.2634 -0.6787
    1CHL1   H4A    6   1.215   3.151  10.176 -0.7127 -0.7511 -1.8960
    1CHL1   H4B    7   1.300   3.298  10.145 -2.5745 -0.3847  0.2122
    1CHL1    C5    8   1.257   3.190   9.965  0.0306  0.3906 -0.3557
    1CHL1    C6    9   1.211   3.297   9.901  0.3965 -0.5099  0.4231
    1CHL1    H6   10   1.187   3.388   9.959  0.4222  1.2426 -2.1607
    1CHL1    C7   11   1.175   3.307   9.758  0.1134 -0.0165 -0.1858
    1CHL1   H7A   12   1.079   3.359   9.739 -0.5041 -1.2478 -0.5324
    1CHL1   H7B   13   1.245   3.378   9.709  0.5144  1.1381  1.9515
    1CHL1    C8   14   1.193   3.178   9.681  0.3192  0.2246  0.0405
    1CHL1    H8   15   1.104   3.111   9.686  1.4157 -1.2832 -0.0153
    1CHL1   C14   16   1.222   3.194   9.534 -0.0067 -0.5628  0.2484
    1CHL1   H14   17   1.314   3.254   9.519 -0.5118  0.4281  0.9652
    1CHL1   C15   18   1.135   3.295   9.454 -0.3518 -0.4806  0.2532
    1CHL1  H15A   19   1.030   3.258   9.459 -0.4208 -0.1203  1.6844
    1CHL1  H15B   20   1.144   3.397   9.498  0.3742 -0.5529  0.2836
    1CHL1   C16   21   1.183   3.277   9.316 -1.2135  0.0216 -0.1509
    1CHL1  H16A   22   1.099   3.275   9.243 -0.4709 -1.8382 -1.0390
    1CHL1  H16B   23   1.252   3.358   9.283  0.7001 -0.6412  1.9601
    1CHL1   C17   24   1.261   3.141   9.309  0.3130 -0.7370 -0.3269
    1CHL1   H17   25   1.368   3.169   9.309  0.2003 -0.1224 -2.7917
    1CHL1   C13   26   1.238   3.075   9.448 -0.0612  0.6064  0.3147
    1CHL1   C18   27   1.104   3.000   9.437 -0.3058  0.1085 -0.5560
    1CHL1  H18A   28   1.123   2.894   9.411  1.2316  0.0693  0.5899
    1CHL1  H18B   29   1.063   2.997   9.540  1.2489  0.1237  0.0976
    1CHL1  H18C   30   1.036   3.048   9.363 -0.1743  0.8002 -0.2432
    1CHL1   C12   31   1.350   2.987   9.501 -0.4606 -0.2638  0.4660
    1CHL1  H12A   32   1.349   2.890   9.447 -1.8702  1.0680 -2.0529
    1CHL1  H12B   33   1.446   3.038   9.480 -1.2824  0.3834 -1.9168
    1CHL1   C11   34   1.323   2.967   9.654 -0.5257 -0.2186  0.2639
    1CHL1  H11A   35   1.226   2.914   9.662 -0.5255  0.0659  2.6170
    1CHL1  H11B   36   1.399   2.899   9.699  1.2665  2.0524  0.8519
    1CHL1    C9   37   1.303   3.091   9.739  0.7197  0.1299 -0.3364
    1CHL1    H9   38   1.398   3.147   9.724  1.4684 -0.8274  0.7164
    1CHL1   C10   39   1.296   3.063   9.888 -0.5216 -0.8821 -0.2866
    1CHL1   C19   40   1.180   2.967   9.912 -0.7337 -0.5349 -0.0879
    1CHL1  H19A   41   1.187   2.867   9.863  1.1360 -0.6033  0.2319
    1CHL1  H19B   42   1.166   2.946  10.020 -1.7077 -2.6236 -0.5643
    1CHL1  H19C   43   1.085   3.016   9.883  0.8241  1.6391 -1.8652
    1CHL1    C1   44   1.447   3.014   9.929 -0.2256  0.0151  0.9044
    1CHL1   H1A   45   1.472   2.911   9.897  0.4224  0.4086  0.1172
    1CHL1   H1B   46   1.525   3.083   9.891 -0.9724  0.1897 -0.3672
    1CHL1    C2   47   1.465   2.999  10.079 -0.0182  0.0310 -0.0299
    1CHL1   H2A   48   1.570   2.969  10.099 -0.0492 -1.1177 -1.4017
    1CHL1   H2B   49   1.394   2.919  10.108 -0.6429  0.2787 -0.8290
    1CHL1   C20   50   1.240   3.060   9.179  0.1208 -0.0644 -0.2389
    1CHL1   H20   51   1.135   3.027   9.166 -1.1651  3.0985  1.0254
    1CHL1   C21   52   1.333   2.936   9.189 -0.9343 -0.1803 -0.5006
    1CHL1  H21A   53   1.335   2.889   9.089  0.1966 -0.6935 -0.2471
    1CHL1  H21B   54   1.296   2.855   9.256 -0.6641  1.3729  1.6281
    1CHL1  H21C   55   1.435   2.968   9.219 -0.7663  0.8473 -2.0827
    1CHL1   C22   56   1.270   3.151   9.053 -0.0448  0.3686  0.2935
    1CHL1  H22A   57   1.210   3.244   9.060 -1.4564 -0.2142 -2.6619
    1CHL1  H22B   58   1.376   3.184   9.041  0.2769 -0.8722 -0.4656
    1CHL1   C23   59   1.239   3.080   8.926 -1.0352 -0.0536  0.1144
    1CHL1  H23A   60   1.284   3.140   8.845 -1.5351 -0.7085 -0.6692
    1CHL1  H23B   61   1.281   2.978   8.914  0.3412  0.1821  2.2896
    1CHL1   C24   62   1.084   3.053   8.897 -0.1901  0.2422  0.2895
    1CHL1  H24A   63   1.047   2.993   8.982  2.2938 -0.2965  1.0842
    1CHL1  H24B   64   1.027   3.149   8.899 -1.3316 -0.3468 -1.5884
    1CHL1   C25   65   1.050   2.987   8.757  0.2603  0.4897 -0.0255
    1CHL1   H25   66   0.942   2.962   8.747  0.5576 -1.3168  0.7607
    1CHL1   C26   67   1.072   3.082   8.641  0.3222  0.8591  0.2332
    1CHL1  H26A   68   1.174   3.122   8.624  0.2717  0.0346 -2.7480
    1CHL1  H26B   69   1.064   3.025   8.546  1.5099 -2.7032  2.0872
    1CHL1  H26C   70   1.004   3.170   8.646 -0.4926  0.3505 -1.1531
    1CHL1   C27   71   1.120   2.853   8.741 -0.1255 -0.8721  0.1818
    1CHL1  H27A   72   1.096   2.769   8.809 -1.1015 -1.2028 -0.5427
    1CHL1  H27B   73   1.094   2.820   8.638  0.3085  0.2131 -0.2864
    1CHL1  H27C   74   1.229   2.865   8.723 -0.7645  2.7689 -2.6025
    2CHL1    C3   75   1.929   1.881  10.049  0.2708 -0.3328  0.2503
    2CHL1    H3   76   1.901   1.775  10.030 -1.4070  0.3923 -1.7135
    2CHL1    O3   77   1.985   1.896  10.182  0.0680  0.7818  0.4430
    2CHL1   H3'   78   2.067   1.846  10.190  1.1307  2.6456  1.7162
    2CHL1    C4   79   2.043   1.924   9.956  0.0274  0.3585 -0.1743
    2CHL1   H4A   80   2.080   2.024   9.985  0.9048  0.4924 -1.6468
    2CHL1   H4B   81   2.133   1.858   9.963 -0.7696 -0.8172 -0.6148
    2CHL1    C5   82   2.003   1.917   9.813 -0.1674 -0.4100  0.6967
    2CHL1    C6   83   2.066   1.845   9.717 -0.2820  0.2738  0.3989
    2CHL1    H6   84   2.157   1.786   9.736 -1.2110 -1.6146 -0.7768
    2CHL1    C7   85   2.029   1.847   9.570 -0.0208  0.0263  0.0628
    2CHL1   H7A   86   2.128   1.856   9.521  0.6316  3.8718  1.6863
    2CHL1   H7B   87   1.963   1.763   9.538 -1.5891  1.5195 -0.7607
    2CHL1    C8   88   1.938   1.964   9.534  0.4188 -0.8628  0.1906
    2CHL1    H8   89   1.996   2.058   9.538  1.5548 -1.5012 -0.7478
    2CHL1   C14   90   1.881   1.950   9.392  0.4703 -0.1231  0.3652
    2CHL1   H14   91   1.819   1.858   9.391  0.7773 -0.3330 -1.0409
    2CHL1   C15   92   1.980   1.928   9.274 -0.1259 -0.0315  0.4288
    2CHL1  H15A   93   2.081   1.971   9.286  0.3716 -1.0358 -0.0323
    2CHL1  H15B   94   1.988   1.818   9.263  0.1215 -0.0950  1.1818
    2CHL1   C16   95   1.907   1.975   9.143 -0.9752 -0.1664 -0.6302
    2CHL1  H16A   96   1.964   2.065   9.111  2.3808 -1.6771  0.5789
    2CHL1  H16B   97   1.922   1.906   9.057  0.4398  1.2022 -1.5571
    2CHL1   C17   98   1.768   2.024   9.192 -1.1025  0.1074 -0.1287
    2CHL1   H17   99   1.701   1.935   9.181 -0.6130 -0.4122  0.9506
    2CHL1   C13  100   1.783   2.057   9.350 -0.8157  1.0367  0.6543
    2CHL1   C18  101   1.841   2.201   9.360 -0.7384 -0.3461  0.1078
    2CHL1  H18A  102   1.933   2.201   9.299 -0.7015  0.0781  0.1634
    2CHL1  H18B  103   1.773   2.277   9.316 -0.5618 -0.3717 -0.2125
    2CHL1  H18C  104   1.869   2.226   9.464 -0.8649 -2.6711  0.7620
    2CHL1   C12  105   1.659   2.055   9.442 -0.0101 -0.3982  0.2510
    2CHL1  H12A  106   1.602   2.147   9.419  2.0454  1.2097  1.2429
    2CHL1  H12B  107   1.615   1.955   9.424 -0.3451 -0.5649  1.8754
    2CHL1   C11  108   1.699   2.062   9.588  0.4768  0.6015  0.6875
    2CHL1  H11A  109   1.728   2.167   9.609  1.1698  0.1468  2.1600
    2CHL1  H11B  110   1.614   2.029   9.651  1.3998 -1.5126  0.8880
    2CHL1    C9  111   1.823   1.973   9.632  1.0874  0.0609  0.0767
    2CHL1    H9  112   1.782   1.870   9.638  1.0619  0.1215  1.1692
    2CHL1   C10  113   1.876   1.996   9.776  0.4937  0.4571 -0.5439
    2CHL1   C19  114   1.920   2.146   9.786  0.7001  0.1717  0.2733
    2CHL1  H19A  115   1.934   2.166   9.894  0.9975 -2.3388  0.7540
    2CHL1  H19B  116   2.021   2.156   9.741  1.2638  3.5517  1.9459
    2CHL1  H19C  117   1.856   2.231   9.753  0.6329 -0.4127 -1.1977
    2CHL1    C1  118   1.754   1.958   9.883  0.2232  0.2077 -0.0428
    2CHL1   H1A  119   1.668   2.026   9.869  0.8551  1.1479  0.4955
    2CHL1   H1B  120   1.726   1.854   9.854 -0.4670  0.4245 -0.1755
    2CHL1    C2  121   1.808   1.970  10.025 -0.1173  0.2860  0.5194
    2CHL1   H2A  122   1.728   1.949  10.099 -2.2435 -1.1688 -2.0356
    2CHL1   H2B  123   1.839   2.076  10.039  0.9057  0.5180 -2.8429
    2CHL1   C20  124   1.717   2.135   9.099  0.0438 -0.0402  0.1389
    2CHL1   H20  125   1.774   2.229   9.107 -0.7057  0.4948 -0.6536
    2CHL1   C21  126   1.575   2.191   9.138 -0.0440  0.4516  0.2878
    2CHL1  H21A  127   1.529   2.255   9.060 -1.1768  0.1926  0.7138
    2CHL1  H21B  128   1.575   2.264   9.223  2.8266 -0.0904  0.8387
    2CHL1  H21C  129   1.504   2.108   9.160  0.6441 -0.7878 -1.8936
    2CHL1   C22  130   1.726   2.089   8.945 -0.0248 -0.5653 -0.1565
    2CHL1  H22A  131   1.835   2.086   8.922  0.1222  2.4739 -0.1925
    2CHL1  H22B  132   1.679   1.989   8.936  0.1474 -0.5470 -1.4984
    2CHL1   C23  133   1.667   2.188   8.849  0.4186  0.0349  0.4774
    2CHL1  H23A  134   1.557   2.180   8.864  0.3450 -1.3376 -0.6087
    2CHL1  H23B  135   1.691   2.296   8.862  0.4209  0.1650 -0.5608
    2CHL1   C24  136   1.689   2.165   8.705  0.1019 -0.0140  0.1320
    2CHL1  H24A  137   1.798   2.179   8.685  0.3217  3.9630  2.9931
    2CHL1  H24B  138   1.663   2.057   8.696  1.1559 -0.3815  1.1801
    2CHL1   C25  139   1.611   2.245   8.603  0.3067 -0.0011  1.1467
    2CHL1   H25  140   1.664   2.340   8.580  0.0120  0.0224  0.5382
    2CHL1   C26  141   1.614   2.194   8.451  0.1825 -0.1036 -0.6681
    2CHL1  H26A  142   1.717   2.187   8.412 -0.2872  0.7652 -2.1415
    2CHL1  H26B  143   1.555   2.100   8.445  0.5637 -0.2715 -2.2392
    2CHL1  H26C  144   1.555   2.269   8.393  0.9632  0.5592 -0.6329
    2CHL1   C27  145   1.463   2.278   8.644  0.2622  1.2267  0.2748
    2CHL1  H27A  146   1.466   2.335   8.739 -0.7838  3.0826 -0.7679
    2CHL1  H27B  147   1.402   2.338   8.574 -1.1691  1.0613  1.3344
    2CHL1  H27C  148   1.412   2.181   8.665 -2.7150  2.8504  1.1442
    3CHL1    C3  149   2.666   0.512  10.274 -0.1711 -0.1024 -0.1236
    3CHL1    H3  150   2.733   0.596  10.302 -0.8100  0.9298 -1.5628
    3CHL1    O3  151   2.624   0.446  10.396  0.0197  0.2195  0.1979
    3CHL1   H3'  152   2.544   0.401  10.369  0.1375  0.7612 -1.1589
    3CHL1    C4  153   2.547   0.573  10.190 -0.1118  0.3630  0.6405
    3CHL1   H4A  154   2.454   0.514  10.204  0.3093 -0.9439 -1.6581
    3CHL1   H4B  155   2.523   0.670  10.240  0.8088  0.9029  0.0647
    3CHL1    C5  156   2.574   0.595  10.034  0.0483 -0.8726 -0.0111
    3CHL1    C6  157   2.548   0.713   9.974 -0.1919  0.7211 -0.3904
    3CHL1    H6  158   2.513   0.796  10.037  2.8290  1.4532  0.4556
    3CHL1    C7  159   2.572   0.746   9.828  0.3113 -0.3533 -0.4481
    3CHL1   H7A  160   2.488   0.808   9.791  0.2555  0.0212  0.2958
    3CHL1   H7B  161   2.661   0.812   9.826 -1.5910  2.3884 -0.0156
    3CHL1    C8  162   2.598   0.616   9.745 -0.4729  0.6252  0.3708
    3CHL1    H8  163   2.502   0.562   9.732 -0.6086  0.9372  0.0614
    3CHL1   C14  164   2.656   0.656   9.608  0.3780  0.5231 -0.1237
    3CHL1   H14  165   2.754   0.706   9.624  1.7660 -2.0740 -0.0581
    3CHL1   C15  166   2.578   0.760   9.526 -0.2321  0.1208  0.3693
    3CHL1  H15A  167   2.471   0.733   9.532  0.2968 -1.9579  1.1287
    3CHL1  H15B  168   2.598   0.868   9.543  0.2085 -0.3795  3.6292
    3CHL1   C16  169   2.616   0.725   9.383  0.1392  0.3706  0.1911
    3CHL1  H16A  170   2.523   0.701   9.329  1.3439 -2.7037 -0.6959
    3CHL1  H16B  171   2.675   0.809   9.339 -1.0612  0.2611 -1.7240
    3CHL1   C17  172   2.703   0.603   9.380 -0.1736 -0.3850 -0.5946
    3CHL1   H17  173   2.808   0.640   9.385 -0.0670 -0.8240  0.8209
    3CHL1   C13  174   2.672   0.535   9.518 -0.6984  0.4455  0.2375
    3CHL1   C18  175   2.533   0.466   9.494  0.5555 -0.4089  0.5398
    3CHL1  H18A  176   2.466   0.524   9.426  0.2868 -0.5136  0.7150
    3CHL1  H18B  177   2.538   0.371   9.437  1.6031 -0.0276 -0.0280
    3CHL1  H18C  178   2.478   0.440   9.587 -0.6517  1.3386  0.3868
    3CHL1   C12  179   2.786   0.450   9.586 -0.2827  0.4888  0.8269
    3CHL1  H12A  180   2.805   0.356   9.530  2.1367  1.7231 -0.6014
    3CHL1  H12B  181   2.885   0.499   9.592  1.3176 -2.2199 -1.0141
    3CHL1   C11  182   2.739   0.404   9.729  0.7657 -0.1540 -0.1795
    3CHL1  H11A  183   2.648   0.341   9.716  0.1511  0.5749  0.5389
    3CHL1  H11B  184   2.834   0.352   9.753  1.6411  1.3933 -0.2014
    3CHL1    C9  185   2.695   0.521   9.813 -0.5328 -0.3836 -0.0679
    3CHL1    H9  186   2.789   0.579   9.829 -0.6054  0.1918 -1.5598
    3CHL1   C10  187   2.653   0.481   9.960  0.1835  0.1648  0.1982
    3CHL1   C19  188   2.557   0.361   9.944  0.5477  0.8652 -0.0341
    3CHL1  H19A  189   2.614   0.268   9.922 -0.6453  0.1646 -0.2778
    3CHL1  H19B  190   2.509   0.337  10.041  0.3807  0.2859 -0.2504
    3CHL1  H19C  191   2.475   0.383   9.871  1.7393  1.3139 -1.2808
    3CHL1    C1  192   2.773   0.438  10.045  0.0482 -0.7840  0.7767
    3CHL1   H1A  193   2.819   0.343  10.011  1.1171 -0.1499  0.4160
    3CHL1   H1B  194   2.851   0.516  10.045 -0.1742 -0.5253  2.1985
    3CHL1    C2  195   2.739   0.403  10.190 -0.9855  0.4589  0.3628
    3CHL1   H2A  196   2.832   0.372  10.243 -1.3362  2.1253  2.0853
    3CHL1   H2B  197   2.663   0.322  10.185 -1.1976  0.7156 -0.7945
    3CHL1   C20  198   2.698   0.520   9.252 -0.5733  0.3994 -0.0408
    3CHL1   H20  199   2.614   0.447   9.254  0.9970 -1.4915  0.5403
    3CHL1   C21  200   2.819   0.425   9.245 -0.2360  0.5130 -0.0423
    3CHL1  H21A  201   2.907   0.490   9.265 -0.4429  0.3243  1.6173
    3CHL1  H21B  202   2.828   0.378   9.145 -0.7717 -2.4000  1.1995
    3CHL1  H21C  203   2.808   0.346   9.322  2.6167  0.4741  0.4416
    3CHL1   C22  204   2.700   0.596   9.116 -0.2181 -0.6939  0.0277
    3CHL1  H22A  205   2.653   0.696   9.126 -2.0940 -1.4939 -0.2715
    3CHL1  H22B  206   2.805   0.625   9.096 -0.2183 -0.5759  0.1981
    3CHL1   C23  207   2.617   0.521   9.004 -0.8283  0.2061  0.4496
    3CHL1  H23A  208   2.654   0.417   9.004  1.4021  0.9558  0.3615
    3CHL1  H23B  209   2.510   0.519   9.034 -1.6156  1.6815 -1.9765
    3CHL1   C24  210   2.635   0.575   8.861  0.5262 -0.4230 -0.3375
    3CHL1  H24A  211   2.607   0.682   8.866 -0.4235 -0.6894  0.2537
    3CHL1  H24B  212   2.740   0.567   8.824  0.8001 -0.1066  0.3557
    3CHL1   C25  213   2.547   0.500   8.752 -0.6619 -0.4141  0.0811
    3CHL1   H25  214   2.556   0.563   8.661  1.6560  1.5404  1.5380
    3CHL1   C26  215   2.592   0.356   8.744  0.3286  0.5104  0.4114
    3CHL1  H26A  216   2.547   0.301   8.659  0.3046  2.0253 -0.5953
    3CHL1  H26B  217   2.701   0.363   8.723  0.4599 -0.0563  0.8586
    3CHL1  H26C  218   2.568   0.310   8.842  0.6635 -0.6204 -0.0166
    3CHL1   C27  219   2.403   0.526   8.786 -0.3262  0.5200  0.0519
    3CHL1  H27A  220   2.380   0.635   8.785 -1.7615  0.2556 -1.1889
    3CHL1  H27B  221   2.334   0.485   8.708 -0.0197 -1.0520  0.5658
    3CHL1  H27C  222   2.376   0.479   8.883  1.5443  0.3849  0.5335
    4CHL1    C3  223   1.367   2.390  10.547 -0.0014 -0.7047  0.4088
    4CHL1    H3  224   1.333   2.285  10.533  2.4552 -1.5866  0.4656
    4CHL1    O3  225   1.375   2.413  10.683 -0.0454  0.4880 -0.5786
    4CHL1   H3'  226   1.289   2.386  10.716  0.4007 -1.8419 -1.1206
    4CHL1    C4  227   1.502   2.407  10.467  0.0476  0.5756  0.0977
    4CHL1   H4A  228   1.556   2.493  10.514  1.4938 -0.2940  0.0868
    4CHL1   H4B  229   1.563   2.318  10.495 -0.1754  0.7163  1.0808
    4CHL1    C5  230   1.481   2.404  10.321 -0.5193  0.2012  0.1609
    4CHL1    C6  231   1.544   2.310  10.245  0.2316  0.4806 -0.0256
    4CHL1    H6  232   1.622   2.246  10.289 -0.1429 -0.3957 -0.6149
    4CHL1    C7  233   1.540   2.296  10.098  0.4434 -0.0330 -0.5118
    4CHL1   H7A  234   1.642   2.282  10.057  1.4494 -4.3183  2.6593
    4CHL1   H7B  235   1.486   2.203  10.070 -0.9686  0.5510  0.1477
    4CHL1    C8  236   1.465   2.415  10.032 -0.2422 -0.2915  0.0416
    4CHL1    H8  237   1.536   2.501  10.036  0.0834 -0.6115  1.8855
    4CHL1   C14  238   1.421   2.370   9.891  0.0340 -0.7262 -0.4685
    4CHL1   H14  239   1.348   2.289   9.908 -1.3327  0.5147 -0.2522
    4CHL1   C15  240   1.514   2.301   9.803  0.2835 -0.0388  0.3290
    4CHL1  H15A  241   1.606   2.362   9.792 -0.0419  0.0159 -3.3656
    4CHL1  H15B  242   1.536   2.197   9.835 -0.4134  0.0254  1.0726
    4CHL1   C16  243   1.447   2.305   9.660  0.4548 -0.3382  0.3300
    4CHL1  H16A  244   1.520   2.332   9.581  0.0337  0.6976  0.2825
    4CHL1  H16B  245   1.417   2.199   9.641  3.6211 -1.2965  0.1680
    4CHL1   C17  246   1.329   2.410   9.677  0.0169  0.4354  0.0760
    4CHL1   H17  247   1.234   2.355   9.693 -0.8396  1.6142 -0.7392
    4CHL1   C13  248   1.350   2.481   9.815 -0.0395  0.1733 -0.3829
    4CHL1   C18  249   1.429   2.604   9.789 -0.1892 -0.2133  0.1586
    4CHL1  H18A  250   1.365   2.676   9.735 -0.0373  0.3402  0.6938
    4CHL1  H18B  251   1.471   2.656   9.878 -0.0387  0.5143 -0.3347
    4CHL1  H18C  252   1.516   2.579   9.724 -0.3354  0.2769 -0.2271
    4CHL1   C12  253   1.219   2.516   9.895  0.1651  0.2724 -0.5414
    4CHL1  H12A  254   1.174   2.599   9.836  1.1531  2.3636  1.4910
    4CHL1  H12B  255   1.147   2.434   9.914  0.6132 -0.0488 -0.1855
    4CHL1   C11  256   1.255   2.565  10.034  0.0087 -1.0747 -0.2354
    4CHL1  H11A  257   1.315   2.656  10.009 -0.1440 -1.7896 -3.7044
    4CHL1  H11B  258   1.169   2.605  10.091  1.1510  1.9847 -0.4232
    4CHL1    C9  259   1.339   2.467  10.110 -0.4160  0.1192  0.1691
    4CHL1    H9  260   1.271   2.379  10.115  0.3345 -0.6093 -1.5213
    4CHL1   C10  261   1.374   2.502  10.260  0.1969  1.0420 -0.0278
    4CHL1   C19  262   1.432   2.644  10.258  0.1907  0.4488  0.1279
    4CHL1  H19A  263   1.472   2.672  10.358 -0.0323  1.4039 -0.0461
    4CHL1  H19B  264   1.505   2.656  10.175  0.3118  0.4737  0.2381
    4CHL1  H19C  265   1.353   2.720  10.243 -1.6138 -1.7949 -2.6746
    4CHL1    C1  266   1.245   2.488  10.344 -0.3816  0.0911 -0.1684
    4CHL1   H1A  267   1.190   2.579  10.311  2.0062  1.0767 -1.6716
    4CHL1   H1B  268   1.179   2.401  10.324 -0.1732 -0.6328  2.0463
    4CHL1    C2  269   1.263   2.500  10.497  0.0447 -0.3992  0.3701
    4CHL1   H2A  270   1.166   2.514  10.550 -0.4516  0.1735 -0.6637
    4CHL1   H2B  271   1.320   2.591  10.526  0.3814 -0.6588  0.5204
    4CHL1   C20  272   1.304   2.483   9.545  0.2730  0.2676 -0.5746
    4CHL1   H20  273   1.380   2.560   9.518  0.7822  0.0016  0.0673
    4CHL1   C21  274   1.171   2.555   9.555 -1.2725  0.0053 -0.9749
    4CHL1  H21A  275   1.099   2.481   9.596  0.1924 -0.1337  1.5365
    4CHL1  H21B  276   1.139   2.596   9.457 -1.0998  1.7524 -0.3259
    4CHL1  H21C  277   1.178   2.631   9.636  2.3162 -1.6345  0.4645
    4CHL1   C22  278   1.297   2.381   9.427 -0.2636 -0.6741 -0.2026
    4CHL1  H22A  279   1.398   2.348   9.396 -0.1274 -0.5871  0.1414
    4CHL1  H22B  280   1.249   2.287   9.460 -0.1107 -0.0802  1.8424
    4CHL1   C23  281   1.204   2.414   9.310 -0.1301 -0.0827 -0.3667
    4CHL1  H23A  282   1.100   2.396   9.345  0.6690 -2.6116  0.9635
    4CHL1  H23B  283   1.222   2.521   9.283 -0.9594  0.1027 -0.2124
    4CHL1   C24  284   1.224   2.328   9.190 -0.5346 -0.0522  0.2735
    4CHL1  H24A  285   1.334   2.324   9.177 -0.6486  0.0379 -0.8296
    4CHL1  H24B  286   1.190   2.223   9.204 -0.7618 -0.5323 -3.1003
    4CHL1   C25  287   1.159   2.378   9.054  0.1692 -0.8277 -0.6197
    4CHL1   H25  288   1.195   2.481   9.033 -1.0087  0.2490  2.0302
    4CHL1   C26  289   1.188   2.286   8.936  0.4952  0.8907 -0.4212
    4CHL1  H26A  290   1.211   2.332   8.838  2.3218  0.9463  0.0024
    4CHL1  H26B  291   1.284   2.236   8.963  1.0111  2.3790  0.6723
    4CHL1  H26C  292   1.109   2.212   8.912  1.3078  0.0507 -0.5888
    4CHL1   C27  293   1.010   2.389   9.072  0.0868 -0.5201  0.5396
    4CHL1  H27A  294   0.988   2.429   9.173 -0.1894  0.7630 -0.0033
    4CHL1  H27B  295   0.959   2.446   8.991 -2.8774 -4.1170 -0.4572
    4CHL1  H27C  296   0.972   2.285   9.058  0.1599 -0.2867 -1.8331
    5CHL1    C3  297   2.130   0.265  10.082 -0.2883 -0.9321  0.1332
    5CHL1    H3  298   2.238   0.289  10.093 -0.4306 -0.3224  0.2456
    5CHL1    O3  299   2.107   0.195  10.199 -0.1510 -0.3081  0.4708
    5CHL1   H3'  300   2.092   0.102  10.182  0.8931 -0.7198  1.6294
    5CHL1    C4  301   2.046   0.392  10.078  0.1422  0.5939 -0.4035
    5CHL1   H4A  302   1.936   0.381  10.086  0.1527 -0.9494 -1.7557
    5CHL1   H4B  303   2.067   0.464  10.160 -2.5832  1.2850 -0.2023
    5CHL1    C5  304   2.082   0.457   9.943  0.2099 -0.1260  0.7603
    5CHL1    C6  305   2.141   0.575   9.937 -0.2354  0.2269  0.5001
    5CHL1    H6  306   2.148   0.634  10.030 -0.6386  1.5392 -0.2763
    5CHL1    C7  307   2.167   0.654   9.814 -0.1527  0.5596 -0.1742
    5CHL1   H7A  308   2.130   0.757   9.833 -1.7466 -0.2994  1.6797
    5CHL1   H7B  309   2.276   0.657   9.794 -0.2424 -2.8647 -1.8200
    5CHL1    C8  310   2.100   0.600   9.686  0.1416 -0.4504  0.7699
    5CHL1    H8  311   1.993   0.631   9.691 -0.3608 -1.6308 -1.4495
    5CHL1   C14  312   2.170   0.656   9.561  0.9237  0.4403  0.5947
    5CHL1   H14  313   2.274   0.619   9.549  0.5641  0.0718 -2.0177
    5CHL1   C15  314   2.179   0.804   9.541  0.0058  0.3307 -0.2202
    5CHL1  H15A  315   2.084   0.857   9.564 -1.0807 -2.0083  1.1208
    5CHL1  H15B  316   2.257   0.841   9.611 -0.8109 -0.5854  1.2263
    5CHL1   C16  317   2.217   0.819   9.397 -0.4183  0.4721 -0.6598
    5CHL1  H16A  318   2.156   0.900   9.351 -0.7026  0.8669  0.4025
    5CHL1  H16B  319   2.318   0.860   9.374 -0.6881  1.6783  0.2076
    5CHL1   C17  320   2.188   0.688   9.322  0.0021 -0.2752 -0.3039
    5CHL1   H17  321   2.283   0.630   9.314  0.7169  0.5322  1.7439
    5CHL1   C13  322   2.102   0.610   9.422 -0.6600 -0.1690 -0.0526
    5CHL1   C18  323   1.950   0.658   9.406 -0.6877  0.5890 -0.1175
    5CHL1  H18A  324   1.900   0.619   9.315 -1.0199  1.2397 -0.2183
    5CHL1  H18B  325   1.892   0.619   9.492  0.1159 -1.4399 -0.4500
    5CHL1  H18C  326   1.950   0.769   9.403 -0.5237  0.5630 -1.5488
    5CHL1   C12  327   2.106   0.455   9.411  0.4072  0.5920 -0.4483
    5CHL1  H12A  328   2.044   0.414   9.329  0.7390  0.1563 -0.4855
    5CHL1  H12B  329   2.209   0.415   9.394 -0.1761 -2.2812  1.9050
    5CHL1   C11  330   2.047   0.395   9.542 -0.2239  0.1166  0.3638
    5CHL1  H11A  331   1.937   0.410   9.540 -0.0202  2.1066  0.9954
    5CHL1  H11B  332   2.053   0.285   9.544 -1.5439 -0.0195  3.6144
    5CHL1    C9  333   2.108   0.449   9.675  0.7709 -0.3786  0.0573
    5CHL1    H9  334   2.217   0.431   9.681  0.9557  0.4726 -0.5155
    5CHL1   C10  335   2.053   0.379   9.807 -0.0491 -0.1420  0.3098
    5CHL1   C19  336   1.900   0.342   9.796 -0.0118 -0.3407  0.1750
    5CHL1  H19A  337   1.850   0.426   9.745 -0.1907 -1.0445 -0.8381
    5CHL1  H19B  338   1.895   0.257   9.724 -0.0130  0.2599 -0.5420
    5CHL1  H19C  339   1.845   0.309   9.887 -0.0852  0.2296  0.3358
    5CHL1    C1  340   2.139   0.253   9.837 -1.0586  0.0724  0.1653
    5CHL1   H1A  341   2.127   0.176   9.758 -1.8682 -0.1609  0.5095
    5CHL1   H1B  342   2.246   0.286   9.839 -0.2657 -2.2728 -0.2389
    5CHL1    C2  343   2.102   0.173   9.969  0.9495 -0.1025 -0.4947
    5CHL1   H2A  344   2.149   0.074   9.982  0.0299 -0.2478  2.3724
    5CHL1   H2B  345   1.995   0.145   9.956  1.5373 -2.1556 -1.2756
    5CHL1   C20  346   2.154   0.708   9.174  0.2562 -0.6460  0.4188
    5CHL1   H20  347   2.057   0.760   9.164  0.6075 -0.0865 -0.1414
    5CHL1   C21  348   2.127   0.570   9.101  0.2066  0.0787 -0.1794
    5CHL1  H21A  349   2.079   0.588   9.002  1.0398  0.3945 -0.5452
    5CHL1  H21B  350   2.059   0.514   9.168  1.5416 -0.4372  0.7847
    5CHL1  H21C  351   2.226   0.519   9.091  1.0180  1.5979 -0.2535
    5CHL1   C22  352   2.263   0.789   9.098 -0.2310  0.2987 -0.0439
    5CHL1  H22A  353   2.279   0.888   9.146  0.3096  0.7438 -1.1142
    5CHL1  H22B  354   2.364   0.743   9.099 -0.6417 -0.7225  2.3201
    5CHL1   C23  355   2.217   0.825   8.959  0.4639 -0.8593  0.7307
    5CHL1  H23A  356   2.258   0.757   8.882  1.2928  1.5430 -1.0571
    5CHL1  H23B  357   2.107   0.807   8.957  0.2015  0.6487 -0.8844
    5CHL1   C24  358   2.249   0.976   8.928 -0.1230  0.4420 -0.0085
    5CHL1  H24A  359   2.218   1.007   8.827  1.0189 -0.2291 -0.5881
    5CHL1  H24B  360   2.187   1.033   9.001 -0.2795 -1.6589  1.6256
    5CHL1   C25  361   2.404   1.017   8.920  0.3026  0.1200  0.1375
    5CHL1   H25  362   2.444   0.962   9.008  1.9159 -0.7112 -1.0747
    5CHL1   C26  363   2.472   0.968   8.793 -0.5193  0.5915  0.4323
    5CHL1  H26A  364   2.416   0.991   8.700 -2.4649 -1.7956  0.9152
    5CHL1  H26B  365   2.573   1.013   8.783 -0.7435  0.8302 -1.0009
    5CHL1  H26C  366   2.489   0.859   8.809 -1.2144  0.7424  2.5238
    5CHL1   C27  367   2.432   1.158   8.929  0.5652 -0.0647 -0.0323
    5CHL1  H27A  368   2.447   1.206   8.830 -0.0613 -2.5321 -1.3971
    5CHL1  H27B  369   2.360   1.219   8.987  1.8572  0.6530  0.8818
    5CHL1  H27C  370   2.529   1.177   8.981  0.9841 -0.9663 -0.4639
    6CHL1    C3  371   2.240   4.757  10.301 -0.9781  0.8428  0.4478
    6CHL1    H3  372   2.282   4.859  10.307 -1.2488  1.0598 -1.0217
    6CHL1    O3  373   2.222   4.710  10.435 -0.4128  0.1978 -0.0802
    6CHL1   H3'  374   2.302   4.667  10.464 -0.0024  0.7318 -0.3949
    6CHL1    C4  375   2.102   4.764  10.244 -0.0755 -0.2933  0.4150
    6CHL1   H4A  376   2.060   4.662  10.247 -1.3673  0.1280 -1.3845
    6CHL1   H4B  377   2.036   4.834  10.300 -0.1897 -0.9723  1.1459
    6CHL1    C5  378   2.108   4.796  10.093  0.0793  0.1652  0.3580
    6CHL1    C6  379   2.049   4.910  10.045  0.0413  0.3332 -0.2245
    6CHL1    H6  380   1.980   4.964  10.111 -0.8705 -1.1428  0.0829
    6CHL1    C7  381   2.049   4.944   9.899  0.3578  0.3242  0.0504
    6CHL1   H7A  382   1.947   4.975   9.869 -0.7445 -4.2106 -1.6888
    6CHL1   H7B  383   2.125   5.026   9.897  0.5536  0.1971  1.3695
    6CHL1    C8  384   2.094   4.824   9.803  0.6833 -0.1855  0.6863
    6CHL1    H8  385   2.009   4.753   9.799 -1.0791  1.6352  2.7152
    6CHL1   C14  386   2.104   4.879   9.658  0.3366 -0.0011 -0.2739
    6CHL1   H14  387   2.180   4.959   9.655 -0.4071  0.7911  1.3182
    6CHL1   C15  388   1.976   4.939   9.598 -0.2187 -0.0553  0.2448
    6CHL1  H15A  389   1.885   4.878   9.617  0.0524 -0.1148  1.4117
    6CHL1  H15B  390   1.938   5.037   9.634  0.5413 -0.1008  1.1780
    6CHL1   C16  391   2.005   4.943   9.450 -0.3727  0.3848  0.0263
    6CHL1  H16A  392   1.923   4.891   9.395  0.8120  1.1808 -2.6855
    6CHL1  H16B  393   2.028   5.045   9.413 -0.4244 -0.0426 -1.2337
    6CHL1   C17  394   2.133   4.865   9.419  0.2135  0.0248 -0.0810
    6CHL1   H17  395   2.222   4.930   9.424  0.8942 -0.9048  0.1215
    6CHL1   C13  396   2.157   4.776   9.548 -0.1267  0.2745  0.1000
    6CHL1   C18  397   2.067   4.649   9.545 -0.6508 -0.6941  0.3490
    6CHL1  H18A  398   1.967   4.673   9.504 -0.2844 -0.5450 -0.4780
    6CHL1  H18B  399   2.110   4.568   9.481 -0.1406  0.3021 -0.6065
    6CHL1  H18C  400   2.053   4.596   9.642 -0.9431  0.6928  1.0803
    6CHL1   C12  401   2.302   4.742   9.605  0.3259 -0.8519  0.1465
    6CHL1  H12A  402   2.356   4.672   9.537  0.4653  0.4474 -1.1336
    6CHL1  H12B  403   2.365   4.833   9.600 -0.9953  0.0791 -0.0587
    6CHL1   C11  404   2.289   4.680   9.752 -0.2960 -0.0878  0.4371
    6CHL1  H11A  405   2.225   4.590   9.742  0.6795 -0.5808 -2.6234
    6CHL1  H11B  406   2.386   4.632   9.778 -1.5834 -2.2517  1.4423
    6CHL1    C9  407   2.225   4.771   9.861  0.6750  0.0854  0.6101
    6CHL1    H9  408   2.293   4.858   9.869 -1.8962  2.1351  1.5322
    6CHL1   C10  409   2.208   4.708  10.002 -0.0602 -0.0673 -0.5851
    6CHL1   C19  410   2.144   4.562   9.974 -0.2341 -0.8778  0.3782
    6CHL1  H19A  411   2.126   4.520  10.075 -0.5667 -0.1205  0.6461
    6CHL1  H19B  412   2.050   4.565   9.915  0.5115 -1.4009 -0.8630
    6CHL1  H19C  413   2.214   4.497   9.917 -0.3325 -1.9300  1.4179
    6CHL1    C1  414   2.341   4.707  10.076 -0.8244  0.5965  0.0621
    6CHL1   H1A  415   2.412   4.640  10.023 -1.0852 -0.5751  1.1514
    6CHL1   H1B  416   2.387   4.808  10.071 -0.3768  0.3354 -1.7652
    6CHL1    C2  417   2.343   4.671  10.227 -1.1305  0.2843  0.1721
    6CHL1   H2A  418   2.443   4.687  10.274 -2.0142  2.6809  1.4048
    6CHL1   H2B  419   2.310   4.565  10.232 -2.0855  0.3241 -3.1513
    6CHL1   C20  420   2.126   4.791   9.284 -0.7043 -0.2707  0.3592
    6CHL1   H20  421   2.049   4.711   9.281 -0.8464 -0.1227 -0.0053
    6CHL1   C21  422   2.264   4.725   9.265 -0.3260 -0.2105 -0.5021
    6CHL1  H21A  423   2.277   4.643   9.340  5.7405 -0.0459 -0.8940
    6CHL1  H21B  424   2.344   4.801   9.275 -2.9226  2.7619 -0.8734
    6CHL1  H21C  425   2.268   4.668   9.170  0.3130 -0.9764 -0.0293
    6CHL1   C22  426   2.114   4.890   9.170  0.1568 -0.1010 -0.8949
    6CHL1  H22A  427   2.014   4.940   9.170 -0.0131 -0.4185 -0.2157
    6CHL1  H22B  428   2.196   4.963   9.183  0.6475 -0.6763 -0.7054
    6CHL1   C23  429   2.127   4.840   9.025  0.3760  0.1002 -0.0319
    6CHL1  H23A  430   2.232   4.814   8.997  0.3018 -1.0884  0.7274
    6CHL1  H23B  431   2.077   4.741   9.030  0.4514  0.1014  0.9453
    6CHL1   C24  432   2.067   4.933   8.924 -0.3269  0.1641  0.7418
    6CHL1  H24A  433   1.958   4.914   8.931  0.1256 -3.1542  0.3210
    6CHL1  H24B  434   2.095   5.037   8.951 -3.1575  1.6163 -1.3605
    6CHL1   C25  435   2.096   4.907   8.774 -0.2428 -0.2678  0.1181
    6CHL1   H25  436   2.203   4.879   8.773 -0.1470  0.0955 -0.4565
    6CHL1   C26  437   2.037   4.779   8.716  0.2060 -0.1522  0.6688
    6CHL1  H26A  438   2.063   4.755   8.611 -2.2704  0.7994 -0.2473
    6CHL1  H26B  439   2.060   4.696   8.785  1.5072 -0.3137  0.0699
    6CHL1  H26C  440   1.928   4.793   8.702  0.7078  2.8863 -1.1769
    6CHL1   C27  441   2.094   5.031   8.679  0.3389 -0.5745  0.0248
    6CHL1  H27A  442   2.159   5.008   8.592  1.2078  2.4368 -0.2366
    6CHL1  H27B  443   1.985   5.047   8.664  0.7919  2.2554 -0.7137
    6CHL1  H27C  444   2.133   5.121   8.731 -3.4603  0.2139  1.8470
    7CHL1    C3  445   4.084   0.848  10.455 -0.3535 -0.4907  0.3737
    7CHL1    H3  446   4.192   0.873  10.444 -0.9423  1.5068 -1.3200
    7CHL1    O3  447   4.064   0.898  10.589  1.0563 -0.2924  0.0672
    7CHL1   H3'  448   3.980   0.867  10.623  0.4441  2.7029  1.6373
    7CHL1    C4  449   3.997   0.938  10.361  0.6991  0.6823  0.2361
    7CHL1   H4A  450   3.889   0.939  10.384  0.6485  2.8995  0.1164
    7CHL1   H4B  451   4.022   1.046  10.370  1.4876  0.6187 -0.9098
    7CHL1    C5  452   4.033   0.896  10.217 -0.4372  0.7037  0.5951
    7CHL1    C6  453   4.094   0.985  10.134 -0.4079  0.2271 -0.6653
    7CHL1    H6  454   4.121   1.088  10.161 -0.6094  0.4949 -1.4663
    7CHL1    C7  455   4.127   0.953   9.990 -0.1176  0.0485 -0.3570
    7CHL1   H7A  456   4.119   1.044   9.928  1.7736  2.1310  2.2172
    7CHL1   H7B  457   4.235   0.926   9.992 -0.3854 -1.3131  2.6145
    7CHL1    C8  458   4.048   0.846   9.935  0.4280  0.0693  0.4072
    7CHL1    H8  459   3.947   0.888   9.916 -0.3911 -2.0500 -0.1494
    7CHL1   C14  460   4.111   0.814   9.799 -1.2791 -0.0897 -0.2214
    7CHL1   H14  461   4.213   0.775   9.817 -1.8031 -0.5580  1.9538
    7CHL1   C15  462   4.127   0.930   9.701  0.4794  0.3331 -0.6133
    7CHL1  H15A  463   4.030   0.984   9.692  0.1908  0.1010  0.8074
    7CHL1  H15B  464   4.222   0.982   9.722  1.2619 -2.1672  3.1400
    7CHL1   C16  465   4.148   0.862   9.570  0.8152 -0.2237  0.4090
    7CHL1  H16A  466   4.086   0.905   9.489  2.0614  0.8081 -0.0279
    7CHL1  H16B  467   4.251   0.872   9.530 -0.2740 -1.6044 -3.0989
    7CHL1   C17  468   4.103   0.710   9.588 -0.3126 -1.4195  0.0489
    7CHL1   H17  469   4.196   0.654   9.612 -0.0321 -1.3351 -0.8174
    7CHL1   C13  470   4.027   0.706   9.722 -0.0116 -0.4551 -0.2374
    7CHL1   C18  471   3.886   0.750   9.701  0.8960 -0.1230 -0.1060
    7CHL1  H18A  472   3.838   0.778   9.797  0.2235  0.1309 -0.5105
    7CHL1  H18B  473   3.873   0.836   9.633 -0.3603  2.1853  2.8546
    7CHL1  H18C  474   3.829   0.667   9.652 -1.8743  0.8813  1.2343
    7CHL1   C12  475   4.034   0.582   9.811 -0.2086 -0.3343 -0.0159
    7CHL1  H12A  476   3.987   0.493   9.764 -1.0237  0.8388 -1.5175
    7CHL1  H12B  477   4.135   0.548   9.841 -1.3316 -2.9462  1.1139
    7CHL1   C11  478   3.965   0.610   9.948  0.0305 -0.7113  0.2090
    7CHL1  H11A  479   3.856   0.632   9.941  0.0517 -0.8842 -0.6999
    7CHL1  H11B  480   3.954   0.521  10.013 -1.0765 -0.5223  0.3081
    7CHL1    C9  481   4.041   0.725  10.024  0.5759  0.2748 -0.1278
    7CHL1    H9  482   4.143   0.682  10.037  0.1010 -0.2656  2.5957
    7CHL1   C10  483   4.000   0.752  10.173  0.3476  0.2116  0.7155
    7CHL1   C19  484   3.853   0.717  10.190  0.4008  0.1441  0.5085
    7CHL1  H19A  485   3.819   0.725  10.295 -0.3052  1.9030  0.1826
    7CHL1  H19B  486   3.791   0.785  10.128 -0.3292 -1.5921 -0.7636
    7CHL1  H19C  487   3.822   0.618  10.148 -0.7864  1.5379 -2.1142
    7CHL1    C1  488   4.084   0.669  10.272 -0.6905 -0.0950 -0.0853
    7CHL1   H1A  489   4.065   0.560  10.261 -0.5702  0.1110 -3.2376
    7CHL1   H1B  490   4.192   0.680  10.250 -0.8038 -0.5134 -0.9004
    7CHL1    C2  491   4.060   0.703  10.420 -0.4485 -0.3624 -0.6330
    7CHL1   H2A  492   4.138   0.642  10.471  0.6459 -0.4141 -2.2895
    7CHL1   H2B  493   3.959   0.672  10.454  0.4895 -0.5273  2.3622
    7CHL1   C20  494   4.043   0.647   9.456  0.0449 -0.5870  0.0039
    7CHL1   H20  495   3.950   0.700   9.425 -0.1955  0.8003  2.7580
    7CHL1   C21  496   4.018   0.497   9.478 -0.2619 -0.1168  0.2267
    7CHL1  H21A  497   3.941   0.465   9.551 -1.4461 -1.1752 -1.4233
    7CHL1  H21B  498   4.119   0.458   9.506  0.7862  2.4509  0.2990
    7CHL1  H21C  499   3.988   0.455   9.380 -0.1195 -1.4203  0.7167
    7CHL1   C22  500   4.146   0.657   9.345 -0.2690 -0.0014  0.4239
    7CHL1  H22A  501   4.176   0.763   9.328 -0.5910 -0.2526 -2.0345
    7CHL1  H22B  502   4.230   0.590   9.377 -1.0889 -0.9043  0.7414
    7CHL1   C23  503   4.101   0.614   9.202  0.6418 -0.1238 -0.3386
    7CHL1  H23A  504   4.082   0.505   9.198  0.1310 -0.0209 -0.8372
    7CHL1  H23B  505   4.013   0.673   9.169  0.4606 -1.1809 -1.8513
    7CHL1   C24  506   4.210   0.647   9.105  0.3096  0.7421  0.6544
    7CHL1  H24A  507   4.244   0.751   9.121 -0.1408  0.9262  0.3969
    7CHL1  H24B  508   4.287   0.567   9.113 -0.6141 -0.0765  1.6533
    7CHL1   C25  509   4.163   0.628   8.956  0.4629 -0.1861 -0.2519
    7CHL1   H25  510   4.093   0.710   8.932 -1.2692 -0.7471  2.3948
    7CHL1   C26  511   4.283   0.663   8.872 -0.5043  0.0680 -0.2484
    7CHL1  H26A  512   4.322   0.764   8.900 -0.6284  0.2067 -0.5708
    7CHL1  H26B  513   4.362   0.586   8.882 -0.6293 -0.0770 -0.3742
    7CHL1  H26C  514   4.251   0.671   8.766 -0.4304  0.0722 -0.2702
    7CHL1   C27  515   4.094   0.493   8.941  0.1494 -0.0885  0.2457
    7CHL1  H27A  516   4.149   0.412   8.994 -1.8040 -1.2326  0.6085
    7CHL1  H27B  517   3.988   0.509   8.971 -0.9066  2.2135 -3.9391
    7CHL1  H27C  518   4.088   0.476   8.832 -1.1181 -0.1713  0.3165
    8CHL1    C3  519   5.258   1.575  10.507  0.2204  0.7897  0.0590
    8CHL1    H3  520   5.346   1.642  10.506  1.8519 -1.2300  0.7613
    8CHL1    O3  521   5.194   1.553  10.630 -0.2258  0.5626 -0.1240
    8CHL1   H3'  522   5.273   1.536  10.683  0.0075  1.7486 -0.0709
    8CHL1    C4  523   5.157   1.632  10.410 -0.1834  0.1005  1.1203
    8CHL1   H4A  524   5.067   1.569  10.395  0.7002 -1.1448  0.8546
    8CHL1   H4B  525   5.116   1.727  10.450 -2.1651  1.7596 -4.1407
    8CHL1    C5  526   5.224   1.641  10.281  0.0360 -0.5881  0.5356
    8CHL1    C6  527   5.233   1.762  10.226  0.2091  0.5674 -0.2857
    8CHL1    H6  528   5.190   1.841  10.290  0.2783 -1.1034  1.9611
    8CHL1    C7  529   5.275   1.786  10.083  0.3823  0.1361  0.2507
    8CHL1   H7A  530   5.202   1.852  10.030  0.4937  1.0812  1.2446
    8CHL1   H7B  531   5.375   1.833  10.073  0.2040  0.1985 -1.4970
    8CHL1    C8  532   5.280   1.651  10.000  0.0483  0.1893  0.2630
    8CHL1    H8  533   5.176   1.620   9.978 -1.4842  2.5276  3.4193
    8CHL1   C14  534   5.349   1.685   9.870 -0.3234  0.1151 -0.4231
    8CHL1   H14  535   5.446   1.723   9.906 -0.9468  0.9439  0.4073
    8CHL1   C15  536   5.286   1.793   9.777 -0.5777 -0.3526 -0.9023
    8CHL1  H15A  537   5.184   1.755   9.753 -1.4339  2.2409 -1.6795
    8CHL1  H15B  538   5.283   1.898   9.813  2.0317 -0.8007  0.9184
    8CHL1   C16  539   5.378   1.779   9.657  0.2354  0.7421  0.1221
    8CHL1  H16A  540   5.340   1.804   9.556  2.1621  0.6732 -0.6602
    8CHL1  H16B  541   5.458   1.854   9.670  1.2172 -0.5100  1.6614
    8CHL1   C17  542   5.446   1.638   9.660  0.8872 -0.1244  0.3623
    8CHL1   H17  543   5.554   1.657   9.679  1.2088 -1.6319  0.1539
    8CHL1   C13  544   5.370   1.573   9.780  0.2275  0.4830  0.1919
    8CHL1   C18  545   5.241   1.498   9.728 -0.3840  0.3056 -0.0630
    8CHL1  H18A  546   5.184   1.563   9.658  1.0989  2.2126  0.4050
    8CHL1  H18B  547   5.268   1.401   9.682  3.2312  1.3142 -0.3537
    8CHL1  H18C  548   5.177   1.478   9.816  0.2672 -0.4661  0.2447
    8CHL1   C12  549   5.453   1.470   9.863  0.0009  0.2963  0.4357
    8CHL1  H12A  550   5.468   1.375   9.809  2.2960  1.6055 -1.4327
    8CHL1  H12B  551   5.554   1.511   9.885 -0.3335  0.7882  1.1265
    8CHL1   C11  552   5.391   1.427   9.993 -0.3921 -0.0053 -0.3087
    8CHL1  H11A  553   5.296   1.376   9.965  0.5023 -3.2196  1.8807
    8CHL1  H11B  554   5.445   1.344  10.043  0.9591  0.4069 -1.0276
    8CHL1    C9  555   5.349   1.543  10.081 -0.3142  0.0395 -1.0486
    8CHL1    H9  556   5.448   1.587  10.103 -0.0670 -0.8241 -0.3921
    8CHL1   C10  557   5.271   1.514  10.209 -0.0516 -0.6781  0.7300
    8CHL1   C19  558   5.141   1.425  10.174  0.6063 -0.0711  0.1631
    8CHL1  H19A  559   5.089   1.468  10.086 -0.6237 -1.0735  0.3881
    8CHL1  H19B  560   5.181   1.323  10.156  1.5750  0.4252 -0.6499
    8CHL1  H19C  561   5.062   1.427  10.252  1.6731  2.0823  1.2952
    8CHL1    C1  562   5.365   1.446  10.312 -1.0302  0.3925  0.5985
    8CHL1   H1A  563   5.386   1.340  10.286 -2.0622  0.4138 -0.4147
    8CHL1   H1B  564   5.462   1.502  10.311 -1.1739  0.6473  0.1205
    8CHL1    C2  565   5.309   1.435  10.456 -0.0405 -0.0270  0.4214
    8CHL1   H2A  566   5.385   1.388  10.521 -1.3375 -0.4162  1.6993
    8CHL1   H2B  567   5.217   1.373  10.461  0.0801 -0.1155  2.0383
    8CHL1   C20  568   5.433   1.560   9.522  0.1608  0.7212  0.4190
    8CHL1   H20  569   5.327   1.536   9.497  0.1549  0.6169  0.5416
    8CHL1   C21  570   5.518   1.433   9.531  0.7183  0.1432 -0.5958
    8CHL1  H21A  571   5.462   1.354   9.584  1.3674  0.7812  1.0931
    8CHL1  H21B  572   5.607   1.442   9.597 -0.9505 -3.0083  2.4243
    8CHL1  H21C  573   5.548   1.384   9.435  0.1478 -0.9088 -0.2461
    8CHL1   C22  574   5.486   1.642   9.399  0.8476  0.6936 -0.1416
    8CHL1  H22A  575   5.463   1.751   9.400  0.3356  0.6304 -1.6966
    8CHL1  H22B  576   5.597   1.645   9.405  1.0948 -1.2698 -2.3137
    8CHL1   C23  577   5.426   1.583   9.269  0.5816  0.5630  0.1979
    8CHL1  H23A  578   5.470   1.482   9.256  0.3255  0.4705  0.0499
    8CHL1  H23B  579   5.316   1.567   9.271  0.6034  0.4451  1.3842
    8CHL1   C24  580   5.458   1.671   9.146  0.4430 -0.0963 -0.8665
    8CHL1  H24A  581   5.412   1.770   9.169  2.0848  0.2314  1.4053
    8CHL1  H24B  582   5.569   1.673   9.145  0.6201 -2.6895  1.6399
    8CHL1   C25  583   5.421   1.612   9.012  0.1208 -0.3067  1.1195
    8CHL1   H25  584   5.469   1.512   9.014 -0.2312 -0.5141 -0.1455
    8CHL1   C26  585   5.272   1.574   9.004  0.3942 -0.4881  0.1708
    8CHL1  H26A  586   5.247   1.524   8.909  0.1209 -2.2307  1.1149
    8CHL1  H26B  587   5.253   1.498   9.084 -3.3570 -1.6098 -1.5935
    8CHL1  H26C  588   5.218   1.670   9.013  2.0392  0.5466 -0.5390
    8CHL1   C27  589   5.464   1.702   8.894 -0.2094 -0.0055  0.1521
    8CHL1  H27A  590   5.416   1.802   8.885  1.0099  0.7020  1.1249
    8CHL1  H27B  591   5.574   1.722   8.896 -0.1058 -0.2713 -1.6586
    8CHL1  H27C  592   5.456   1.651   8.796  1.6200  1.7987 -1.0300
    9CHL1    C3  593   2.054   5.631  10.164  0.7417 -0.2687  0.4087
    9CHL1    H3  594   1.955   5.585  10.141  0.2730  1.5189 -1.3551
    9CHL1    O3  595   2.087   5.589  10.298  0.1250 -0.0536  0.8863
    9CHL1   H3'  596   2.044   5.503  10.298  0.7210 -0.4172 -1.2051
    9CHL1    C4  597   2.167   5.577  10.073 -0.1013 -0.6668  0.1716
    9CHL1   H4A  598   2.254   5.613  10.132  0.5298 -0.9937 -0.5499
    9CHL1   H4B  599   2.162   5.466  10.066 -2.5842 -0.6394  0.6152
    9CHL1    C5  600   2.158   5.640   9.935 -0.6672  0.1034 -0.3764
    9CHL1    C6  601   2.140   5.566   9.824  0.8559 -0.1154 -0.5154
    9CHL1    H6  602   2.145   5.457   9.840  0.2828 -0.0072  0.4556
    9CHL1    C7  603   2.143   5.619   9.686 -0.0168  0.2846 -0.2246
    9CHL1   H7A  604   2.214   5.568   9.617 -0.7184 -0.4841 -0.3819
    9CHL1   H7B  605   2.042   5.614   9.640 -0.5997  2.4185  0.6753
    9CHL1    C8  606   2.182   5.768   9.679 -0.4301 -0.5254 -1.1644
    9CHL1    H8  607   2.290   5.786   9.697 -0.6402  0.7450 -1.0681
    9CHL1   C14  608   2.135   5.818   9.541 -0.5029  0.1853  0.4782
    9CHL1   H14  609   2.024   5.809   9.532 -0.2530 -1.6693 -1.7443
    9CHL1   C15  610   2.186   5.729   9.426  0.7916 -0.4497 -0.2457
    9CHL1  H15A  611   2.285   5.688   9.455  0.8129 -0.5324 -0.4356
    9CHL1  H15B  612   2.118   5.647   9.396  0.0902  0.4773 -1.2758
    9CHL1   C16  613   2.203   5.825   9.306 -0.1310  0.1232  0.0340
    9CHL1  H16A  614   2.301   5.801   9.260  0.2628 -0.3798  1.0827
    9CHL1  H16B  615   2.131   5.796   9.228 -1.4447  0.1998  1.1832
    9CHL1   C17  616   2.168   5.964   9.355  0.3163  0.6055  1.4687
    9CHL1   H17  617   2.057   5.963   9.352  0.3232 -0.0443  1.3460
    9CHL1   C13  618   2.184   5.966   9.509 -0.4950  0.2842  0.1373
    9CHL1   C18  619   2.340   5.971   9.532 -0.3781  0.2753 -0.1134
    9CHL1  H18A  620   2.379   6.065   9.489  1.1779  1.0126  2.6632
    9CHL1  H18B  621   2.366   5.980   9.640 -2.7334 -0.4467  0.5785
    9CHL1  H18C  622   2.390   5.880   9.493  1.3122  1.1968 -0.1962
    9CHL1   C12  623   2.100   6.054   9.608  0.1563  0.8624  0.9106
    9CHL1  H12A  624   2.144   6.156   9.612 -0.2922  1.4051 -3.2995
    9CHL1  H12B  625   1.993   6.053   9.579  0.2138 -1.6785  0.5649
    9CHL1   C11  626   2.121   6.003   9.754  0.2750 -0.5852 -0.0922
    9CHL1  H11A  627   2.222   6.034   9.788 -0.5309  1.5377  0.5533
    9CHL1  H11B  628   2.055   6.061   9.822  2.3957 -0.1181  1.6656
    9CHL1    C9  629   2.104   5.853   9.786 -0.3532 -0.2615  0.1816
    9CHL1    H9  630   1.999   5.829   9.758  0.5125  0.3939 -4.3497
    9CHL1   C10  631   2.146   5.799   9.925  0.4582 -1.3112 -0.3918
    9CHL1   C19  632   2.287   5.860   9.973  0.6436  0.7396  0.0567
    9CHL1  H19A  633   2.321   5.825  10.073 -0.3317 -0.5080 -0.0282
    9CHL1  H19B  634   2.369   5.830   9.904 -0.9004 -0.5225 -1.2902
    9CHL1  H19C  635   2.285   5.971   9.980 -0.0174  0.6417  2.0540
    9CHL1    C1  636   2.022   5.844  10.014 -0.8958  0.3428  0.1306
    9CHL1   H1A  637   2.015   5.955  10.014  1.4724  0.5726 -1.8309
    9CHL1   H1B  638   1.928   5.809   9.966 -1.2725  1.4191  0.0500
    9CHL1    C2  639   2.036   5.785  10.155 -0.1949 -0.5593 -0.0204
    9CHL1   H2A  640   1.946   5.820  10.210 -0.3150  1.9754 -1.6980
    9CHL1   H2B  641   2.121   5.822  10.217 -0.0388  0.9387 -1.0712
    9CHL1   C20  642   2.228   6.072   9.268  0.3188  0.4680 -0.0276
    9CHL1   H20  643   2.334   6.042   9.252 -0.2405 -1.6685  0.0234
    9CHL1   C21  644   2.232   6.216   9.338 -0.1697  0.4510  0.3934
    9CHL1  H21A  645   2.139   6.276   9.329  0.7372  1.7276 -0.8981
    9CHL1  H21B  646   2.306   6.276   9.281  0.1326  0.6663  1.0032
    9CHL1  H21C  647   2.280   6.223   9.438  0.2178 -0.9631  0.3377
    9CHL1   C22  648   2.176   6.070   9.120  0.9543  0.3262 -0.3544
    9CHL1  H22A  649   2.197   5.971   9.072 -0.9835 -0.1741 -0.2521
    9CHL1  H22B  650   2.065   6.074   9.126  0.5768  0.0841 -4.2669
    9CHL1   C23  651   2.229   6.172   9.025 -0.6687 -0.3777  0.1294
    9CHL1  H23A  652   2.194   6.272   9.058  1.5017 -0.6360  3.8293
    9CHL1  H23B  653   2.339   6.175   9.041 -0.7752 -1.9357  1.3442
    9CHL1   C24  654   2.186   6.153   8.877  0.4799  1.0085 -0.3659
    9CHL1  H24A  655   2.223   6.055   8.841 -2.8298 -0.6820  0.4170
    9CHL1  H24B  656   2.076   6.149   8.883  0.4282  0.8522 -1.3207
    9CHL1   C25  657   2.233   6.259   8.780 -0.5272 -0.4204 -0.4495
    9CHL1   H25  658   2.213   6.357   8.828  1.1639 -0.9274  1.3784
    9CHL1   C26  659   2.389   6.247   8.761 -0.0395 -0.2891  0.6433
    9CHL1  H26A  660   2.427   6.245   8.866 -0.0385 -2.2572  0.6420
    9CHL1  H26B  661   2.421   6.156   8.705 -0.7254  0.3385 -0.8223
    9CHL1  H26C  662   2.428   6.337   8.710  1.0296 -0.0947  1.7416
    9CHL1   C27  663   2.162   6.264   8.644 -0.0279 -0.4435 -0.2213
    9CHL1  H27A  664   2.057   6.300   8.649 -0.5420 -1.8566 -0.5214
    9CHL1  H27B  665   2.210   6.336   8.574  0.9050 -0.5072  0.3467
    9CHL1  H27C  666   2.151   6.160   8.607  0.8520 -0.8392  0.6017
   10CHL1    C3  667   0.644   4.386  10.191  0.6077  0.0732 -0.0142
   10CHL1    H3  668   0.755   4.387  10.193  0.6885 -0.7544 -1.9128
   10CHL1    O3  669   0.592   4.348  10.315 -0.0931  0.2416  0.4189
   10CHL1   H3'  670   0.497   4.362  10.311 -0.2541 -0.7709  0.4477
   10CHL1    C4  671   0.588   4.524  10.150  0.1746  0.4208 -0.2271
   10CHL1   H4A  672   0.478   4.525  10.162 -0.1977 -3.4965 -1.8927
   10CHL1   H4B  673   0.615   4.606  10.221 -1.1004  0.7482 -0.1013
   10CHL1    C5  674   0.631   4.561  10.011  0.0070 -0.4664 -0.0359
   10CHL1    C6  675   0.696   4.675   9.987  1.0412 -0.3969 -0.2480
   10CHL1    H6  676   0.713   4.744  10.071 -0.5816 -0.2503 -0.0086
   10CHL1    C7  677   0.726   4.732   9.853  0.0293 -0.0132  0.2783
   10CHL1   H7A  678   0.705   4.841   9.855  0.8463  0.1806 -0.9525
   10CHL1   H7B  679   0.829   4.701   9.824 -0.0827  1.1308 -1.4391
   10CHL1    C8  680   0.650   4.665   9.738  0.1436  0.3583  0.4117
   10CHL1    H8  681   0.545   4.703   9.744  0.2370  0.4183  1.8838
   10CHL1   C14  682   0.718   4.689   9.606 -0.4766 -0.8822 -0.0975
   10CHL1   H14  683   0.823   4.655   9.619  0.8957  2.4058 -1.3204
   10CHL1   C15  684   0.746   4.840   9.558  0.0535  0.1479 -0.4705
   10CHL1  H15A  685   0.651   4.891   9.585 -0.1105 -0.1700 -0.4314
   10CHL1  H15B  686   0.832   4.883   9.613  0.3988 -1.2644  0.1471
   10CHL1   C16  687   0.758   4.832   9.408  0.6691 -0.3762  0.1294
   10CHL1  H16A  688   0.693   4.902   9.350  0.0455  0.2072  1.4990
   10CHL1  H16B  689   0.861   4.857   9.372  0.5185 -0.3578 -0.2934
   10CHL1   C17  690   0.727   4.676   9.370  0.0264 -0.3173  1.0277
   10CHL1   H17  691   0.823   4.621   9.365  0.1170 -0.0486 -0.8153
   10CHL1   C13  692   0.644   4.618   9.491 -0.1840  0.1773  0.0579
   10CHL1   C18  693   0.498   4.673   9.490 -0.4159  0.9184  0.5622
   10CHL1  H18A  694   0.438   4.640   9.578 -0.1401  0.2717  0.5126
   10CHL1  H18B  695   0.502   4.783   9.478  1.4666  0.7045 -1.3133
   10CHL1  H18C  696   0.444   4.622   9.407  0.4167 -0.7401  1.0078
   10CHL1   C12  697   0.661   4.468   9.513  0.1251  0.0270 -0.2764
   10CHL1  H12A  698   0.616   4.407   9.433  0.0246  0.3253 -0.4462
   10CHL1  H12B  699   0.771   4.451   9.516  0.4954  2.0855 -0.8436
   10CHL1   C11  700   0.593   4.422   9.646 -0.3052 -0.0016  0.2752
   10CHL1  H11A  701   0.484   4.437   9.633 -0.0578  2.1421  0.4315
   10CHL1  H11B  702   0.626   4.317   9.662 -0.8509 -0.1697  0.3215
   10CHL1    C9  703   0.650   4.510   9.768  0.6583 -0.4612  0.2658
   10CHL1    H9  704   0.759   4.488   9.767  0.9118  0.7147 -0.4237
   10CHL1   C10  705   0.592   4.460   9.906  0.5478 -0.4608  0.2406
   10CHL1   C19  706   0.439   4.456   9.893  0.4659  0.1813 -0.7598
   10CHL1  H19A  707   0.397   4.378   9.826  0.5304 -0.1229 -0.4439
   10CHL1  H19B  708   0.395   4.434   9.993 -2.5150  1.1165 -1.7463
   10CHL1  H19C  709   0.393   4.550   9.856 -1.7261 -1.0778 -1.3857
   10CHL1    C1  710   0.648   4.325   9.943  0.8564 -0.2697 -0.0775
   10CHL1   H1A  711   0.625   4.246   9.867 -1.0408  0.7774 -0.6454
   10CHL1   H1B  712   0.759   4.329   9.955  0.8299 -1.6857  0.8985
   10CHL1    C2  713   0.603   4.284  10.085 -0.1047 -0.1606 -0.1220
   10CHL1   H2A  714   0.635   4.181  10.109 -2.7036 -1.1427 -0.5072
   10CHL1   H2B  715   0.493   4.268  10.090 -0.3393  1.1520 -0.6434
   10CHL1   C20  716   0.663   4.667   9.227 -0.3440  0.0783 -0.6826
   10CHL1   H20  717   0.562   4.711   9.239  0.1330  1.8644 -2.5292
   10CHL1   C21  718   0.647   4.520   9.183  0.1883 -0.8468 -0.2094
   10CHL1  H21A  719   0.749   4.476   9.184  1.0525  0.9662  1.9991
   10CHL1  H21B  720   0.625   4.519   9.074  2.1987  1.0502 -0.7115
   10CHL1  H21C  721   0.566   4.471   9.241  2.8232 -1.5513  3.2614
   10CHL1   C22  722   0.722   4.758   9.113 -0.1120  0.1773 -0.7749
   10CHL1  H22A  723   0.660   4.741   9.023  1.0661 -2.7401 -1.1441
   10CHL1  H22B  724   0.716   4.863   9.149  0.4417 -0.7791  2.5200
   10CHL1   C23  725   0.866   4.723   9.077 -0.2488 -0.3513 -0.3239
   10CHL1  H23A  726   0.932   4.730   9.166 -1.4484 -2.9569  0.8844
   10CHL1  H23B  727   0.865   4.616   9.047  0.4914 -1.0030  1.7963
   10CHL1   C24  728   0.912   4.811   8.958  0.3888  0.2978 -0.2225
   10CHL1  H24A  729   0.822   4.809   8.893 -0.3384 -3.6592  0.6386
   10CHL1  H24B  730   0.942   4.913   8.990  3.2186 -0.1687 -1.1219
   10CHL1   C25  731   1.024   4.748   8.873  0.5063  0.0578 -0.3248
   10CHL1   H25  732   0.981   4.653   8.835  1.9544 -2.0148  2.7591
   10CHL1   C26  733   1.080   4.831   8.759  0.2377 -0.3792  0.1767
   10CHL1  H26A  734   1.169   4.787   8.707  0.8530  1.3021 -0.2679
   10CHL1  H26B  735   1.004   4.861   8.683 -0.9617  1.4592  2.0169
   10CHL1  H26C  736   1.110   4.927   8.806 -0.0193 -1.5435  2.9124
   10CHL1   C27  737   1.153   4.694   8.941 -0.1565 -0.2578  0.3446
   10CHL1  H27A  738   1.222   4.779   8.957 -1.3001  0.4897  1.4811
   10CHL1  H27B  739   1.139   4.640   9.037 -2.3299 -1.3015 -0.4931
   10CHL1  H27C  740   1.199   4.619   8.873  1.8819  0.4378  0.8838
   11CHL1    C3  741   2.963   5.402  10.055 -0.2542 -0.0359 -0.1836
   11CHL1    H3  742   2.860   5.443  10.050 -0.7456 -1.3280 -3.3936
   11CHL1    O3  743   3.002   5.383  10.192  0.5939 -0.8052 -0.5238
   11CHL1   H3'  744   3.072   5.317  10.196  1.2191 -0.1153  0.4289
   11CHL1    C4  745   2.981   5.269   9.988  0.6855 -0.3851  0.2504
   11CHL1   H4A  746   3.076   5.216  10.010  0.5315 -0.5192  0.6004
   11CHL1   H4B  747   2.897   5.213  10.035  1.8586 -0.0944  2.8558
   11CHL1    C5  748   2.961   5.273   9.842  0.3128  0.5545 -0.6377
   11CHL1    C6  749   2.862   5.211   9.774  0.5290  0.1619 -0.1857
   11CHL1    H6  750   2.795   5.143   9.829 -1.1307  3.0759  1.7459
   11CHL1    C7  751   2.840   5.218   9.626  0.4799  0.0921  0.6222
   11CHL1   H7A  752   2.818   5.113   9.594 -0.3084 -0.2833  2.2642
   11CHL1   H7B  753   2.754   5.282   9.596  0.9982  0.7357  0.5013
   11CHL1    C8  754   2.957   5.284   9.552 -0.8357 -0.4223  0.0210
   11CHL1    H8  755   3.036   5.205   9.552  0.5672  0.9087 -0.7109
   11CHL1   C14  756   2.918   5.308   9.411  0.2326  0.2483 -0.1002
   11CHL1   H14  757   2.832   5.378   9.422 -1.3294 -1.7300  0.9702
   11CHL1   C15  758   2.870   5.190   9.330 -1.1875 -0.8196  0.1612
   11CHL1  H15A  759   2.939   5.106   9.357  0.4318  0.5515  0.4588
   11CHL1  H15B  760   2.768   5.146   9.337 -1.7630  0.0753 -1.9817
   11CHL1   C16  761   2.897   5.229   9.183  0.1247 -0.2394  0.3630
   11CHL1  H16A  762   2.971   5.161   9.137  0.1300 -1.0639  1.5371
   11CHL1  H16B  763   2.800   5.221   9.129 -0.0770 -1.2838  0.8496
   11CHL1   C17  764   2.947   5.381   9.192  0.8528  0.3350 -0.2853
   11CHL1   H17  765   2.853   5.439   9.205  0.0725 -0.6230 -1.3714
   11CHL1   C13  766   3.022   5.378   9.325 -0.2608  0.0721  0.5854
   11CHL1   C18  767   3.153   5.292   9.311 -0.1554  0.0733  0.0210
   11CHL1  H18A  768   3.228   5.358   9.263 -0.2388 -0.4505 -0.8535
   11CHL1  H18B  769   3.181   5.269   9.416 -0.9986 -0.6458  0.1080
   11CHL1  H18C  770   3.150   5.200   9.248  1.3830  0.7511 -1.0886
   11CHL1   C12  771   3.050   5.513   9.390  0.3683  0.1177 -0.1275
   11CHL1  H12A  772   3.137   5.564   9.344  0.5348 -0.0748 -0.0275
   11CHL1  H12B  773   2.960   5.578   9.382 -0.0079 -0.5947 -2.4382
   11CHL1   C11  774   3.096   5.495   9.532  0.3826  0.6123 -0.2655
   11CHL1  H11A  775   3.202   5.461   9.531  0.1772 -0.2727  1.9267
   11CHL1  H11B  776   3.090   5.600   9.567 -0.8123  0.2604  0.6312
   11CHL1    C9  777   3.003   5.405   9.625  0.0122  0.4232  0.2074
   11CHL1    H9  778   2.909   5.462   9.642  0.1721 -0.0729  3.5072
   11CHL1   C10  779   3.048   5.373   9.769  0.3149 -0.3178 -0.3295
   11CHL1   C19  780   3.194   5.320   9.761  0.0982  0.5091  0.0330
   11CHL1  H19A  781   3.239   5.302   9.861 -1.5929 -2.2486  0.3970
   11CHL1  H19B  782   3.193   5.226   9.701  0.3680 -1.5812  3.0526
   11CHL1  H19C  783   3.263   5.392   9.713  0.3521 -0.3695 -0.9643
   11CHL1    C1  784   3.046   5.508   9.845 -0.2878 -0.8772  0.2317
   11CHL1   H1A  785   3.119   5.578   9.800 -3.0182  1.6869 -0.4472
   11CHL1   H1B  786   2.954   5.566   9.825 -0.1240  0.4975  2.9525
   11CHL1    C2  787   3.067   5.496   9.995  0.0209  0.1631 -0.0599
   11CHL1   H2A  788   3.058   5.593  10.048  2.5063  1.3703 -1.6628
   11CHL1   H2B  789   3.166   5.458  10.031 -0.0151  0.9735  0.9498
   11CHL1   C20  790   3.015   5.443   9.067  1.0084 -1.1020 -0.4245
   11CHL1   H20  791   3.124   5.423   9.081  0.7726 -2.2508 -0.1543
   11CHL1   C21  792   2.998   5.601   9.058  0.0359 -0.6831 -0.1399
   11CHL1  H21A  793   3.085   5.643   9.112 -0.8039 -1.1508  1.6856
   11CHL1  H21B  794   2.899   5.633   9.098 -0.2375 -1.5690 -0.0857
   11CHL1  H21C  795   3.007   5.635   8.953  2.1899  1.7382  0.7171
   11CHL1   C22  796   2.994   5.371   8.930  0.1406 -0.2114 -0.3067
   11CHL1  H22A  797   3.051   5.409   8.843 -0.5128  2.0394  0.1631
   11CHL1  H22B  798   3.035   5.268   8.937  1.2745  0.0657 -2.3934
   11CHL1   C23  799   2.850   5.362   8.882  0.0508 -0.1925 -0.0923
   11CHL1  H23A  800   2.793   5.371   8.977  1.7716 -1.9907  1.1762
   11CHL1  H23B  801   2.821   5.451   8.822  1.9507  0.6246  0.1346
   11CHL1   C24  802   2.826   5.230   8.816  0.3668  0.2071 -0.2318
   11CHL1  H24A  803   2.916   5.214   8.751  0.4790  0.3372 -0.1091
   11CHL1  H24B  804   2.843   5.148   8.888 -2.7596 -0.6075 -0.3109
   11CHL1   C25  805   2.698   5.212   8.737  0.0057  0.8238 -0.2103
   11CHL1   H25  806   2.697   5.278   8.648  1.3912  0.4079 -0.5712
   11CHL1   C26  807   2.685   5.074   8.676  0.4485  0.1106 -0.2657
   11CHL1  H26A  808   2.693   4.994   8.753  1.8859 -0.6189 -1.1369
   11CHL1  H26B  809   2.584   5.056   8.634  0.1512 -1.4183  0.9900
   11CHL1  H26C  810   2.762   5.052   8.600  1.1211  1.1632  0.0916
   11CHL1   C27  811   2.569   5.242   8.814  0.5862 -0.4729 -0.2673
   11CHL1  H27A  812   2.485   5.217   8.746 -0.6506 -1.6672  1.5960
   11CHL1  H27B  813   2.567   5.174   8.902  0.0283  1.1539  1.0244
   11CHL1  H27C  814   2.559   5.348   8.846 -0.8182 -1.6034  3.7010
   12CHL1    C3  815   5.532   1.956  10.414 -0.1296  0.4685  0.7672
   12CHL1    H3  816   5.457   1.883  10.375  1.3540 -1.4857  1.4177
   12CHL1    O3  817   5.504   1.957  10.553  0.2307  0.7021 -0.6856
   12CHL1   H3'  818   5.586   1.992  10.590 -0.4931 -0.5028  2.3123
   12CHL1    C4  819   5.670   1.898  10.389 -0.1449 -0.3508 -0.7369
   12CHL1   H4A  820   5.739   1.971  10.436 -1.9922  0.0804  1.4870
   12CHL1   H4B  821   5.676   1.800  10.441 -0.4120 -1.0825 -2.0291
   12CHL1    C5  822   5.694   1.885  10.238  0.1541 -0.4238 -0.0960
   12CHL1    C6  823   5.719   1.766  10.181 -0.0048 -0.4018  0.9125
   12CHL1    H6  824   5.733   1.676  10.242 -0.7285  0.7090  2.7962
   12CHL1    C7  825   5.744   1.745  10.033  0.1409 -0.5096 -0.1239
   12CHL1   H7A  826   5.835   1.681  10.026  1.1611  0.7258  1.1424
   12CHL1   H7B  827   5.659   1.685   9.994 -0.1960 -0.8048  1.0224
   12CHL1    C8  828   5.769   1.883   9.955  0.3051  0.5433  0.5799
   12CHL1    H8  829   5.874   1.917   9.972  0.8699 -0.7392 -0.1592
   12CHL1   C14  830   5.754   1.863   9.801 -0.3434  0.6663  0.3302
   12CHL1   H14  831   5.648   1.829   9.796  0.3021 -1.6705  1.1061
   12CHL1   C15  832   5.836   1.750   9.724  0.2694  0.1167  0.4124
   12CHL1  H15A  833   5.946   1.767   9.731  0.9535 -1.6577 -3.4989
   12CHL1  H15B  834   5.806   1.649   9.758  0.9890 -0.2480 -0.0017
   12CHL1   C16  835   5.802   1.776   9.580 -0.4284 -0.4174  0.2563
   12CHL1  H16A  836   5.894   1.774   9.516 -0.4058  0.1561  0.2626
   12CHL1  H16B  837   5.741   1.690   9.546 -0.8572  0.5059 -1.4172
   12CHL1   C17  838   5.742   1.923   9.568  0.0769  0.4686  0.6530
   12CHL1   H17  839   5.632   1.911   9.558  0.0589 -1.8990  2.7620
   12CHL1   C13  840   5.761   1.982   9.709 -0.0009 -0.4493  0.7911
   12CHL1   C18  841   5.909   2.037   9.721 -0.5094 -0.5037 -0.1068
   12CHL1  H18A  842   5.942   2.031   9.827  0.1747 -1.0539 -0.3500
   12CHL1  H18B  843   5.984   1.975   9.669 -0.1213  0.5747 -0.8594
   12CHL1  H18C  844   5.931   2.140   9.685 -0.3729 -0.9477 -1.3321
   12CHL1   C12  845   5.665   2.097   9.759 -0.0862  0.3237 -0.5386
   12CHL1  H12A  846   5.653   2.195   9.707  0.2889 -1.0541 -3.4185
   12CHL1  H12B  847   5.568   2.044   9.767  0.6758 -1.2034 -1.0150
   12CHL1   C11  848   5.698   2.120   9.911  0.1738  0.0296 -0.1362
   12CHL1  H11A  849   5.805   2.144   9.931 -0.0300 -0.1331  1.2236
   12CHL1  H11B  850   5.635   2.208   9.935 -3.6835 -1.3452 -3.8725
   12CHL1    C9  851   5.674   1.993  10.002  0.4030 -0.3577 -0.0121
   12CHL1    H9  852   5.571   1.958   9.980  0.1830 -0.4684  1.1417
   12CHL1   C10  853   5.672   2.016  10.155  0.2725  0.1688  0.6801
   12CHL1   C19  854   5.793   2.108  10.183 -0.1695  0.5111 -0.3137
   12CHL1  H19A  855   5.884   2.080  10.126 -0.1354 -1.3842  0.6098
   12CHL1  H19B  856   5.776   2.216  10.160  0.2361  0.1076 -2.7212
   12CHL1  H19C  857   5.826   2.105  10.289  0.6109 -1.1541 -0.5822
   12CHL1    C1  858   5.534   2.079  10.200  0.2161 -0.0262  0.6974
   12CHL1   H1A  859   5.524   2.179  10.152 -3.2742 -0.4263  0.4032
   12CHL1   H1B  860   5.451   2.014  10.166 -0.4967  1.1739  0.0746
   12CHL1    C2  861   5.521   2.094  10.350  0.3219  0.5150  0.4622
   12CHL1   H2A  862   5.422   2.142  10.369  1.3709  3.4963 -0.8302
   12CHL1   H2B  863   5.582   2.175  10.396  0.1594  0.4185  0.8431
   12CHL1   C20  864   5.793   2.003   9.446 -0.1190  0.8152  0.3048
   12CHL1   H20  865   5.904   2.010   9.452 -0.1941  1.0393  1.7630
   12CHL1   C21  866   5.740   2.148   9.450  0.2285  0.4011  0.0975
   12CHL1  H21A  867   5.779   2.198   9.359  0.8767 -1.7718 -0.8881
   12CHL1  H21B  868   5.762   2.206   9.542 -1.5320  1.0881  0.1125
   12CHL1  H21C  869   5.630   2.144   9.456  0.0758 -3.1252 -2.1012
   12CHL1   C22  870   5.752   1.928   9.316  0.1962 -0.2535  0.2771
   12CHL1  H22A  871   5.775   1.819   9.315  2.0484  0.0805  1.5410
   12CHL1  H22B  872   5.643   1.938   9.293 -0.1847 -1.5509  1.4122
   12CHL1   C23  873   5.826   1.982   9.189 -0.4284  0.4540 -0.5194
   12CHL1  H23A  874   5.808   2.091   9.176 -0.5998  0.4312 -0.4707
   12CHL1  H23B  875   5.932   1.953   9.206 -0.9230 -0.8838  0.4271
   12CHL1   C24  876   5.792   1.905   9.054 -0.5083  0.0152  0.0876
   12CHL1  H24A  877   5.810   1.795   9.058  1.7867  0.1657 -2.7486
   12CHL1  H24B  878   5.684   1.914   9.034 -0.7054 -1.8144  0.1405
   12CHL1   C25  879   5.880   1.959   8.943  0.2836  0.4541 -0.3095
   12CHL1   H25  880   5.980   1.980   8.987  1.3433 -1.1381 -1.8562
   12CHL1   C26  881   5.882   1.862   8.826  0.6526  0.5522 -0.2610
   12CHL1  H26A  882   5.780   1.818   8.817  1.1349 -0.4999 -0.7329
   12CHL1  H26B  883   5.924   1.909   8.735  1.3831 -0.9052 -0.7013
   12CHL1  H26C  884   5.956   1.782   8.848  1.0457  0.8555 -0.4827
   12CHL1   C27  885   5.827   2.096   8.899  0.1684 -0.3867 -1.1911
   12CHL1  H27A  886   5.730   2.080   8.848 -0.2371  1.2212 -0.9581
   12CHL1  H27B  887   5.794   2.160   8.983 -0.9963 -0.2269 -1.7548
   12CHL1  H27C  888   5.899   2.149   8.833 -0.8283  1.1719 -1.0756
   13CHL1    C3  889   4.930   4.883   9.840  0.7454  0.7899 -0.3572
   13CHL1    H3  890   5.009   4.833   9.780 -0.8865  0.2706 -2.1947
   13CHL1    O3  891   4.960   4.881   9.983  0.0363  0.1694  0.2550
   13CHL1   H3'  892   4.940   4.788   9.996  1.6637 -0.6275 -2.2101
   13CHL1    C4  893   4.935   5.030   9.799 -0.4640 -0.0637  0.3450
   13CHL1   H4A  894   4.857   5.087   9.854  0.0526 -0.4365  1.4915
   13CHL1   H4B  895   5.030   5.067   9.843 -0.5764  1.7792 -0.8613
   13CHL1    C5  896   4.920   5.031   9.647  0.4894 -1.2808  0.1775
   13CHL1    C6  897   5.016   5.086   9.567  0.4425 -0.7908 -0.3085
   13CHL1    H6  898   5.108   5.129   9.608  0.2717  0.3584 -1.0921
   13CHL1    C7  899   5.016   5.090   9.417 -0.2857  0.1555  0.5627
   13CHL1   H7A  900   5.057   5.182   9.370 -0.9100  0.0204 -0.2639
   13CHL1   H7B  901   5.075   5.006   9.375  1.8319  0.9974  1.6934
   13CHL1    C8  902   4.873   5.067   9.365  0.4828 -0.4630  0.2683
   13CHL1    H8  903   4.815   5.162   9.367 -0.2979 -0.8872 -0.7984
   13CHL1   C14  904   4.872   5.035   9.217  0.4823 -0.1708  0.1018
   13CHL1   H14  905   4.913   4.932   9.213 -1.5189 -0.9855 -2.2637
   13CHL1   C15  906   4.954   5.124   9.116  0.4403 -0.1799  0.7192
   13CHL1  H15A  907   4.934   5.233   9.125  0.5169 -0.0620 -0.4295
   13CHL1  H15B  908   5.061   5.100   9.133 -0.0676 -1.8193  1.8992
   13CHL1   C16  909   4.893   5.087   8.979 -0.0857  0.3783  0.0121
   13CHL1  H16A  910   4.872   5.180   8.922 -1.1877  0.5783  0.7191
   13CHL1  H16B  911   4.968   5.026   8.924 -2.9745 -5.9780  2.0996
   13CHL1   C17  912   4.770   5.007   9.009  0.3406 -0.6269  0.2392
   13CHL1   H17  913   4.805   4.902   9.015 -1.9393 -1.5656 -1.4818
   13CHL1   C13  914   4.729   5.027   9.158  0.6065  0.0109  0.2810
   13CHL1   C18  915   4.646   5.154   9.168  0.7929  0.5085  0.5155
   13CHL1  H18A  916   4.685   5.233   9.101  0.6323  0.4239  0.3238
   13CHL1  H18B  917   4.549   5.128   9.121  0.8590  0.3530  0.4656
   13CHL1  H18C  918   4.630   5.190   9.272  2.1264  1.0194  0.5636
   13CHL1   C12  919   4.664   4.912   9.227  0.2897 -0.2257  0.6032
   13CHL1  H12A  920   4.565   4.908   9.177  0.8701 -1.0738 -0.5217
   13CHL1  H12B  921   4.724   4.821   9.203  0.3914  0.0143 -0.0709
   13CHL1   C11  922   4.661   4.927   9.379 -0.8227 -0.7060  0.2762
   13CHL1  H11A  923   4.575   4.995   9.398 -2.4780 -2.0882 -1.7825
   13CHL1  H11B  924   4.622   4.831   9.421 -0.6907 -0.5895  0.6600
   13CHL1    C9  925   4.798   4.958   9.441 -0.4153 -0.9665 -0.3031
   13CHL1    H9  926   4.859   4.866   9.427  0.3517 -0.4457 -0.5246
   13CHL1   C10  927   4.791   4.972   9.593 -0.4088  0.3974 -0.0165
   13CHL1   C19  928   4.676   5.071   9.637 -0.7013  0.0591  0.5281
   13CHL1  H19A  929   4.670   5.074   9.748 -0.9775 -0.1729  0.5201
   13CHL1  H19B  930   4.694   5.172   9.593 -0.4092 -0.9001 -1.6865
   13CHL1  H19C  931   4.578   5.048   9.590 -0.5071  0.7081 -0.2276
   13CHL1    C1  932   4.758   4.841   9.660 -0.2686  0.4470  0.3663
   13CHL1   H1A  933   4.651   4.818   9.645  0.1590 -0.4323 -1.6545
   13CHL1   H1B  934   4.817   4.758   9.617  0.0193  0.3724  0.8939
   13CHL1    C2  935   4.791   4.824   9.813  0.2818  0.0820 -0.8626
   13CHL1   H2A  936   4.801   4.718   9.843 -0.0530 -0.6743 -3.1983
   13CHL1   H2B  937   4.716   4.885   9.868 -0.7283 -1.6317 -0.2781
   13CHL1   C20  938   4.664   5.015   8.892 -0.3439 -0.6477  0.0177
   13CHL1   H20  939   4.633   5.119   8.915  2.2401  0.2651 -0.1983
   13CHL1   C21  940   4.534   4.924   8.913  0.0111  0.5644 -1.2073
   13CHL1  H21A  941   4.456   4.945   8.989 -0.2422 -0.9697 -1.0057
   13CHL1  H21B  942   4.574   4.821   8.927  1.7013  1.1250 -1.5910
   13CHL1  H21C  943   4.475   4.917   8.819 -0.7713  0.4931 -0.7134
   13CHL1   C22  944   4.721   4.993   8.758  0.7216  0.0671  0.2641
   13CHL1  H22A  945   4.639   5.010   8.684 -0.9081 -0.7662  1.8012
   13CHL1  H22B  946   4.787   5.079   8.734 -2.1745  2.7712  1.3411
   13CHL1   C23  947   4.798   4.858   8.736  0.1206 -0.3355  0.2616
   13CHL1  H23A  948   4.892   4.884   8.683  0.1070 -0.8843 -0.0396
   13CHL1  H23B  949   4.821   4.815   8.836 -0.8602  0.5682  0.9086
   13CHL1   C24  950   4.718   4.749   8.665  0.2401  0.0012  0.0915
   13CHL1  H24A  951   4.612   4.742   8.700 -0.1187  0.5817 -0.8481
   13CHL1  H24B  952   4.712   4.773   8.556 -1.7192 -1.4265 -0.1873
   13CHL1   C25  953   4.780   4.606   8.671  0.2780 -0.5997  0.1008
   13CHL1   H25  954   4.781   4.577   8.778  0.8050  1.3397  0.6698
   13CHL1   C26  955   4.700   4.500   8.598 -0.4172  0.3733  0.1202
   13CHL1  H26A  956   4.704   4.522   8.489 -0.1712  0.4880  0.1543
   13CHL1  H26B  957   4.749   4.401   8.611  0.8219  0.9166 -0.3139
   13CHL1  H26C  958   4.593   4.491   8.627 -0.0573 -0.7747  1.1970
   13CHL1   C27  959   4.926   4.612   8.618 -0.1076  0.0323  0.3351
   13CHL1  H27A  960   4.929   4.631   8.508 -0.5386 -1.3861  0.0608
   13CHL1  H27B  961   4.994   4.684   8.667  2.2064 -1.7009 -0.1753
   13CHL1  H27C  962   4.966   4.509   8.619 -0.5919 -0.1702 -0.2394
   14CHL1    C3  963   2.617   0.949  10.385 -0.0402 -0.2224  1.0619
   14CHL1    H3  964   2.549   0.891  10.319  0.2297 -0.3773  0.9187
   14CHL1    O3  965   2.565   0.924  10.513  0.1604 -0.0006  0.4974
   14CHL1   H3'  966   2.614   0.982  10.571 -0.1512  0.4266  0.3424
   14CHL1    C4  967   2.762   0.913  10.371  0.1100 -0.1000  0.5216
   14CHL1   H4A  968   2.824   0.968  10.445 -0.0963 -0.4428  0.9461
   14CHL1   H4B  969   2.772   0.807  10.401  2.1133  0.0961  0.7211
   14CHL1    C5  970   2.804   0.932  10.225 -0.6376  0.4616 -0.1412
   14CHL1    C6  971   2.852   0.831  10.141  0.2825 -0.4036 -0.4209
   14CHL1    H6  972   2.848   0.728  10.177  1.9729 -0.5176 -0.4607
   14CHL1    C7  973   2.918   0.845  10.013 -0.5653 -0.3365 -0.0323
   14CHL1   H7A  974   3.018   0.797  10.008 -0.6242 -0.4775  0.1171
   14CHL1   H7B  975   2.838   0.813   9.942 -0.0719  0.6795 -1.0704
   14CHL1    C8  976   2.947   0.993   9.972  0.1728  0.3219  0.2092
   14CHL1    H8  977   3.047   1.014  10.016 -0.0195 -1.1415  1.4635
   14CHL1   C14  978   2.957   1.008   9.815  0.8266 -0.4843 -0.5199
   14CHL1   H14  979   2.853   0.993   9.777 -0.2245  1.6422  1.2708
   14CHL1   C15  980   3.041   0.903   9.739 -0.0598  0.1545 -0.0487
   14CHL1  H15A  981   3.138   0.883   9.788 -0.2487  0.6554  0.5405
   14CHL1  H15B  982   2.985   0.808   9.728  1.7806 -0.7639 -2.5128
   14CHL1   C16  983   3.076   0.973   9.603 -0.1374  0.5176 -0.1366
   14CHL1  H16A  984   3.183   0.989   9.576 -0.6670 -1.3837 -3.9763
   14CHL1  H16B  985   3.023   0.922   9.520 -0.3925 -0.3142  0.5269
   14CHL1   C17  986   3.018   1.117   9.617  0.8938 -0.4976  0.4309
   14CHL1   H17  987   2.909   1.116   9.595  1.1631  1.2513 -1.2318
   14CHL1   C13  988   3.004   1.143   9.770 -0.5042 -0.0291  0.6650
   14CHL1   C18  989   3.140   1.190   9.828  0.0076 -0.2695  0.0977
   14CHL1  H18A  990   3.148   1.297   9.799  1.4377 -0.6705 -1.1333
   14CHL1  H18B  991   3.149   1.187   9.938  0.1839 -2.2086  0.0632
   14CHL1  H18C  992   3.225   1.134   9.785 -0.8383 -1.5445  0.0346
   14CHL1   C12  993   2.898   1.242   9.811 -0.5428  0.3897 -0.6121
   14CHL1  H12A  994   2.926   1.348   9.791 -1.0788  0.7689  0.5531
   14CHL1  H12B  995   2.799   1.225   9.763 -0.0223  1.2099 -2.0642
   14CHL1   C11  996   2.874   1.233   9.966  0.0107 -0.0696 -0.2651
   14CHL1  H11A  997   2.960   1.270  10.025 -0.2937 -2.2474  1.7239
   14CHL1  H11B  998   2.790   1.302   9.991  0.8143  1.3649 -1.3712
   14CHL1    C9  999   2.840   1.093  10.019 -0.5199 -0.2967  0.4345
   14CHL1    H9 1000   2.747   1.062   9.968 -1.1483 -0.4168  1.6060
   14CHL1   C10 1001   2.799   1.084  10.173  0.2782  0.1127 -0.3391
   14CHL1   C19 1002   2.909   1.162  10.254 -0.4042 -0.0730 -0.0049
   14CHL1  H19A 1003   3.014   1.135  10.229 -0.2669 -0.4926  0.9757
   14CHL1  H19B 1004   2.909   1.268  10.223 -0.3514 -0.3400 -0.9601
   14CHL1  H19C 1005   2.892   1.164  10.363 -0.2220 -2.2250  0.1204
   14CHL1    C1 1006   2.648   1.127  10.200 -0.4475  0.7650  0.4432
   14CHL1   H1A 1007   2.640   1.237  10.188 -0.4106  0.7726  0.4898
   14CHL1   H1B 1008   2.575   1.076  10.132  0.7023  1.6101 -1.5081
   14CHL1    C2 1009   2.600   1.099  10.345 -0.0332  0.1746  0.9492
   14CHL1   H2A 1010   2.493   1.123  10.364 -0.4793 -1.7546  1.0155
   14CHL1   H2B 1011   2.675   1.160  10.399  1.8804  2.4830 -3.7415
   14CHL1   C20 1012   3.091   1.220   9.526  0.3305  0.0441  0.2311
   14CHL1   H20 1013   3.189   1.240   9.574 -0.4057 -0.7308  2.1559
   14CHL1   C21 1014   3.018   1.359   9.519 -0.1890 -0.3420  0.8052
   14CHL1  H21A 1015   2.910   1.346   9.497  0.3567 -1.4920 -1.4790
   14CHL1  H21B 1016   3.057   1.424   9.438  0.8040 -0.9716  0.7629
   14CHL1  H21C 1017   3.027   1.413   9.616  0.5422  0.2329  0.4176
   14CHL1   C22 1018   3.102   1.165   9.380  0.5461  0.2303 -0.2490
   14CHL1  H22A 1019   3.123   1.258   9.323 -0.8934  0.9335  0.3090
   14CHL1  H22B 1020   3.183   1.089   9.373 -0.0837 -0.5427  0.6559
   14CHL1   C23 1021   2.976   1.115   9.318 -0.5478  0.0622  0.4671
   14CHL1  H23A 1022   2.922   1.034   9.373 -1.2822 -0.7319 -1.3315
   14CHL1  H23B 1023   2.910   1.203   9.301  0.6768  1.2755  1.7625
   14CHL1   C24 1024   2.996   1.054   9.173  0.1175  1.2507 -0.5009
   14CHL1  H24A 1025   2.999   1.143   9.107 -0.2981  0.5156 -1.5363
   14CHL1  H24B 1026   3.078   0.980   9.166 -1.4759 -0.7061  0.1641
   14CHL1   C25 1027   2.876   0.966   9.115 -0.2239  0.2443  0.0611
   14CHL1   H25 1028   2.886   0.867   9.165  1.0076  0.4766  0.3133
   14CHL1   C26 1029   2.737   1.019   9.156 -0.3509  0.6725 -0.4984
   14CHL1  H26A 1030   2.664   0.952   9.106 -0.8821 -1.6895  3.0182
   14CHL1  H26B 1031   2.726   1.020   9.267  0.4058 -1.7503 -0.3385
   14CHL1  H26C 1032   2.726   1.125   9.125 -0.4061  1.4324  1.8825
   14CHL1   C27 1033   2.885   0.963   8.960 -0.1818  0.9385 -0.6868
   14CHL1  H27A 1034   2.805   0.894   8.925 -0.9707  1.0763  0.7608
   14CHL1  H27B 1035   2.876   1.063   8.911 -4.1710  0.5500 -1.0957
   14CHL1  H27C 1036   2.982   0.923   8.925 -1.1194 -2.7371  0.4701
   15CHL1    C3 1037   4.326   6.042  10.222 -0.2164 -0.4221  0.5088
   15CHL1    H3 1038   4.282   6.133  10.177 -0.6720 -1.5943 -1.5649
   15CHL1    O3 1039   4.320   6.035  10.366 -0.5860 -0.2542  0.2473
   15CHL1   H3' 1040   4.361   6.120  10.383 -2.4611  0.9208 -0.6539
   15CHL1    C4 1041   4.259   5.917  10.162 -0.0591 -0.1745  0.7480
   15CHL1   H4A 1042   4.308   5.826  10.204  2.0353  0.4140 -0.3212
   15CHL1   H4B 1043   4.153   5.935  10.191 -0.2659  0.1840 -0.2099
   15CHL1    C5 1044   4.257   5.919  10.006  0.0824  0.0679 -0.6904
   15CHL1    C6 1045   4.143   5.911   9.940 -0.6851  0.2007  0.9284
   15CHL1    H6 1046   4.055   5.893  10.003 -0.2857 -0.8737  1.2015
   15CHL1    C7 1047   4.122   5.927   9.793  0.1743 -0.1681 -0.9933
   15CHL1   H7A 1048   4.046   5.850   9.771 -3.2470  2.0426  1.9027
   15CHL1   H7B 1049   4.087   6.028   9.763  1.8252  0.5237 -0.7190
   15CHL1    C8 1050   4.256   5.907   9.720  0.0320 -0.3729 -0.5672
   15CHL1    H8 1051   4.271   5.797   9.722 -0.7650 -0.4808 -0.3710
   15CHL1   C14 1052   4.243   5.952   9.577  0.0214  0.1989 -0.4420
   15CHL1   H14 1053   4.236   6.062   9.589  0.6886  0.1446  0.5682
   15CHL1   C15 1054   4.121   5.914   9.499  0.3002 -0.3802  0.3839
   15CHL1  H15A 1055   4.106   5.804   9.502  1.7736 -0.7139 -1.7539
   15CHL1  H15B 1056   4.028   5.957   9.541  0.1754  0.2304 -0.4756
   15CHL1   C16 1057   4.157   5.956   9.353 -0.3082 -0.6195 -0.0292
   15CHL1  H16A 1058   4.147   5.861   9.296  0.7924  0.1995 -1.7038
   15CHL1  H16B 1059   4.090   6.035   9.314  0.1158 -0.3415 -0.2090
   15CHL1   C17 1060   4.311   5.985   9.356  0.0878 -0.6487 -0.5858
   15CHL1   H17 1061   4.322   6.096   9.350 -2.5551 -0.0605  2.3804
   15CHL1   C13 1062   4.368   5.924   9.491 -1.0452 -0.1253 -0.2332
   15CHL1   C18 1063   4.398   5.770   9.475 -0.3332 -0.4344 -0.4236
   15CHL1  H18A 1064   4.490   5.749   9.415  0.9400  1.3187  0.8071
   15CHL1  H18B 1065   4.427   5.729   9.574  1.3663  3.1058  0.7184
   15CHL1  H18C 1066   4.310   5.720   9.431  0.2930 -2.7332  0.7729
   15CHL1   C12 1067   4.478   6.008   9.556 -0.7280  0.3592 -0.0021
   15CHL1  H12A 1068   4.573   5.977   9.506  0.5049  0.3916  2.1749
   15CHL1  H12B 1069   4.466   6.117   9.535  1.6303  0.6658 -0.0721
   15CHL1   C11 1070   4.504   5.983   9.707 -0.0388  0.0516 -0.4511
   15CHL1  H11A 1071   4.551   5.883   9.720 -1.7695 -0.8917 -1.1816
   15CHL1  H11B 1072   4.585   6.050   9.745  0.4144 -0.6574 -0.1519
   15CHL1    C9 1073   4.371   5.981   9.790  0.3378  0.1259  0.6102
   15CHL1    H9 1074   4.336   6.086   9.797 -0.1966 -0.0846  1.2027
   15CHL1   C10 1075   4.395   5.947   9.936 -0.5016 -0.1090  0.1534
   15CHL1   C19 1076   4.476   5.815   9.948  0.2392  0.2561 -0.6297
   15CHL1  H19A 1077   4.421   5.737   9.892 -1.3275  0.2384  0.8551
   15CHL1  H19B 1078   4.580   5.822   9.910  0.9709 -1.2150  0.9673
   15CHL1  H19C 1079   4.482   5.790  10.056  0.1004  2.3283 -0.1058
   15CHL1    C1 1080   4.456   6.069  10.014 -0.1021 -0.4900  0.0849
   15CHL1   H1A 1081   4.556   6.097   9.974 -1.3060 -0.5283 -3.2151
   15CHL1   H1B 1082   4.395   6.157   9.985  1.0175 -0.2513 -1.7318
   15CHL1    C2 1083   4.472   6.044  10.164  1.2906  0.1392  0.1422
   15CHL1   H2A 1084   4.522   6.130  10.214 -2.9674  3.0741 -0.0782
   15CHL1   H2B 1085   4.517   5.948  10.199  0.2336 -0.4172  0.0021
   15CHL1   C20 1086   4.378   5.940   9.230  0.3865 -0.8271 -0.2450
   15CHL1   H20 1087   4.361   5.831   9.220  1.6910 -0.9779 -1.1288
   15CHL1   C21 1088   4.532   5.968   9.225 -0.0687 -0.7357 -0.1384
   15CHL1  H21A 1089   4.576   5.903   9.147  1.0478  0.0561 -0.1835
   15CHL1  H21B 1090   4.593   5.947   9.315  0.4611  1.9515  0.2206
   15CHL1  H21C 1091   4.555   6.074   9.199  0.3426 -0.4839  1.1662
   15CHL1   C22 1092   4.318   6.015   9.108  0.1237  0.1276 -0.0504
   15CHL1  H22A 1093   4.212   5.988   9.086  0.8609 -0.3258 -3.5803
   15CHL1  H22B 1094   4.331   6.124   9.130  1.1686  0.0327 -0.1585
   15CHL1   C23 1095   4.379   5.990   8.971  0.1814  0.0619  0.1125
   15CHL1  H23A 1096   4.346   6.074   8.905  2.5740  1.1918  0.2430
   15CHL1  H23B 1097   4.490   5.997   8.969  0.1574  0.4042 -1.8026
   15CHL1   C24 1098   4.334   5.858   8.914 -0.2197  0.1308 -0.0293
   15CHL1  H24A 1099   4.374   5.782   8.984  0.6787  0.2069 -0.4488
   15CHL1  H24B 1100   4.223   5.857   8.920 -0.4501  4.5750  0.1265
   15CHL1   C25 1101   4.365   5.841   8.767 -0.5299 -0.3639  0.2845
   15CHL1   H25 1102   4.357   5.942   8.721 -0.1881 -0.7119 -0.5505
   15CHL1   C26 1103   4.511   5.804   8.741 -0.1561  0.5801  0.2513
   15CHL1  H26A 1104   4.574   5.888   8.776 -0.1881  1.6311 -2.0284
   15CHL1  H26B 1105   4.537   5.707   8.790 -2.3115  0.6202  1.6264
   15CHL1  H26C 1106   4.537   5.805   8.633  0.6934  0.9888  0.4574
   15CHL1   C27 1107   4.269   5.751   8.688  0.1106  0.1544  0.2427
   15CHL1  H27A 1108   4.256   5.664   8.756 -1.0442  1.2210  1.4570
   15CHL1  H27B 1109   4.166   5.792   8.682  0.0907 -0.0786 -1.1981
   15CHL1  H27C 1110   4.300   5.723   8.586 -0.9857 -1.4240  0.3074
   16CHL1    C3 1111   4.091   6.626  10.232  0.4653  0.6592 -0.1710
   16CHL1    H3 1112   4.028   6.712  10.204 -2.2519 -0.8363  0.9206
   16CHL1    O3 1113   4.122   6.641  10.369 -0.5632 -0.2115 -0.5041
   16CHL1   H3' 1114   4.215   6.666  10.367 -0.3662 -0.8622 -0.0699
   16CHL1    C4 1115   4.018   6.498  10.201 -0.7359  0.4824 -1.0353
   16CHL1   H4A 1116   4.070   6.405  10.232  0.3740  1.3296 -0.2913
   16CHL1   H4B 1117   3.919   6.491  10.250 -1.4320 -0.7105 -2.4965
   16CHL1    C5 1118   3.995   6.493  10.052  0.1383 -0.1220 -0.6528
   16CHL1    C6 1119   3.868   6.498  10.008 -0.2674  0.2157  0.1021
   16CHL1    H6 1120   3.790   6.490  10.085  0.5721 -1.1053  0.8700
   16CHL1    C7 1121   3.827   6.500   9.858 -0.2015  0.1320  0.2583
   16CHL1   H7A 1122   3.739   6.433   9.839  0.8651 -1.2768  0.0934
   16CHL1   H7B 1123   3.802   6.601   9.819  1.8421 -0.3811 -2.6595
   16CHL1    C8 1124   3.944   6.442   9.772  0.4737 -0.6162 -0.6267
   16CHL1    H8 1125   3.951   6.333   9.788 -1.6776 -0.5990  0.9643
   16CHL1   C14 1126   3.922   6.463   9.625 -0.0892 -0.9429  0.7569
   16CHL1   H14 1127   3.902   6.572   9.610 -0.7985 -1.1346  0.2304
   16CHL1   C15 1128   3.799   6.389   9.561  0.1863  0.1526 -0.0720
   16CHL1  H15A 1129   3.801   6.279   9.570  1.2490  0.2560  1.2609
   16CHL1  H15B 1130   3.700   6.417   9.602  0.4347 -2.2795  2.4211
   16CHL1   C16 1131   3.821   6.419   9.409 -0.1276  0.0994 -0.4142
   16CHL1  H16A 1132   3.797   6.324   9.355 -0.8558  0.1061 -0.1084
   16CHL1  H16B 1133   3.745   6.494   9.377  0.1965  2.0537  2.9880
   16CHL1   C17 1134   3.970   6.455   9.393  0.3897 -0.8323  0.0497
   16CHL1   H17 1135   3.970   6.566   9.387 -0.2876 -0.8885 -1.5346
   16CHL1   C13 1136   4.035   6.425   9.529 -0.4186  0.1951 -0.2615
   16CHL1   C18 1137   4.072   6.276   9.533  0.1465 -0.7547 -0.1025
   16CHL1  H18A 1138   4.063   6.238   9.637 -0.6040  1.7272  0.8286
   16CHL1  H18B 1139   3.993   6.220   9.479 -0.7778  0.9351 -0.5760
   16CHL1  H18C 1140   4.169   6.246   9.488  0.9409 -0.7612  1.5532
   16CHL1   C12 1141   4.154   6.515   9.563 -0.7674 -0.1085 -0.0119
   16CHL1  H12A 1142   4.243   6.499   9.500  0.1243  3.3165  0.1797
   16CHL1  H12B 1143   4.137   6.623   9.542  3.1102  0.6504  0.0087
   16CHL1   C11 1144   4.190   6.487   9.708 -0.3482 -0.2061  0.3651
   16CHL1  H11A 1145   4.240   6.388   9.712  1.5072  0.7033  0.8449
   16CHL1  H11B 1146   4.263   6.563   9.744 -1.6876  2.1799 -1.5817
   16CHL1    C9 1147   4.072   6.517   9.809 -0.5035  0.2217  0.1990
   16CHL1    H9 1148   4.041   6.623   9.793 -0.7186  0.3650  1.4723
   16CHL1   C10 1149   4.115   6.502   9.959 -0.4237  0.1377 -0.6648
   16CHL1   C19 1150   4.204   6.375   9.970 -0.2359 -0.4596 -0.2087
   16CHL1  H19A 1151   4.304   6.401   9.928 -0.4120  1.1762  0.3129
   16CHL1  H19B 1152   4.210   6.342  10.076 -1.6656  1.9453  0.6818
   16CHL1  H19C 1153   4.158   6.292   9.912  0.7752 -0.8312 -0.4963
   16CHL1    C1 1154   4.190   6.633  10.003  1.0628 -0.2602 -0.3363
   16CHL1   H1A 1155   4.285   6.649   9.948  0.4283  0.7192 -1.1770
   16CHL1   H1B 1156   4.126   6.722   9.987 -1.2192 -1.4042  1.7573
   16CHL1    C2 1157   4.221   6.629  10.151  0.6431  0.8355 -0.3079
   16CHL1   H2A 1158   4.268   6.722  10.189  0.5759 -0.6662  4.0278
   16CHL1   H2B 1159   4.293   6.547  10.171 -0.7910 -0.6630 -1.0413
   16CHL1   C20 1160   4.041   6.410   9.265 -1.1462  0.1486 -0.3255
   16CHL1   H20 1161   4.053   6.300   9.260  0.6201  0.3550 -1.3050
   16CHL1   C21 1162   4.172   6.490   9.245 -0.0243  0.1033 -0.1650
   16CHL1  H21A 1163   4.156   6.596   9.272  2.5200  0.0423  1.9369
   16CHL1  H21B 1164   4.228   6.492   9.149  0.9952 -1.9252  0.3206
   16CHL1  H21C 1165   4.249   6.454   9.317 -0.6675  0.0827  0.5149
   16CHL1   C22 1166   3.958   6.441   9.144  0.5129 -0.8941  0.2425
   16CHL1  H22A 1167   3.858   6.394   9.161  0.9771 -1.3026  1.9988
   16CHL1  H22B 1168   3.936   6.547   9.121  0.1392 -0.9717  0.2264
   16CHL1   C23 1169   4.007   6.374   9.014 -0.0142  0.2585  0.3230
   16CHL1  H23A 1170   4.109   6.410   8.989  0.7217 -1.2279  1.0306
   16CHL1  H23B 1171   4.018   6.268   9.045  0.3315  0.1290 -0.2364
   16CHL1   C24 1172   3.916   6.401   8.889 -0.3318  0.0086  0.3646
   16CHL1  H24A 1173   3.815   6.356   8.888 -0.0360 -0.7163 -1.4229
   16CHL1  H24B 1174   3.910   6.512   8.878  1.2393  0.0312 -0.7661
   16CHL1   C25 1175   3.980   6.330   8.769 -0.2738 -0.0055  0.4229
   16CHL1   H25 1176   3.996   6.222   8.790  1.4617  0.2862  0.7122
   16CHL1   C26 1177   3.873   6.318   8.654 -0.3110  0.2017  0.5964
   16CHL1  H26A 1178   3.782   6.271   8.696  0.0247 -0.1793  0.9020
   16CHL1  H26B 1179   3.846   6.421   8.620 -1.3019  0.3071  1.6443
   16CHL1  H26C 1180   3.898   6.261   8.562 -0.7641  0.8174  0.0829
   16CHL1   C27 1181   4.098   6.403   8.711 -0.4095  0.5613  0.6265
   16CHL1  H27A 1182   4.180   6.417   8.785 -1.1814 -1.3680  1.9250
   16CHL1  H27B 1183   4.140   6.342   8.628 -0.4620  1.5213 -0.1121
   16CHL1  H27C 1184   4.069   6.502   8.670 -0.6285 -0.7973 -2.7953
   17CHL1    C3 1185   1.695   3.757  10.438 -0.3682  0.4104 -0.1663
   17CHL1    H3 1186   1.654   3.656  10.464 -0.0485  0.8268  2.0614
   17CHL1    O3 1187   1.710   3.835  10.550 -0.0262 -0.3619 -0.8900
   17CHL1   H3' 1188   1.631   3.888  10.539  0.2412 -0.2882 -2.7202
   17CHL1    C4 1189   1.837   3.739  10.371 -0.7049  0.1222 -0.2940
   17CHL1   H4A 1190   1.892   3.832  10.342 -0.8618 -0.5934 -3.2094
   17CHL1   H4B 1191   1.886   3.681  10.451 -2.0378 -3.4925 -1.8786
   17CHL1    C5 1192   1.816   3.654  10.247 -0.4449 -0.9560 -0.0972
   17CHL1    C6 1193   1.862   3.529  10.232  0.7434  0.0767 -0.3082
   17CHL1    H6 1194   1.922   3.477  10.308  0.6936 -0.4463 -0.6161
   17CHL1    C7 1195   1.832   3.446  10.115 -0.3779 -0.8043 -0.4684
   17CHL1   H7A 1196   1.913   3.375  10.091  0.0829 -0.1650 -0.8380
   17CHL1   H7B 1197   1.744   3.389  10.151 -0.3406 -1.3701 -1.2512
   17CHL1    C8 1198   1.795   3.535   9.993 -0.6626 -0.2313 -0.4093
   17CHL1    H8 1199   1.888   3.590   9.967  0.7302 -0.8547  2.7360
   17CHL1   C14 1200   1.751   3.452   9.882  0.5818  0.6958 -0.4337
   17CHL1   H14 1201   1.655   3.407   9.915  1.3564 -1.5464 -1.0471
   17CHL1   C15 1202   1.835   3.334   9.848 -0.2006 -0.1830  0.4063
   17CHL1  H15A 1203   1.940   3.368   9.858 -0.4024 -0.0537  2.6928
   17CHL1  H15B 1204   1.819   3.241   9.906 -0.8161 -0.5289 -0.3003
   17CHL1   C16 1205   1.790   3.301   9.708 -0.0325  0.3590  0.1244
   17CHL1  H16A 1206   1.880   3.312   9.645  0.2365 -1.4726  0.1400
   17CHL1  H16B 1207   1.769   3.192   9.700  0.8382 -0.1314  3.1735
   17CHL1   C17 1208   1.677   3.403   9.669 -0.4610  0.2230  0.1672
   17CHL1   H17 1209   1.580   3.364   9.709  0.4979 -0.1401  2.2614
   17CHL1   C13 1210   1.712   3.518   9.754 -0.2234  0.4450 -0.1464
   17CHL1   C18 1211   1.833   3.593   9.697 -0.9261  0.8875  0.1238
   17CHL1  H18A 1212   1.859   3.679   9.762  0.0158  0.1086  0.8164
   17CHL1  H18B 1213   1.928   3.543   9.667 -0.9058  0.9980  0.0040
   17CHL1  H18C 1214   1.796   3.643   9.606  0.1901  1.1044 -0.2228
   17CHL1   C12 1215   1.596   3.609   9.782 -0.6194 -0.4982  1.1358
   17CHL1  H12A 1216   1.567   3.678   9.700  2.4278 -0.6088 -0.1975
   17CHL1  H12B 1217   1.506   3.548   9.800 -0.6132 -0.9083 -0.1162
   17CHL1   C11 1218   1.624   3.702   9.905 -0.6535  0.1680  0.7967
   17CHL1  H11A 1219   1.702   3.774   9.871  1.7352 -2.0648  1.1962
   17CHL1  H11B 1220   1.531   3.755   9.932 -1.1967  1.2173 -2.6768
   17CHL1    C9 1221   1.686   3.637  10.028 -0.5417  0.6210  0.5726
   17CHL1    H9 1222   1.612   3.568  10.074 -2.8114  1.6041 -1.3931
   17CHL1   C10 1223   1.722   3.733  10.144  0.1127 -0.4076 -0.1147
   17CHL1   C19 1224   1.789   3.860  10.085  0.4622  0.9201 -0.5868
   17CHL1  H19A 1225   1.725   3.925  10.022  1.1019 -0.3876 -2.6629
   17CHL1  H19B 1226   1.818   3.919  10.175 -2.7440 -0.4010  1.5105
   17CHL1  H19C 1227   1.871   3.825  10.019  1.1129 -1.8208  1.4847
   17CHL1    C1 1228   1.589   3.754  10.215  0.4616 -0.4603  0.4393
   17CHL1   H1A 1229   1.509   3.799  10.152  0.0353 -1.0957  0.5188
   17CHL1   H1B 1230   1.550   3.653  10.239 -0.3964 -0.4252 -0.7216
   17CHL1    C2 1231   1.601   3.825  10.349 -0.1479  0.6051  0.4110
   17CHL1   H2A 1232   1.507   3.831  10.408  1.5554  1.4851  3.2553
   17CHL1   H2B 1233   1.652   3.923  10.336  2.3864 -0.8125 -1.1386
   17CHL1   C20 1234   1.682   3.421   9.515  0.1467 -0.1481 -0.2023
   17CHL1   H20 1235   1.781   3.463   9.487 -0.2070  0.9400  0.1181
   17CHL1   C21 1236   1.568   3.507   9.467 -0.1523  0.0886  0.0875
   17CHL1  H21A 1237   1.587   3.560   9.372  0.7762 -1.4948 -0.6539
   17CHL1  H21B 1238   1.542   3.589   9.538 -0.6085 -1.4856  1.8435
   17CHL1  H21C 1239   1.475   3.446   9.466  0.4785 -0.9170  0.6618
   17CHL1   C22 1240   1.669   3.289   9.443  0.0178  0.7189 -0.7676
   17CHL1  H22A 1241   1.720   3.205   9.494 -1.0948 -0.2243 -1.1810
   17CHL1  H22B 1242   1.562   3.264   9.434  0.2595 -1.7315  1.8763
   17CHL1   C23 1243   1.718   3.284   9.295  0.5928  0.4948  0.1758
   17CHL1  H23A 1244   1.660   3.355   9.233  2.8265  2.4436  0.1590
   17CHL1  H23B 1245   1.822   3.321   9.282  0.4881  0.9461  0.5933
   17CHL1   C24 1246   1.710   3.141   9.235  0.4263  0.0121  0.3952
   17CHL1  H24A 1247   1.761   3.062   9.295  2.8737 -0.6808 -2.3456
   17CHL1  H24B 1248   1.603   3.110   9.228  0.6531 -1.3769  2.0704
   17CHL1   C25 1249   1.771   3.122   9.097  0.6152  0.3077  0.3770
   17CHL1   H25 1250   1.873   3.165   9.106  0.2272  0.8765  2.9975
   17CHL1   C26 1251   1.777   2.966   9.062 -0.7017 -0.0313  0.7218
   17CHL1  H26A 1252   1.832   2.904   9.136 -0.3951 -1.0905 -0.3601
   17CHL1  H26B 1253   1.675   2.925   9.050 -0.4362 -0.2595 -1.2086
   17CHL1  H26C 1254   1.828   2.955   8.964  1.3192  0.2152  1.6966
   17CHL1   C27 1255   1.675   3.185   8.993 -0.9802  0.5947  0.9169
   17CHL1  H27A 1256   1.588   3.117   8.991  0.7233 -1.7071  0.8060
   17CHL1  H27B 1257   1.651   3.289   9.024 -1.2109  1.3034 -1.4485
   17CHL1  H27C 1258   1.722   3.177   8.892 -4.6911 -1.9652 -0.8215
   18CHL1    C3 1259   0.142   3.937  10.195  0.6150  0.4605  0.5163
   18CHL1    H3 1260   0.037   3.917  10.164  0.3662 -3.0388  3.0401
   18CHL1    O3 1261   0.139   3.923  10.335  0.6239 -0.5804 -0.4960
   18CHL1   H3' 1262   0.223   3.960  10.362 -0.8730  2.2263  0.7699
   18CHL1    C4 1263   0.243   3.834  10.142  0.5370 -0.5329 -0.7002
   18CHL1   H4A 1264   0.333   3.862  10.201 -1.4863  0.6659  1.9964
   18CHL1   H4B 1265   0.207   3.736  10.180  0.5584 -0.9614 -1.7591
   18CHL1    C5 1266   0.261   3.846   9.993  0.8092  0.2895 -0.1301
   18CHL1    C6 1267   0.253   3.735   9.917  0.9715 -0.6955  0.2432
   18CHL1    H6 1268   0.235   3.640   9.969  0.1938 -1.1622 -0.8643
   18CHL1    C7 1269   0.272   3.736   9.773  0.1214  0.6654  0.9048
   18CHL1   H7A 1270   0.343   3.657   9.741  0.9428  2.0464 -0.7947
   18CHL1   H7B 1271   0.180   3.711   9.716  1.2760 -1.4913 -0.1396
   18CHL1    C8 1272   0.329   3.862   9.711  0.4226 -0.3101  0.6184
   18CHL1    H8 1273   0.439   3.854   9.725  0.8617  2.3561 -0.8089
   18CHL1   C14 1274   0.296   3.891   9.565  0.4015  0.1938  0.5031
   18CHL1   H14 1275   0.190   3.923   9.567 -0.2034 -1.5358 -0.8671
   18CHL1   C15 1276   0.324   3.776   9.471 -0.4450  0.3453  0.1505
   18CHL1  H15A 1277   0.424   3.736   9.500 -0.8516 -0.6879  0.1873
   18CHL1  H15B 1278   0.248   3.696   9.484 -0.5628  0.1208 -1.6545
   18CHL1   C16 1279   0.335   3.834   9.332  0.3751 -0.4734 -0.1493
   18CHL1  H16A 1280   0.431   3.805   9.285  1.4707 -1.3654  2.4510
   18CHL1  H16B 1281   0.257   3.797   9.262 -0.9430  1.1928  0.3720
   18CHL1   C17 1282   0.330   3.986   9.353  0.1805  0.1877  0.0920
   18CHL1   H17 1283   0.225   4.019   9.342  0.5635  0.9658 -1.5329
   18CHL1   C13 1284   0.366   4.012   9.501 -0.5055  0.7567 -0.2638
   18CHL1   C18 1285   0.519   4.003   9.527  0.0702  0.2971 -0.6458
   18CHL1  H18A 1286   0.570   4.079   9.464  0.3747 -0.5789 -1.4667
   18CHL1  H18B 1287   0.545   4.019   9.634  0.5920 -1.0337 -0.5600
   18CHL1  H18C 1288   0.561   3.906   9.494 -0.9508 -0.7630  0.9801
   18CHL1   C12 1289   0.314   4.133   9.567 -0.4426 -0.0337  0.2591
   18CHL1  H12A 1290   0.383   4.216   9.541  0.2339 -1.1151 -1.5528
   18CHL1  H12B 1291   0.212   4.156   9.527 -0.0642 -1.3786 -1.6068
   18CHL1   C11 1292   0.310   4.127   9.726 -0.1299  0.2587  0.7188
   18CHL1  H11A 1293   0.406   4.165   9.766 -0.8885  0.7622  2.1332
   18CHL1  H11B 1294   0.237   4.210   9.740 -0.8236 -0.0371 -0.9272
   18CHL1    C9 1295   0.268   3.987   9.783  0.3990  0.3075  0.4881
   18CHL1    H9 1296   0.160   3.965   9.773  0.3319  0.5369  0.7149
   18CHL1   C10 1297   0.285   3.983   9.934  0.4548  0.7529  0.0581
   18CHL1   C19 1298   0.427   4.021   9.983 -0.7200  0.3059  0.3823
   18CHL1  H19A 1299   0.430   4.023  10.094 -2.7929  0.1468  0.4851
   18CHL1  H19B 1300   0.501   3.949   9.944 -0.1746  0.6066  0.8426
   18CHL1  H19C 1301   0.453   4.124   9.951 -1.2408  0.1446 -0.6078
   18CHL1    C1 1302   0.180   4.085  10.000  0.0007 -0.1522 -0.2416
   18CHL1   H1A 1303   0.218   4.184   9.968  1.0087 -0.3796  0.2142
   18CHL1   H1B 1304   0.078   4.067   9.958 -0.2336  0.6209 -0.0122
   18CHL1    C2 1305   0.181   4.079  10.152  0.7506 -0.3289 -0.6980
   18CHL1   H2A 1306   0.110   4.153  10.193 -2.3851 -3.7085  0.5616
   18CHL1   H2B 1307   0.277   4.108  10.200 -0.3892  1.0699  0.8594
   18CHL1   C20 1308   0.407   4.050   9.233 -0.0597 -0.2160 -0.4371
   18CHL1   H20 1309   0.515   4.024   9.245 -0.2426 -0.2484  1.3884
   18CHL1   C21 1310   0.402   4.203   9.252 -0.1299 -0.4542  0.1962
   18CHL1  H21A 1311   0.294   4.227   9.239  0.1454 -0.4534 -2.6564
   18CHL1  H21B 1312   0.456   4.258   9.172 -0.6509  0.4689  0.4617
   18CHL1  H21C 1313   0.428   4.235   9.355 -4.0313  0.8868  0.9118
   18CHL1   C22 1314   0.361   4.000   9.096  0.0512  0.2596 -0.3714
   18CHL1  H22A 1315   0.364   3.889   9.108  1.5664  0.5304  2.4597
   18CHL1  H22B 1316   0.258   4.038   9.077  0.2442  0.9920  0.0422
   18CHL1   C23 1317   0.444   4.045   8.976  0.2671  0.5503  0.3550
   18CHL1  H23A 1318   0.493   4.141   9.005  1.4450 -0.2200  1.0175
   18CHL1  H23B 1319   0.518   3.963   8.964 -1.8358 -1.2911 -0.5994
   18CHL1   C24 1320   0.371   4.047   8.841 -0.0880  0.3465  0.0060
   18CHL1  H24A 1321   0.316   3.953   8.821 -1.1278  0.8875  0.2755
   18CHL1  H24B 1322   0.291   4.124   8.842 -0.6350 -0.1524 -1.6286
   18CHL1   C25 1323   0.475   4.078   8.730 -0.3546  0.2575  0.1362
   18CHL1   H25 1324   0.558   4.005   8.733  1.7872  2.5964  2.0857
   18CHL1   C26 1325   0.400   4.061   8.598 -0.3893 -0.1327 -0.2697
   18CHL1  H26A 1326   0.347   3.963   8.591  0.7931 -0.6924 -1.9362
   18CHL1  H26B 1327   0.322   4.140   8.591  1.5397  1.8501 -0.3257
   18CHL1  H26C 1328   0.471   4.067   8.513 -0.3402  3.2250 -0.1109
   18CHL1   C27 1329   0.546   4.211   8.742 -0.7109  0.5325 -0.0273
   18CHL1  H27A 1330   0.612   4.220   8.831 -1.1065  2.5654  0.1238
   18CHL1  H27B 1331   0.610   4.228   8.653 -0.0254 -1.0028  0.1488
   18CHL1  H27C 1332   0.471   4.293   8.752 -2.9255 -1.4583  0.4455
   19CHL1    C3 1333   5.471   5.381  10.155  0.2144 -0.2100  0.2547
   19CHL1    H3 1334   5.574   5.421  10.152  1.3966 -3.0488 -0.5776
   19CHL1    O3 1335   5.443   5.327  10.283 -0.2559  0.0774  0.1807
   19CHL1   H3' 1336   5.348   5.319  10.288 -0.3098  0.6696  0.2828
   19CHL1    C4 1337   5.363   5.482  10.114 -0.2362  0.6560  0.6054
   19CHL1   H4A 1338   5.267   5.425  10.116 -0.2522  0.3870 -2.6231
   19CHL1   H4B 1339   5.390   5.568  10.178  0.6552  0.9689 -0.1660
   19CHL1    C5 1340   5.376   5.531   9.969  0.5045  0.7642 -0.2767
   19CHL1    C6 1341   5.388   5.655   9.933  0.0837  0.0953  0.9277
   19CHL1    H6 1342   5.382   5.732  10.012  0.7443  1.4046 -0.2520
   19CHL1    C7 1343   5.404   5.710   9.795 -1.0399 -0.0812 -0.1496
   19CHL1   H7A 1344   5.330   5.792   9.780 -1.8817 -1.0312 -1.3175
   19CHL1   H7B 1345   5.504   5.750   9.769 -0.1113 -0.7802  2.0795
   19CHL1    C8 1346   5.369   5.605   9.687  0.4762  0.5587 -0.1719
   19CHL1    H8 1347   5.259   5.592   9.681  0.4922  0.4010 -0.1218
   19CHL1   C14 1348   5.427   5.657   9.552  0.3223  0.5176  0.6031
   19CHL1   H14 1349   5.538   5.666   9.553  0.3306  0.6465  2.1815
   19CHL1   C15 1350   5.383   5.793   9.517 -0.3034 -0.7000  0.6404
   19CHL1  H15A 1351   5.274   5.810   9.517  0.0760  2.3695 -1.0334
   19CHL1  H15B 1352   5.416   5.883   9.574  0.3783  0.0897 -0.9256
   19CHL1   C16 1353   5.433   5.796   9.370  0.0855 -0.1944 -0.1207
   19CHL1  H16A 1354   5.345   5.831   9.312  0.3147  0.1034 -0.2862
   19CHL1  H16B 1355   5.516   5.868   9.357 -0.4583  0.3464 -0.6942
   19CHL1   C17 1356   5.460   5.644   9.324 -0.4016 -0.1903  0.0025
   19CHL1   H17 1357   5.570   5.637   9.331 -0.2301 -0.0763 -2.0045
   19CHL1   C13 1358   5.398   5.565   9.436  0.6024  0.1637 -1.0489
   19CHL1   C18 1359   5.250   5.540   9.411  0.2981  0.3070 -0.4436
   19CHL1  H18A 1360   5.207   5.636   9.376 -2.4729 -1.0691 -1.0537
   19CHL1  H18B 1361   5.239   5.455   9.341  2.6381 -1.2841  0.9644
   19CHL1  H18C 1362   5.193   5.506   9.500  0.2028 -0.2590 -0.7166
   19CHL1   C12 1363   5.470   5.430   9.474  0.3173 -0.6994  0.5900
   19CHL1  H12A 1364   5.453   5.349   9.400  0.3958  0.4975 -0.7617
   19CHL1  H12B 1365   5.578   5.457   9.480 -0.1805  1.3773  0.8700
   19CHL1   C11 1366   5.416   5.374   9.607 -0.2257 -0.2088 -0.1634
   19CHL1  H11A 1367   5.306   5.357   9.602 -0.4796  1.3101 -0.1917
   19CHL1  H11B 1368   5.470   5.278   9.625 -0.4271 -0.4304 -0.7015
   19CHL1    C9 1369   5.436   5.468   9.732  0.4791 -0.4351  0.3987
   19CHL1    H9 1370   5.543   5.493   9.744  0.7912  0.5564 -3.3370
   19CHL1   C10 1371   5.383   5.419   9.868  0.2845  0.8473 -0.0495
   19CHL1   C19 1372   5.242   5.351   9.853  0.7462  0.3108  0.0380
   19CHL1  H19A 1373   5.168   5.433   9.846  1.2341  0.8984  1.4102
   19CHL1  H19B 1374   5.231   5.273   9.775 -1.2539  0.1834  0.3874
   19CHL1  H19C 1375   5.223   5.301   9.951  1.1229  0.9555  0.4453
   19CHL1    C1 1376   5.485   5.313   9.919 -0.5541  0.1848  0.0213
   19CHL1   H1A 1377   5.489   5.233   9.841  1.5780 -0.3311  0.5720
   19CHL1   H1B 1378   5.583   5.364   9.925 -0.5154 -0.0338  1.5972
   19CHL1    C2 1379   5.466   5.264  10.055  0.4356  0.2681  0.5560
   19CHL1   H2A 1380   5.553   5.200  10.082  0.9486  0.5583 -0.3836
   19CHL1   H2B 1381   5.363   5.224  10.073  0.8123 -1.2174 -0.4039
   19CHL1   C20 1382   5.446   5.618   9.176  0.9251  0.2970  0.3486
   19CHL1   H20 1383   5.337   5.612   9.156  0.7608 -0.8258  1.4286
   19CHL1   C21 1384   5.522   5.491   9.145  0.0186  0.3306  0.7298
   19CHL1  H21A 1385   5.472   5.405   9.193  0.4444 -0.4591 -0.2085
   19CHL1  H21B 1386   5.626   5.482   9.182  0.2731  2.4480  0.6861
   19CHL1  H21C 1387   5.520   5.473   9.035  2.5673  3.1867  0.0835
   19CHL1   C22 1388   5.501   5.738   9.077  0.3039 -0.3142 -0.6340
   19CHL1  H22A 1389   5.447   5.825   9.119 -0.4604 -1.4842  0.9091
   19CHL1  H22B 1390   5.610   5.749   9.098  0.2225 -0.7091  0.0083
   19CHL1   C23 1391   5.495   5.722   8.923 -0.2522 -0.2423 -0.3773
   19CHL1  H23A 1392   5.563   5.645   8.880 -1.0079 -0.3446 -1.4277
   19CHL1  H23B 1393   5.394   5.678   8.911 -0.6574  0.5288  0.1901
   19CHL1   C24 1394   5.509   5.847   8.848  1.1291 -0.2307 -0.1631
   19CHL1  H24A 1395   5.430   5.915   8.888  1.6333  0.8265 -0.9081
   19CHL1  H24B 1396   5.606   5.894   8.874  0.6288  0.6805  0.1256
   19CHL1   C25 1397   5.490   5.825   8.694  0.4889 -0.7115 -0.3730
   19CHL1   H25 1398   5.580   5.771   8.655  0.3859  1.3766 -3.8943
   19CHL1   C26 1399   5.359   5.765   8.663  0.2528 -0.5895  0.4849
   19CHL1  H26A 1400   5.354   5.661   8.700  1.3707  0.1715  2.9339
   19CHL1  H26B 1401   5.273   5.826   8.697  1.7628  1.0655  1.4815
   19CHL1  H26C 1402   5.349   5.760   8.552 -0.2333 -3.0988  0.5795
   19CHL1   C27 1403   5.487   5.959   8.629  0.6441  0.4072  0.6484
   19CHL1  H27A 1404   5.475   5.954   8.518 -0.1269  0.7294  0.7086
   19CHL1  H27B 1405   5.417   6.034   8.669  1.4991  1.4513  0.2222
   19CHL1  H27C 1406   5.585   6.006   8.648  0.7048  0.4581  0.2321
   20CHL1    C3 1407   4.613   6.524  10.270  0.4104 -0.6510 -0.0557
   20CHL1    H3 1408   4.522   6.465  10.245  0.6683 -0.7527 -0.7956
   20CHL1    O3 1409   4.626   6.551  10.410  0.2095  0.1022 -0.3875
   20CHL1   H3' 1410   4.666   6.476  10.453 -2.0555  0.6625  3.0056
   20CHL1    C4 1411   4.731   6.450  10.216  0.1674 -0.5385 -0.1200
   20CHL1   H4A 1412   4.823   6.508  10.237 -0.4780  0.1727  0.8408
   20CHL1   H4B 1413   4.742   6.353  10.268  1.5004 -0.6667 -0.6013
   20CHL1    C5 1414   4.724   6.439  10.062  0.2269  0.0875 -0.6820
   20CHL1    C6 1415   4.742   6.325   9.998  0.4215  0.2544 -0.8819
   20CHL1    H6 1416   4.753   6.237  10.064 -4.8291 -0.8742 -1.0723
   20CHL1    C7 1417   4.738   6.300   9.849  0.3688  0.0961 -0.3544
   20CHL1   H7A 1418   4.815   6.225   9.822 -0.4391 -0.9889  0.2396
   20CHL1   H7B 1419   4.641   6.250   9.827 -0.4345  0.9366  1.0953
   20CHL1    C8 1420   4.740   6.427   9.768  0.6335  0.0748  0.2525
   20CHL1    H8 1421   4.841   6.473   9.759  0.6214  0.9266  3.4655
   20CHL1   C14 1422   4.693   6.399   9.626  0.3216 -0.3606 -1.2483
   20CHL1   H14 1423   4.591   6.354   9.632  0.6850 -1.5815 -3.2749
   20CHL1   C15 1424   4.776   6.295   9.550 -0.3085 -0.3538 -0.5801
   20CHL1  H15A 1425   4.887   6.300   9.556 -0.2239 -0.5129 -1.8141
   20CHL1  H15B 1426   4.745   6.198   9.595 -0.4452 -0.5189 -1.0247
   20CHL1   C16 1427   4.724   6.303   9.409 -0.5355 -0.1345  0.8622
   20CHL1  H16A 1428   4.814   6.316   9.345  0.6326 -1.7465  2.0614
   20CHL1  H16B 1429   4.663   6.214   9.382 -1.8263  1.4078 -1.5941
   20CHL1   C17 1430   4.633   6.433   9.409  1.0132  0.7901 -0.4632
   20CHL1   H17 1431   4.531   6.401   9.438  1.0064  0.2832 -1.0198
   20CHL1   C13 1432   4.678   6.512   9.531  0.7647  0.0681  0.7269
   20CHL1   C18 1433   4.812   6.573   9.498  0.0394  0.1657 -0.0998
   20CHL1  H18A 1434   4.885   6.501   9.456 -0.2695 -0.6648  0.7543
   20CHL1  H18B 1435   4.799   6.657   9.428 -3.3239  1.1961  1.5359
   20CHL1  H18C 1436   4.877   6.619   9.576  0.7832  3.3885 -2.4164
   20CHL1   C12 1437   4.583   6.615   9.600  0.0455  0.0095  0.1875
   20CHL1  H12A 1438   4.555   6.700   9.534  0.5093 -1.1683 -1.6054
   20CHL1  H12B 1439   4.484   6.567   9.615 -1.1347  2.9876  3.3762
   20CHL1   C11 1440   4.632   6.658   9.739  0.2206 -0.9808  0.6217
   20CHL1  H11A 1441   4.719   6.725   9.723  0.7987 -2.2125 -1.7223
   20CHL1  H11B 1442   4.548   6.711   9.790 -0.8823 -1.7276 -0.3762
   20CHL1    C9 1443   4.657   6.534   9.834 -0.8722 -0.6807 -0.0693
   20CHL1    H9 1444   4.556   6.487   9.834 -0.4371 -1.7518  2.3639
   20CHL1   C10 1445   4.690   6.567   9.985 -0.0470 -0.3578  0.0648
   20CHL1   C19 1446   4.817   6.661   9.979  0.5275 -0.0957 -0.3128
   20CHL1  H19A 1447   4.863   6.671  10.079 -2.4363  0.6416  1.0950
   20CHL1  H19B 1448   4.890   6.618   9.908  2.3718  2.0671  0.1500
   20CHL1  H19C 1449   4.791   6.765   9.947  0.3993  0.4431  1.4415
   20CHL1    C1 1450   4.569   6.632  10.050 -0.2380  0.1943  0.0733
   20CHL1   H1A 1451   4.550   6.725   9.992  1.3194 -0.1366 -1.0230
   20CHL1   H1B 1452   4.484   6.562  10.049  0.8522 -1.1759 -1.5185
   20CHL1    C2 1453   4.592   6.661  10.198 -0.6411 -0.1788  0.1039
   20CHL1   H2A 1454   4.505   6.713  10.243 -0.2389 -0.1048  0.8144
   20CHL1   H2B 1455   4.681   6.726  10.210 -2.8527  2.9785  0.8482
   20CHL1   C20 1456   4.612   6.500   9.274 -0.5759 -0.4950 -0.1793
   20CHL1   H20 1457   4.713   6.530   9.242 -0.4653  0.1494  0.7322
   20CHL1   C21 1458   4.523   6.624   9.292  0.0946  0.0012  0.4358
   20CHL1  H21A 1459   4.501   6.657   9.188  2.2806 -3.9200 -1.5066
   20CHL1  H21B 1460   4.558   6.720   9.334 -1.5755  0.3331  1.1798
   20CHL1  H21C 1461   4.419   6.607   9.328 -0.1760 -0.4762 -0.5309
   20CHL1   C22 1462   4.557   6.408   9.165  0.5930  0.1211 -0.7803
   20CHL1  H22A 1463   4.588   6.303   9.184 -0.6179  0.2325  2.3467
   20CHL1  H22B 1464   4.446   6.416   9.163  0.3730 -1.0877  1.8230
   20CHL1   C23 1465   4.613   6.437   9.020  0.7958 -0.6966  0.3553
   20CHL1  H23A 1466   4.562   6.522   8.970  1.3454  0.1677  1.2296
   20CHL1  H23B 1467   4.722   6.453   9.031  0.8720  1.1277 -2.1531
   20CHL1   C24 1468   4.592   6.309   8.923  0.3436 -0.3158 -0.7346
   20CHL1  H24A 1469   4.654   6.226   8.963 -0.8896 -0.6098  0.6870
   20CHL1  H24B 1470   4.484   6.281   8.923  0.3257 -0.2584 -1.0865
   20CHL1   C25 1471   4.639   6.324   8.784 -0.3265  0.7286 -0.2247
   20CHL1   H25 1472   4.749   6.325   8.795 -0.2113 -2.6185 -0.0115
   20CHL1   C26 1473   4.609   6.200   8.697  0.8249 -0.0143 -1.0247
   20CHL1  H26A 1474   4.649   6.218   8.595  0.4470  1.9425 -0.8614
   20CHL1  H26B 1475   4.669   6.121   8.746  3.0978  2.3811  0.3194
   20CHL1  H26C 1476   4.499   6.193   8.686  0.5263  2.8959 -0.6037
   20CHL1   C27 1477   4.574   6.454   8.716 -0.5289  0.2551 -0.0236
   20CHL1  H27A 1478   4.463   6.460   8.717 -0.4384  3.4477  1.3302
   20CHL1  H27B 1479   4.606   6.552   8.756 -0.3627  1.8117 -3.6175
   20CHL1  H27C 1480   4.612   6.458   8.612 -0.6034  1.2068 -0.0200
   21CHL1    C3 1481   5.748   2.474  10.331  0.1920  0.4391  0.9777
   21CHL1    H3 1482   5.737   2.364  10.321  0.0959  0.2819  2.5197
   21CHL1    O3 1483   5.752   2.498  10.472  0.0974 -0.0993  0.3256
   21CHL1   H3' 1484   5.775   2.590  10.480 -1.1499  0.2820 -0.2029
   21CHL1    C4 1485   5.874   2.534  10.267  0.0827  0.4436 -0.3548
   21CHL1   H4A 1486   5.903   2.640  10.287  1.5406  0.0542 -0.3197
   21CHL1   H4B 1487   5.962   2.481  10.306 -0.3760  0.3901  0.6255
   21CHL1    C5 1488   5.865   2.516  10.114  0.1838 -0.3982  0.3622
   21CHL1    C6 1489   5.970   2.463  10.051 -0.2574 -0.4530  0.1296
   21CHL1    H6 1490   6.057   2.426  10.107  0.8266  0.2841 -0.9909
   21CHL1    C7 1491   5.968   2.458   9.904 -0.3485 -0.6404 -0.0495
   21CHL1   H7A 1492   6.070   2.488   9.872 -0.6541  0.3277 -0.1369
   21CHL1   H7B 1493   5.960   2.353   9.868  1.9784 -0.7282 -0.4823
   21CHL1    C8 1494   5.865   2.551   9.824 -0.2962 -0.4421 -0.1398
   21CHL1    H8 1495   5.903   2.655   9.829  2.0815 -1.1367 -1.9141
   21CHL1   C14 1496   5.849   2.498   9.681  0.7385  0.1007  0.2733
   21CHL1   H14 1497   5.811   2.394   9.694  2.1203 -0.7487 -1.8635
   21CHL1   C15 1498   5.976   2.471   9.594  0.1638 -0.7760 -0.5176
   21CHL1  H15A 1499   6.044   2.557   9.613  2.5336 -2.4247 -1.0951
   21CHL1  H15B 1500   6.029   2.381   9.630 -1.2361 -2.1651 -1.7594
   21CHL1   C16 1501   5.925   2.464   9.450  0.6300  0.1056  0.1512
   21CHL1  H16A 1502   5.985   2.528   9.381  0.3959 -1.0213 -1.1326
   21CHL1  H16B 1503   5.935   2.361   9.411  0.2005 -0.3490  1.2225
   21CHL1   C17 1504   5.776   2.506   9.451  0.1313  0.0500 -0.1730
   21CHL1   H17 1505   5.706   2.420   9.454 -1.4233  1.2366 -0.8839
   21CHL1   C13 1506   5.755   2.574   9.588 -0.8679  0.6377 -0.6717
   21CHL1   C18 1507   5.803   2.720   9.585  0.8736 -0.6304  0.9763
   21CHL1  H18A 1508   5.910   2.722   9.554  1.2121 -1.5286  1.9872
   21CHL1  H18B 1509   5.736   2.787   9.527  2.2744  1.9053  2.1598
   21CHL1  H18C 1510   5.796   2.768   9.685  1.1552 -0.0882  0.7389
   21CHL1   C12 1511   5.619   2.557   9.655  0.3079  0.0228 -0.3994
   21CHL1  H12A 1512   5.536   2.615   9.609 -0.5602 -1.5563 -0.8910
   21CHL1  H12B 1513   5.596   2.449   9.647 -1.4607  0.4620 -2.0433
   21CHL1   C11 1514   5.624   2.600   9.799  0.6462 -0.6078 -0.4218
   21CHL1  H11A 1515   5.637   2.710   9.791 -1.5371 -0.3105 -0.5627
   21CHL1  H11B 1516   5.523   2.589   9.845  0.6786  3.2536  0.9449
   21CHL1    C9 1517   5.738   2.538   9.893  0.5210  0.0844  0.5777
   21CHL1    H9 1518   5.711   2.430   9.889 -2.6142  0.7868 -2.4824
   21CHL1   C10 1519   5.745   2.579  10.041  0.6466 -0.5920  0.2534
   21CHL1   C19 1520   5.744   2.731  10.058  0.2762 -0.0684  0.4957
   21CHL1  H19A 1521   5.651   2.775  10.014 -0.1769 -0.0776  1.4146
   21CHL1  H19B 1522   5.753   2.762  10.164  0.8126 -1.1282  0.7661
   21CHL1  H19C 1523   5.830   2.774  10.002 -0.6651  0.0057 -0.9644
   21CHL1    C1 1524   5.618   2.520  10.115  0.5331  0.5766 -0.1398
   21CHL1   H1A 1525   5.531   2.580  10.081  0.4656  1.3602  1.3316
   21CHL1   H1B 1526   5.602   2.416  10.081 -0.6378  0.7506 -0.1523
   21CHL1    C2 1527   5.624   2.530  10.266  0.2909 -0.5514  0.2032
   21CHL1   H2A 1528   5.535   2.472  10.298  0.4031 -0.1219  1.3327
   21CHL1   H2B 1529   5.601   2.634  10.297  0.5289  0.1003 -1.6899
   21CHL1   C20 1530   5.724   2.577   9.326  0.2575  0.0896 -0.2596
   21CHL1   H20 1531   5.796   2.660   9.308  1.6195 -1.1063 -0.4614
   21CHL1   C21 1532   5.580   2.633   9.339 -0.0743 -0.2259 -0.9294
   21CHL1  H21A 1533   5.508   2.563   9.387  0.0068  0.5606  0.3816
   21CHL1  H21B 1534   5.530   2.644   9.240 -1.8869 -1.0138 -0.1420
   21CHL1  H21C 1535   5.563   2.715   9.411  1.4455  0.7740 -1.6668
   21CHL1   C22 1536   5.725   2.480   9.198  0.2924  0.4521  0.0029
   21CHL1  H22A 1537   5.817   2.420   9.180  1.2202  1.0399  2.3865
   21CHL1  H22B 1538   5.661   2.392   9.222  1.4878 -0.1394  1.2098
   21CHL1   C23 1539   5.688   2.541   9.057  0.5380  0.1981  0.0715
   21CHL1  H23A 1540   5.584   2.578   9.048  1.3159  2.6745  0.5308
   21CHL1  H23B 1541   5.748   2.632   9.038 -1.1882  1.4339  0.3383
   21CHL1   C24 1542   5.722   2.449   8.932 -0.3178 -0.0170 -0.2525
   21CHL1  H24A 1543   5.831   2.426   8.933 -0.6860 -1.9265 -0.2466
   21CHL1  H24B 1544   5.674   2.349   8.940 -1.3300  0.5410  0.8614
   21CHL1   C25 1545   5.693   2.506   8.788  0.3635  0.0927  0.3620
   21CHL1   H25 1546   5.591   2.548   8.788  0.8162  1.2482  1.3912
   21CHL1   C26 1547   5.782   2.629   8.752  0.2951 -0.1261  0.1244
   21CHL1  H26A 1548   5.753   2.646   8.646 -0.9235  0.2483  0.4918
   21CHL1  H26B 1549   5.753   2.710   8.822  0.4191 -0.5942  0.7247
   21CHL1  H26C 1550   5.889   2.600   8.751  0.4572  0.4577 -1.0288
   21CHL1   C27 1551   5.703   2.397   8.682  0.5045  0.0057 -0.5208
   21CHL1  H27A 1552   5.658   2.440   8.591  1.9888  1.7564 -0.4981
   21CHL1  H27B 1553   5.811   2.386   8.658  1.6540  2.8116  2.5231
   21CHL1  H27C 1554   5.651   2.311   8.728  1.3180 -0.3691 -0.2694
   22CHL1    C3 1555   5.476   3.456  10.078  0.1994 -0.0335 -0.0349
   22CHL1    H3 1556   5.580   3.418  10.081  0.1086 -0.4285 -1.3515
   22CHL1    O3 1557   5.417   3.467  10.208 -0.0195  0.0103 -0.2185
   22CHL1   H3' 1558   5.441   3.378  10.237  0.2681 -0.4388 -1.7472
   22CHL1    C4 1559   5.511   3.594  10.028  0.4408 -0.7893  0.3204
   22CHL1   H4A 1560   5.423   3.661  10.020  1.6109  0.5935 -2.6611
   22CHL1   H4B 1561   5.581   3.648  10.096  1.7161  1.4492 -2.5485
   22CHL1    C5 1562   5.565   3.592   9.886 -0.0481 -0.5449  0.1254
   22CHL1    C6 1563   5.684   3.646   9.858  0.0249  0.5804  0.2398
   22CHL1    H6 1564   5.746   3.686   9.939 -0.0652 -1.6413  1.4648
   22CHL1    C7 1565   5.749   3.651   9.722  0.6842  0.1674 -0.7354
   22CHL1   H7A 1566   5.794   3.749   9.698 -2.7632  1.9199 -0.7185
   22CHL1   H7B 1567   5.827   3.572   9.710 -1.0990 -2.0249  1.0307
   22CHL1    C8 1568   5.637   3.632   9.616 -0.2862  1.4344 -0.8300
   22CHL1    H8 1569   5.578   3.727   9.611 -0.0554  1.5166 -3.1968
   22CHL1   C14 1570   5.708   3.603   9.478 -0.0074  0.5226 -0.5114
   22CHL1   H14 1571   5.756   3.504   9.490 -0.1595  0.8031  4.4036
   22CHL1   C15 1572   5.803   3.714   9.422 -0.2096 -0.1499 -0.5900
   22CHL1  H15A 1573   5.751   3.811   9.437 -0.6073 -0.5307  0.6309
   22CHL1  H15B 1574   5.907   3.714   9.462  0.5876 -0.9879 -2.5246
   22CHL1   C16 1575   5.814   3.687   9.275  0.3601 -0.7772 -1.0648
   22CHL1  H16A 1576   5.780   3.773   9.214  1.4294  2.0821  2.0718
   22CHL1  H16B 1577   5.919   3.661   9.250  0.2722 -1.3912 -0.8304
   22CHL1   C17 1578   5.721   3.570   9.245  0.3720 -0.1242  0.3433
   22CHL1   H17 1579   5.788   3.482   9.253  0.6535  0.1920  1.7116
   22CHL1   C13 1580   5.620   3.573   9.364  0.1716  0.2296 -0.2528
   22CHL1   C18 1581   5.519   3.685   9.344 -0.2894  0.0338  0.4075
   22CHL1  H18A 1582   5.449   3.645   9.267  1.8047 -1.0637 -1.0391
   22CHL1  H18B 1583   5.461   3.703   9.437 -0.8976 -0.1720  0.0759
   22CHL1  H18C 1584   5.566   3.777   9.305 -1.9173  0.6135 -0.2808
   22CHL1   C12 1585   5.552   3.438   9.407 -0.4480  0.0487 -0.6236
   22CHL1  H12A 1586   5.479   3.401   9.331 -2.9566  0.3895  1.4643
   22CHL1  H12B 1587   5.637   3.366   9.409  0.6952  1.3709  0.0198
   22CHL1   C11 1588   5.468   3.454   9.529  0.5245  0.3440  0.2374
   22CHL1  H11A 1589   5.390   3.532   9.514 -0.9572 -1.4309 -1.6944
   22CHL1  H11B 1590   5.401   3.371   9.559 -0.0926  1.4243  2.0370
   22CHL1    C9 1591   5.546   3.512   9.651  0.0461  0.1323 -0.3530
   22CHL1    H9 1592   5.628   3.437   9.654  0.3522  0.4119 -1.3717
   22CHL1   C10 1593   5.475   3.530   9.784  0.5214 -0.5612  1.1278
   22CHL1   C19 1594   5.350   3.621   9.765 -0.2235 -0.5631  0.0276
   22CHL1  H19A 1595   5.280   3.573   9.693 -0.6050 -1.9598  1.2620
   22CHL1  H19B 1596   5.299   3.615   9.864 -0.6481 -4.0742 -0.2641
   22CHL1  H19C 1597   5.378   3.720   9.722 -1.6592 -0.6551 -1.1957
   22CHL1    C1 1598   5.426   3.386   9.833  0.2551 -0.5602  0.3624
   22CHL1   H1A 1599   5.338   3.346   9.780  0.1917 -3.5429  2.4531
   22CHL1   H1B 1600   5.508   3.317   9.802  0.5519  1.0863 -2.9447
   22CHL1    C2 1601   5.381   3.383   9.979  0.4998 -0.6052  0.7042
   22CHL1   H2A 1602   5.337   3.290  10.019 -0.5505  0.0572  1.1499
   22CHL1   H2B 1603   5.300   3.459   9.972  1.0109 -0.0895  0.1668
   22CHL1   C20 1604   5.656   3.555   9.099 -0.0434  0.1499  0.4360
   22CHL1   H20 1605   5.579   3.633   9.083 -0.0734 -0.0530 -0.4620
   22CHL1   C21 1606   5.593   3.414   9.083 -0.0806  0.4994 -0.1738
   22CHL1  H21A 1607   5.660   3.335   9.125 -2.3795 -1.3996  0.2041
   22CHL1  H21B 1608   5.571   3.388   8.977  3.2308  1.0698 -1.1234
   22CHL1  H21C 1609   5.497   3.397   9.137 -0.0307  0.6843 -0.0269
   22CHL1   C22 1610   5.768   3.572   8.988  1.6227 -0.6524 -0.2269
   22CHL1  H22A 1611   5.825   3.666   9.004  1.0901 -0.2763 -0.4957
   22CHL1  H22B 1612   5.832   3.482   8.996  1.3640 -0.8381 -0.2308
   22CHL1   C23 1613   5.708   3.569   8.846 -0.1699 -0.7128  0.0018
   22CHL1  H23A 1614   5.677   3.466   8.817 -4.1794  0.3029  0.0452
   22CHL1  H23B 1615   5.613   3.627   8.851  1.7623  2.5974  1.3646
   22CHL1   C24 1616   5.792   3.642   8.743 -0.0714 -0.5144  0.0291
   22CHL1  H24A 1617   5.755   3.747   8.745  0.7379 -0.2248  1.6775
   22CHL1  H24B 1618   5.900   3.640   8.771  0.1025  0.1462 -0.5767
   22CHL1   C25 1619   5.793   3.597   8.601  0.0461 -0.3439 -0.2239
   22CHL1   H25 1620   5.799   3.487   8.589 -0.2858 -0.2122 -1.8823
   22CHL1   C26 1621   5.663   3.630   8.526  0.0619 -0.5555 -0.3909
   22CHL1  H26A 1622   5.636   3.737   8.537 -1.6372 -1.1504  2.0348
   22CHL1  H26B 1623   5.666   3.586   8.424  0.4426 -1.0507 -0.1695
   22CHL1  H26C 1624   5.575   3.579   8.572 -0.5533  1.8337  1.2376
   22CHL1   C27 1625   5.912   3.667   8.531 -0.2021 -0.9733  0.4748
   22CHL1  H27A 1626   6.012   3.623   8.551  0.7585  0.4656 -0.8929
   22CHL1  H27B 1627   5.889   3.663   8.422  1.4270  1.0167 -0.0130
   22CHL1  H27C 1628   5.902   3.773   8.563  0.4926 -1.1047  1.1560
   23CHL1    C3 1629   2.744   6.218  10.139  0.0599 -0.8892  0.3346
   23CHL1    H3 1630   2.830   6.148  10.131  0.0734 -1.0257  1.4592
   23CHL1    O3 1631   2.691   6.226  10.269 -0.4124  0.0657 -0.0605
   23CHL1   H3' 1632   2.665   6.137  10.296  0.5256  0.0221  0.7463
   23CHL1    C4 1633   2.765   6.358  10.080  0.5906  0.3195 -0.1299
   23CHL1   H4A 1634   2.676   6.423  10.089 -1.2916 -2.2697  0.9229
   23CHL1   H4B 1635   2.848   6.407  10.134  0.9413 -0.0932 -0.2860
   23CHL1    C5 1636   2.789   6.344   9.931 -0.0486  0.3415 -0.9828
   23CHL1    C6 1637   2.895   6.408   9.879 -0.6583  0.1452  0.2469
   23CHL1    H6 1638   2.952   6.469   9.951 -0.5334  0.7933 -0.3940
   23CHL1    C7 1639   2.931   6.410   9.729 -0.5607 -0.0645  0.6653
   23CHL1   H7A 1640   2.966   6.511   9.700 -0.1166  0.2590  2.2420
   23CHL1   H7B 1641   3.011   6.333   9.725 -0.3660 -0.0242  2.8015
   23CHL1    C8 1642   2.808   6.370   9.644  0.5132  0.0736  0.3480
   23CHL1    H8 1643   2.731   6.450   9.642  0.3333 -0.1117 -0.5249
   23CHL1   C14 1644   2.851   6.339   9.496  0.5006 -0.0245  0.2917
   23CHL1   H14 1645   2.926   6.257   9.508 -2.9762 -3.4330  0.8089
   23CHL1   C15 1646   2.908   6.450   9.412 -0.2071 -0.5346  0.2299
   23CHL1  H15A 1647   2.851   6.544   9.425  0.5308  0.2665 -1.7735
   23CHL1  H15B 1648   3.016   6.466   9.433 -0.0147 -0.4815 -0.7300
   23CHL1   C16 1649   2.899   6.403   9.270 -0.3931  1.2266 -0.1922
   23CHL1  H16A 1650   2.856   6.484   9.208 -1.2503  1.4043  0.6146
   23CHL1  H16B 1651   3.004   6.389   9.236 -0.6242  1.4827 -1.0317
   23CHL1   C17 1652   2.807   6.277   9.280  0.9560 -0.2734 -0.0077
   23CHL1   H17 1653   2.869   6.185   9.286 -0.9989 -1.5483  2.2246
   23CHL1   C13 1654   2.736   6.292   9.415  0.2153  0.1763  0.5592
   23CHL1   C18 1655   2.603   6.380   9.409 -0.6936  0.4344 -0.2671
   23CHL1  H18A 1656   2.568   6.382   9.514  1.0403 -2.3972  0.4735
   23CHL1  H18B 1657   2.621   6.482   9.368 -0.0076  1.2398  1.8947
   23CHL1  H18C 1658   2.521   6.338   9.348 -1.8058  1.7072  0.2894
   23CHL1   C12 1659   2.701   6.152   9.473  0.1390  0.2038 -0.0266
   23CHL1  H12A 1660   2.611   6.112   9.423 -1.2347  0.2260  2.2699
   23CHL1  H12B 1661   2.791   6.088   9.482  0.2195  0.3699  0.3907
   23CHL1   C11 1662   2.655   6.164   9.612  0.1738  0.1045  0.0446
   23CHL1  H11A 1663   2.550   6.199   9.611 -0.4085 -1.5547 -0.8504
   23CHL1  H11B 1664   2.646   6.064   9.659  1.0568  0.5347  1.1916
   23CHL1    C9 1665   2.746   6.244   9.705 -0.1300  0.7991  0.4341
   23CHL1    H9 1666   2.830   6.172   9.712 -2.8021 -2.4918  0.8303
   23CHL1   C10 1667   2.690   6.264   9.848 -0.1128 -0.0574  0.3386
   23CHL1   C19 1668   2.556   6.335   9.838 -0.4850 -0.8191  0.3422
   23CHL1  H19A 1669   2.518   6.380   9.932  2.5577 -0.4284  1.4987
   23CHL1  H19B 1670   2.559   6.407   9.753  0.1327 -0.6626  0.4879
   23CHL1  H19C 1671   2.490   6.252   9.806  1.5785 -3.0040  1.3784
   23CHL1    C1 1672   2.662   6.123   9.910 -0.3238  0.0826 -0.2409
   23CHL1   H1A 1673   2.576   6.063   9.873  1.2263 -1.6039 -1.2276
   23CHL1   H1B 1674   2.750   6.056   9.911 -2.2803 -2.6881 -0.5028
   23CHL1    C2 1675   2.631   6.152  10.061  0.4875  0.6120  0.3187
   23CHL1   H2A 1676   2.614   6.053  10.109 -0.4687 -0.6055 -2.3283
   23CHL1   H2B 1677   2.541   6.213  10.080  0.6123  0.3066  2.0975
   23CHL1   C20 1678   2.718   6.265   9.146  0.1661 -0.2650  1.0627
   23CHL1   H20 1679   2.655   6.356   9.141  1.4648  0.6452  0.6738
   23CHL1   C21 1680   2.630   6.141   9.147  0.2308 -0.4623  0.8264
   23CHL1  H21A 1681   2.693   6.049   9.143  0.6563 -0.1403 -0.0404
   23CHL1  H21B 1682   2.569   6.149   9.055  1.2894 -0.4352  0.1053
   23CHL1  H21C 1683   2.559   6.131   9.231 -1.4330  0.4632 -0.4245
   23CHL1   C22 1684   2.818   6.255   9.022  0.0057 -0.4732 -0.1476
   23CHL1  H22A 1685   2.882   6.345   9.021  0.3938 -0.7268 -1.7074
   23CHL1  H22B 1686   2.874   6.161   9.042 -2.5600 -2.0428  0.1489
   23CHL1   C23 1687   2.747   6.254   8.884  0.3925  0.6417 -0.8281
   23CHL1  H23A 1688   2.679   6.166   8.889 -0.0642  1.0302  0.0267
   23CHL1  H23B 1689   2.689   6.347   8.865 -1.3542 -0.6494 -2.2027
   23CHL1   C24 1690   2.849   6.228   8.771  0.9280  0.3232 -0.0244
   23CHL1  H24A 1691   2.914   6.318   8.760  2.4275 -0.8130 -0.8020
   23CHL1  H24B 1692   2.912   6.140   8.796  0.7278 -0.8331 -3.1746
   23CHL1   C25 1693   2.790   6.196   8.631 -0.2399 -0.0528 -0.2105
   23CHL1   H25 1694   2.712   6.117   8.640 -2.3647  1.9615  0.0218
   23CHL1   C26 1695   2.740   6.328   8.559  0.3332 -0.5386 -0.0091
   23CHL1  H26A 1696   2.822   6.400   8.537 -0.7538 -0.1408 -3.4274
   23CHL1  H26B 1697   2.693   6.302   8.461 -1.4691 -1.3661  1.0388
   23CHL1  H26C 1698   2.674   6.383   8.629  3.2748  0.8088  1.8992
   23CHL1   C27 1699   2.910   6.138   8.550  0.0382  0.2425  0.0686
   23CHL1  H27A 1700   2.948   6.038   8.580  0.8897  0.2163 -1.0310
   23CHL1  H27B 1701   2.875   6.138   8.444 -1.6639  1.3407  0.5906
   23CHL1  H27C 1702   3.001   6.200   8.561  1.7569 -2.0063 -0.5902
   24CHL1    C3 1703   4.027   5.332  10.120 -1.0055 -1.0370  0.0380
   24CHL1    H3 1704   3.927   5.360  10.081  0.5469  3.0901 -1.5038
   24CHL1    O3 1705   4.013   5.321  10.258 -0.1231 -0.0624 -0.3178
   24CHL1   H3' 1706   4.093   5.275  10.284 -0.0531  0.0432 -0.3475
   24CHL1    C4 1707   4.073   5.202  10.057  0.2470 -0.6978  0.0177
   24CHL1   H4A 1708   4.172   5.178  10.101  1.1025 -1.3876 -2.1238
   24CHL1   H4B 1709   3.996   5.130  10.090  0.3071 -1.4061 -1.3106
   24CHL1    C5 1710   4.091   5.216   9.906 -0.5410  0.0652  0.2579
   24CHL1    C6 1711   4.031   5.124   9.835 -0.2700 -0.4414  0.1377
   24CHL1    H6 1712   3.971   5.041   9.875 -0.3031 -0.2615  0.4646
   24CHL1    C7 1713   4.042   5.114   9.684  0.4982 -0.5496  0.4510
   24CHL1   H7A 1714   4.077   5.013   9.655  1.6604  0.5823 -2.3876
   24CHL1   H7B 1715   3.946   5.138   9.633 -0.5627 -2.2629  1.5329
   24CHL1    C8 1716   4.144   5.219   9.630  0.5074  0.5378 -0.2747
   24CHL1    H8 1717   4.240   5.164   9.637  0.1439 -0.0773  0.0223
   24CHL1   C14 1718   4.124   5.245   9.478  1.0366  1.2039 -0.2655
   24CHL1   H14 1719   4.026   5.295   9.469 -0.2399 -0.6924  2.0084
   24CHL1   C15 1720   4.110   5.125   9.385  0.2050 -0.3599  0.1414
   24CHL1  H15A 1721   4.183   5.048   9.418  2.5611  1.2598 -1.0054
   24CHL1  H15B 1722   4.002   5.095   9.381 -0.5318  1.8909  1.4604
   24CHL1   C16 1723   4.149   5.167   9.241 -0.6985  0.6360  0.3897
   24CHL1  H16A 1724   4.237   5.110   9.203  0.8563  1.1497  2.9945
   24CHL1  H16B 1725   4.057   5.156   9.179  0.3475 -1.0340 -0.9658
   24CHL1   C17 1726   4.178   5.319   9.264  0.0803 -0.6240  0.3189
   24CHL1   H17 1727   4.079   5.370   9.266 -0.4923 -1.2651 -3.3878
   24CHL1   C13 1728   4.230   5.333   9.410 -0.2097 -0.2653 -0.1738
   24CHL1   C18 1729   4.377   5.278   9.414  0.2099  0.3949  0.3080
   24CHL1  H18A 1730   4.448   5.358   9.383 -0.1493  1.9591  3.1557
   24CHL1  H18B 1731   4.410   5.243   9.514 -2.2941  0.0937  1.0733
   24CHL1  H18C 1732   4.396   5.200   9.338  1.4968  0.7514  0.2298
   24CHL1   C12 1733   4.218   5.471   9.481  0.0774 -0.1804 -0.3034
   24CHL1  H12A 1734   4.297   5.534   9.435  2.8740 -2.1984  1.3806
   24CHL1  H12B 1735   4.119   5.516   9.459 -0.1643  0.3591  1.7391
   24CHL1   C11 1736   4.244   5.458   9.628  0.5268  0.5509 -0.8464
   24CHL1  H11A 1737   4.343   5.409   9.633 -0.6045 -2.2083 -2.9295
   24CHL1  H11B 1738   4.241   5.553   9.686 -4.2275 -0.5306  1.1452
   24CHL1    C9 1739   4.148   5.355   9.699  0.3134  0.6582 -0.7065
   24CHL1    H9 1740   4.044   5.393   9.683  0.3833  1.2338  0.1121
   24CHL1   C10 1741   4.168   5.336   9.852 -0.4313  0.0230 -0.9008
   24CHL1   C19 1742   4.319   5.309   9.873  0.0811  0.5569 -0.2232
   24CHL1  H19A 1743   4.348   5.285   9.978 -2.6720 -0.3616  0.4190
   24CHL1  H19B 1744   4.370   5.237   9.806  0.2801  0.2524  0.2491
   24CHL1  H19C 1745   4.370   5.406   9.853  1.2139 -0.3706 -2.0510
   24CHL1    C1 1746   4.119   5.461   9.921  0.0786 -0.2152  0.2578
   24CHL1   H1A 1747   4.154   5.560   9.886 -1.6807  0.9425  1.6059
   24CHL1   H1B 1748   4.013   5.469   9.892 -0.5510 -2.4191  1.7096
   24CHL1    C2 1749   4.111   5.455  10.079 -0.3888 -0.3409  0.1213
   24CHL1   H2A 1750   4.070   5.550  10.120 -0.7487  0.7901 -2.6296
   24CHL1   H2B 1751   4.215   5.446  10.117  0.1357 -0.0349 -1.1681
   24CHL1   C20 1752   4.266   5.395   9.159  0.6096  0.7205  0.1601
   24CHL1   H20 1753   4.371   5.396   9.195  0.4722  2.8295  0.6306
   24CHL1   C21 1754   4.203   5.534   9.142  0.3209 -0.4729 -0.1321
   24CHL1  H21A 1755   4.107   5.520   9.088 -1.4785 -1.3835  3.0251
   24CHL1  H21B 1756   4.276   5.597   9.089 -0.6725 -0.4758 -1.5626
   24CHL1  H21C 1757   4.190   5.581   9.242  0.4490  1.8982 -1.1781
   24CHL1   C22 1758   4.269   5.327   9.019 -0.8922  0.9558  0.0351
   24CHL1  H22A 1759   4.328   5.233   9.029 -0.6959  1.0246 -0.4553
   24CHL1  H22B 1760   4.170   5.292   8.984 -0.1994  0.2495 -1.3166
   24CHL1   C23 1761   4.344   5.411   8.908  0.1366 -0.6139  0.1332
   24CHL1  H23A 1762   4.277   5.496   8.883  0.3467 -0.3004  0.6300
   24CHL1  H23B 1763   4.429   5.474   8.941 -0.2213  0.4692 -0.9324
   24CHL1   C24 1764   4.396   5.334   8.791  0.9087  0.9587  0.0696
   24CHL1  H24A 1765   4.451   5.396   8.717 -1.2264  1.2064 -1.3872
   24CHL1  H24B 1766   4.467   5.254   8.821 -1.4848 -0.8321  1.2864
   24CHL1   C25 1767   4.276   5.271   8.713 -0.3550  0.6462 -0.0972
   24CHL1   H25 1768   4.217   5.210   8.785 -0.2352 -0.7440 -1.1452
   24CHL1   C26 1769   4.171   5.367   8.656  0.5243 -0.5401 -0.1183
   24CHL1  H26A 1770   4.123   5.420   8.740  1.4038  0.1817 -0.0531
   24CHL1  H26B 1771   4.217   5.446   8.594  1.0290 -0.0622  0.8467
   24CHL1  H26C 1772   4.104   5.313   8.586 -0.1415  0.1488 -0.0105
   24CHL1   C27 1773   4.320   5.167   8.607 -0.2250  0.4888 -0.1355
   24CHL1  H27A 1774   4.233   5.112   8.564  0.6165 -1.7304  0.8471
   24CHL1  H27B 1775   4.387   5.200   8.525  1.2936 -0.6386  0.5944
   24CHL1  H27C 1776   4.373   5.088   8.665 -1.0518 -0.8834 -1.1549
   25CHL1    C3 1777   3.816   0.338  10.297 -0.1887 -0.5385 -0.8882
   25CHL1    H3 1778   3.899   0.404  10.265 -0.8779  0.1877 -1.2161
   25CHL1    O3 1779   3.808   0.360  10.439 -0.4618 -0.1655  0.4836
   25CHL1   H3' 1780   3.750   0.435  10.449 -0.2736  0.0342  0.0948
   25CHL1    C4 1781   3.684   0.372  10.239  0.2012 -1.0451 -0.4550
   25CHL1   H4A 1782   3.610   0.299  10.279 -0.6721 -0.4747 -1.0198
   25CHL1   H4B 1783   3.661   0.477  10.265  1.0688 -0.3705 -2.2987
   25CHL1    C5 1784   3.683   0.350  10.087 -0.2525 -0.4830  0.2383
   25CHL1    C6 1785   3.648   0.452  10.012  0.7734 -0.2973 -0.3426
   25CHL1    H6 1786   3.625   0.547  10.063  1.1928 -0.9638  1.1532
   25CHL1    C7 1787   3.619   0.439   9.866 -0.8554 -0.3528  0.0279
   25CHL1   H7A 1788   3.519   0.480   9.843 -0.9877 -0.9506 -0.4819
   25CHL1   H7B 1789   3.687   0.503   9.806  0.3665 -0.9701  0.7126
   25CHL1    C8 1790   3.634   0.292   9.805  0.1129  0.1431 -0.6448
   25CHL1    H8 1791   3.540   0.237   9.826  0.3423  0.6905  2.2362
   25CHL1   C14 1792   3.662   0.305   9.661  0.1137  0.3433  0.4971
   25CHL1   H14 1793   3.765   0.344   9.650 -1.2027  3.5243 -2.9064
   25CHL1   C15 1794   3.578   0.393   9.570  0.0427 -0.1401 -0.0929
   25CHL1  H15A 1795   3.471   0.362   9.579 -0.0808  0.5200  0.8432
   25CHL1  H15B 1796   3.595   0.499   9.598  0.1280 -0.3880  0.8379
   25CHL1   C16 1797   3.625   0.357   9.431 -0.0530  0.0196 -0.0186
   25CHL1  H16A 1798   3.532   0.355   9.371 -0.7570  0.4391  1.0284
   25CHL1  H16B 1799   3.685   0.446   9.400  2.1122 -0.8567  1.4029
   25CHL1   C17 1800   3.695   0.222   9.436 -0.4560 -0.1424 -0.4431
   25CHL1   H17 1801   3.804   0.244   9.434 -0.0892 -1.7581 -3.1025
   25CHL1   C13 1802   3.667   0.166   9.589 -1.0090 -0.4643 -0.2808
   25CHL1   C18 1803   3.526   0.099   9.589 -0.2667 -0.0615 -0.2753
   25CHL1  H18A 1804   3.541   0.006   9.530  2.2605  0.1814 -0.1018
   25CHL1  H18B 1805   3.488   0.072   9.690 -0.2794 -0.0952 -0.2888
   25CHL1  H18C 1806   3.454   0.167   9.539 -1.2214 -1.2572 -0.5835
   25CHL1   C12 1807   3.780   0.090   9.656 -0.4045  0.1161  0.0122
   25CHL1  H12A 1808   3.770  -0.009   9.607  0.4392  0.4547 -0.8807
   25CHL1  H12B 1809   3.878   0.125   9.618  0.0722 -0.6693  0.4912
   25CHL1   C11 1810   3.762   0.081   9.808 -0.1468 -0.1174  0.9878
   25CHL1  H11A 1811   3.668   0.023   9.809 -0.8054  0.9247  0.9462
   25CHL1  H11B 1812   3.838   0.023   9.863 -0.9821 -1.4392  0.7947
   25CHL1    C9 1813   3.738   0.217   9.877 -0.0316  0.1937  0.0195
   25CHL1    H9 1814   3.834   0.268   9.853  0.8109 -1.2080  0.2676
   25CHL1   C10 1815   3.722   0.213  10.035 -0.3482  0.2246  0.5076
   25CHL1   C19 1816   3.629   0.097  10.059 -0.0355  0.2885  0.0636
   25CHL1  H19A 1817   3.599   0.090  10.165  1.5079  0.6289  0.5575
   25CHL1  H19B 1818   3.538   0.109   9.997 -0.9220 -3.2570  0.4498
   25CHL1  H19C 1819   3.670  -0.005  10.041 -2.0553 -0.4778 -0.3792
   25CHL1    C1 1820   3.860   0.185  10.107  0.2802  0.6688  0.0351
   25CHL1   H1A 1821   3.890   0.080  10.089 -3.3372 -0.7485  1.5181
   25CHL1   H1B 1822   3.941   0.243  10.057 -0.9501  0.2945 -2.5224
   25CHL1    C2 1823   3.854   0.196  10.258 -0.5792  0.8789 -0.2859
   25CHL1   H2A 1824   3.956   0.169  10.293 -0.6829  0.2929 -0.4317
   25CHL1   H2B 1825   3.785   0.123  10.305  1.1678  0.2159  1.4026
   25CHL1   C20 1826   3.672   0.129   9.318  0.0751 -0.1711 -0.3796
   25CHL1   H20 1827   3.564   0.101   9.317  0.2006 -1.2092  2.9639
   25CHL1   C21 1828   3.749  -0.005   9.338 -0.5386 -0.8476 -0.4442
   25CHL1  H21A 1829   3.848   0.032   9.375 -1.3141 -0.1203  0.9753
   25CHL1  H21B 1830   3.763  -0.062   9.244 -1.6535 -2.5242  0.3766
   25CHL1  H21C 1831   3.698  -0.071   9.411  0.9866  0.1236  1.6170
   25CHL1   C22 1832   3.710   0.193   9.179 -0.0498 -0.0977 -0.5719
   25CHL1  H22A 1833   3.674   0.298   9.181  0.4664  0.0735  0.7329
   25CHL1  H22B 1834   3.821   0.193   9.173  0.0005  0.2496  0.2254
   25CHL1   C23 1835   3.663   0.116   9.058 -0.0599 -1.1004 -0.7444
   25CHL1  H23A 1836   3.705   0.013   9.064  0.4220 -0.8742  4.2601
   25CHL1  H23B 1837   3.554   0.134   9.046  0.1853  1.0804 -0.1141
   25CHL1   C24 1838   3.718   0.178   8.930  0.4443  0.8677  0.3830
   25CHL1  H24A 1839   3.658   0.271   8.918 -0.8930 -0.3242 -4.3452
   25CHL1  H24B 1840   3.826   0.206   8.937  0.8464 -0.3145 -0.6772
   25CHL1   C25 1841   3.695   0.092   8.802 -0.3526 -0.1346  0.0958
   25CHL1   H25 1842   3.696   0.162   8.716  0.3558  0.1164  0.3056
   25CHL1   C26 1843   3.803  -0.005   8.774 -0.4237  0.0528  0.1496
   25CHL1  H26A 1844   3.901   0.045   8.788 -0.3785  0.9414 -2.6656
   25CHL1  H26B 1845   3.789  -0.087   8.848 -2.6734 -0.8466 -1.1472
   25CHL1  H26C 1846   3.790  -0.043   8.670  1.9989 -2.7725  0.7342
   25CHL1   C27 1847   3.561   0.023   8.785 -0.3455  0.6072  0.7627
   25CHL1  H27A 1848   3.551  -0.065   8.853 -0.0651 -0.0268  0.0003
   25CHL1  H27B 1849   3.476   0.085   8.819 -1.0569 -1.3970  2.8815
   25CHL1  H27C 1850   3.543  -0.023   8.685 -0.7284  2.0314  0.1583
   26CHL1    C3 1851   4.846   3.940  10.188  0.1619 -0.3243 -0.0084
   26CHL1    H3 1852   4.849   3.829  10.194  3.5740 -0.4750 -1.6493
   26CHL1    O3 1853   4.830   3.989  10.315 -0.0938  0.1553  0.0729
   26CHL1   H3' 1854   4.909   4.035  10.346  0.2291 -1.2726  1.4813
   26CHL1    C4 1855   4.982   3.987  10.132  0.7366 -0.3712  0.3274
   26CHL1   H4A 1856   4.989   4.095  10.158 -0.7799 -0.0827 -0.3604
   26CHL1   H4B 1857   5.061   3.938  10.192  1.5307 -1.4532 -1.5116
   26CHL1    C5 1858   4.991   3.964   9.980  0.2621  0.2236  0.7143
   26CHL1    C6 1859   5.094   3.896   9.930  0.0658  0.0414 -0.2546
   26CHL1    H6 1860   5.168   3.865  10.006 -2.6886  0.2890  2.7661
   26CHL1    C7 1861   5.108   3.863   9.781 -0.3843  0.0245 -0.1864
   26CHL1   H7A 1862   5.209   3.877   9.736 -1.0084 -0.6397 -1.8768
   26CHL1   H7B 1863   5.085   3.754   9.777 -1.6732  0.1532  2.1718
   26CHL1    C8 1864   5.015   3.941   9.689 -0.0718  0.7365  0.1358
   26CHL1    H8 1865   5.056   4.045   9.693  0.4635  0.4938  1.4486
   26CHL1   C14 1866   5.020   3.885   9.547 -0.3878 -0.6490 -0.7325
   26CHL1   H14 1867   4.985   3.780   9.555  0.7306 -0.9131  1.4663
   26CHL1   C15 1868   5.155   3.879   9.476 -0.8542 -0.6876 -0.0913
   26CHL1  H15A 1869   5.197   3.981   9.471 -0.4537 -0.8173  0.5284
   26CHL1  H15B 1870   5.214   3.794   9.517 -2.5330 -1.2350  1.3096
   26CHL1   C16 1871   5.106   3.833   9.339 -0.1670 -0.8278 -0.4288
   26CHL1  H16A 1872   5.182   3.869   9.266  0.6068  2.6293  1.8460
   26CHL1  H16B 1873   5.120   3.723   9.340  0.8379 -0.7096  0.7461
   26CHL1   C17 1874   4.957   3.881   9.319  0.8703 -0.2302  0.4797
   26CHL1   H17 1875   4.899   3.788   9.336  0.8290 -0.0504  1.3727
   26CHL1   C13 1876   4.928   3.957   9.449 -0.7350  0.1394  0.8149
   26CHL1   C18 1877   4.982   4.102   9.415  0.5121  0.4137  0.1671
   26CHL1  H18A 1878   5.004   4.161   9.506 -0.8146  1.0721  0.0805
   26CHL1  H18B 1879   5.071   4.096   9.350 -0.8140 -0.3909 -1.6767
   26CHL1  H18C 1880   4.899   4.153   9.361  0.2126 -0.1408  0.0868
   26CHL1   C12 1881   4.785   3.952   9.501  0.3469 -0.4963 -0.3249
   26CHL1  H12A 1882   4.720   4.005   9.428 -2.1022 -2.0678  0.5798
   26CHL1  H12B 1883   4.744   3.849   9.497  0.2201 -0.4114 -1.9012
   26CHL1   C11 1884   4.775   4.014   9.640 -0.0599 -0.7622 -0.3113
   26CHL1  H11A 1885   4.813   4.119   9.632 -0.8187 -0.1970  2.3548
   26CHL1  H11B 1886   4.670   4.008   9.677  0.2167  0.3714  0.7585
   26CHL1    C9 1887   4.874   3.957   9.747  0.0639  0.4558 -0.9015
   26CHL1    H9 1888   4.847   3.850   9.754  0.4120  0.1567 -3.2391
   26CHL1   C10 1889   4.868   4.008   9.889 -0.8199  0.3085 -0.0009
   26CHL1   C19 1890   4.861   4.160   9.883  0.0359  0.5855 -0.0918
   26CHL1  H19A 1891   4.935   4.196   9.807  1.4386 -1.4403  0.2452
   26CHL1  H19B 1892   4.764   4.210   9.859  0.2371  1.1917  0.3253
   26CHL1  H19C 1893   4.891   4.202   9.981 -0.4197 -0.2685  0.4198
   26CHL1    C1 1894   4.745   3.946   9.953 -0.1229  0.4629 -0.9654
   26CHL1   H1A 1895   4.652   3.966   9.896 -0.1982 -1.3113 -1.5548
   26CHL1   H1B 1896   4.748   3.835   9.964 -1.4664  0.4171 -0.8780
   26CHL1    C2 1897   4.724   3.986  10.100 -0.7281  0.4183  0.3148
   26CHL1   H2A 1898   4.639   3.941  10.156  0.2499 -1.0296  0.7020
   26CHL1   H2B 1899   4.718   4.097  10.098  2.8409  0.7702 -2.8914
   26CHL1   C20 1900   4.921   3.935   9.182  0.7157 -0.2198 -0.4358
   26CHL1   H20 1901   4.985   4.026   9.175  0.4186  0.1439  1.1196
   26CHL1   C21 1902   4.768   3.973   9.169 -0.4620  0.1533 -0.0179
   26CHL1  H21A 1903   4.701   3.887   9.192 -2.1393  2.1080  3.0661
   26CHL1  H21B 1904   4.740   3.991   9.064 -0.3660  0.1463 -0.0459
   26CHL1  H21C 1905   4.742   4.062   9.229 -0.0198  0.6430 -0.5455
   26CHL1   C22 1906   4.969   3.836   9.066 -0.2275  0.3496 -0.4745
   26CHL1  H22A 1907   4.940   3.889   8.973  0.8445  2.3930  0.2679
   26CHL1  H22B 1908   5.080   3.838   9.064 -0.2420  0.8061 -0.8877
   26CHL1   C23 1909   4.895   3.704   9.057 -0.2607  0.6043 -0.3664
   26CHL1  H23A 1910   4.927   3.642   9.144  2.9109  1.0743 -1.0652
   26CHL1  H23B 1911   4.787   3.726   9.054 -0.5394 -0.5830  0.2997
   26CHL1   C24 1912   4.931   3.622   8.927  0.5279 -0.4548 -0.0980
   26CHL1  H24A 1913   4.894   3.677   8.839  1.3191  1.2990  0.6271
   26CHL1  H24B 1914   5.041   3.621   8.942  0.5159  0.1193  0.0347
   26CHL1   C25 1915   4.886   3.472   8.910 -0.4998 -0.2721 -0.2570
   26CHL1   H25 1916   4.924   3.419   8.999  1.5642  1.2474 -0.1700
   26CHL1   C26 1917   4.734   3.464   8.900 -0.2877  0.4295  0.6202
   26CHL1  H26A 1918   4.699   3.494   8.799 -0.3382 -0.2533  0.4284
   26CHL1  H26B 1919   4.696   3.359   8.900 -0.1987  0.3960 -0.0490
   26CHL1  H26C 1920   4.700   3.523   8.987  0.1313 -0.1869  1.2162
   26CHL1   C27 1921   4.952   3.419   8.781  0.0258 -0.5076 -0.6148
   26CHL1  H27A 1922   5.062   3.432   8.785  0.2693 -2.2861 -0.7555
   26CHL1  H27B 1923   4.928   3.311   8.776  1.0169 -0.7371 -0.5245
   26CHL1  H27C 1924   4.916   3.466   8.687 -1.1649  2.8036  1.3292
   27CHL1    C3 1925   4.789   1.823  10.281 -0.0917  0.3313  0.0681
   27CHL1    H3 1926   4.891   1.864  10.296 -0.4035  0.7265  1.1591
   27CHL1    O3 1927   4.739   1.816  10.417 -0.2971  0.3397  0.2731
   27CHL1   H3' 1928   4.656   1.768  10.417 -0.1904  0.1361  1.6276
   27CHL1    C4 1929   4.706   1.917  10.192 -0.7178  0.6083  0.7920
   27CHL1   H4A 1930   4.599   1.888  10.193  0.1160 -2.8073  2.2503
   27CHL1   H4B 1931   4.712   2.024  10.222  0.6775  0.8797 -0.3138
   27CHL1    C5 1932   4.770   1.905  10.049 -0.1185  0.9004  0.0329
   27CHL1    C6 1933   4.811   2.016   9.993 -0.5375  0.4771  0.2293
   27CHL1    H6 1934   4.801   2.111  10.048  1.7972  0.9712 -0.0645
   27CHL1    C7 1935   4.874   2.026   9.855  0.2466  0.5595 -0.2146
   27CHL1   H7A 1936   4.847   2.128   9.820 -0.1401  0.8817  0.9603
   27CHL1   H7B 1937   4.984   2.018   9.868  0.2574  0.0106 -0.6259
   27CHL1    C8 1938   4.827   1.917   9.766  0.1422  0.1827 -1.0697
   27CHL1    H8 1939   4.724   1.946   9.735 -0.2028 -0.0990 -0.2129
   27CHL1   C14 1940   4.909   1.901   9.641 -0.3968 -0.5753 -0.7009
   27CHL1   H14 1941   5.011   1.874   9.677  0.1491  3.1991  1.1548
   27CHL1   C15 1942   4.926   2.028   9.556 -0.1484 -0.2302  0.1450
   27CHL1  H15A 1943   4.833   2.088   9.549  0.5864  1.3861  2.7417
   27CHL1  H15B 1944   4.999   2.089   9.613 -2.0189 -0.1008  2.5307
   27CHL1   C16 1945   4.960   1.974   9.413 -0.1664  0.2898 -0.6084
   27CHL1  H16A 1946   4.882   2.010   9.343  0.6483 -1.0628 -2.2800
   27CHL1  H16B 1947   5.054   2.003   9.361  0.2547  1.1981  0.6140
   27CHL1   C17 1948   4.953   1.816   9.417  0.2923  0.5034  0.2271
   27CHL1   H17 1949   5.058   1.786   9.442  0.2276  0.0057 -0.0889
   27CHL1   C13 1950   4.870   1.791   9.538 -0.0602 -0.0311  0.2473
   27CHL1   C18 1951   4.728   1.823   9.503 -0.2482 -0.1498 -0.2096
   27CHL1  H18A 1952   4.709   1.926   9.466 -2.3481 -0.9627 -1.5704
   27CHL1  H18B 1953   4.699   1.756   9.418  0.0304 -0.3548 -0.1436
   27CHL1  H18C 1954   4.655   1.813   9.587  0.2515  0.7031  0.3430
   27CHL1   C12 1955   4.887   1.657   9.618  0.4255 -1.0396  0.0610
   27CHL1  H12A 1956   4.855   1.570   9.558 -0.9093  1.8988 -3.9792
   27CHL1  H12B 1957   4.996   1.647   9.633  0.8079  2.6704  0.9396
   27CHL1   C11 1958   4.815   1.658   9.754  0.1054  0.8702 -0.8285
   27CHL1  H11A 1959   4.710   1.632   9.731  0.0102 -0.0722  0.5725
   27CHL1  H11B 1960   4.840   1.570   9.816 -0.7703  0.1473 -1.4737
   27CHL1    C9 1961   4.841   1.782   9.842  0.0018  0.2121  0.5291
   27CHL1    H9 1962   4.949   1.781   9.869  0.2454 -0.7417 -0.4070
   27CHL1   C10 1963   4.777   1.768   9.984 -0.2351  0.0239  0.5143
   27CHL1   C19 1964   4.635   1.718   9.975  0.0721  0.1396 -0.3207
   27CHL1  H19A 1965   4.634   1.607   9.969  1.9232  0.1039 -0.4044
   27CHL1  H19B 1966   4.571   1.734  10.065 -1.9752 -1.0331 -1.4885
   27CHL1  H19C 1967   4.578   1.748   9.884  0.1588 -0.4948 -0.5908
   27CHL1    C1 1968   4.860   1.688  10.088 -0.2005  0.1012  0.8640
   27CHL1   H1A 1969   4.869   1.582  10.055 -0.5227  0.0742  0.8641
   27CHL1   H1B 1970   4.958   1.741  10.085 -0.4481  0.5884 -2.7231
   27CHL1    C2 1971   4.800   1.681  10.225  0.1991 -0.9188 -0.0846
   27CHL1   H2A 1972   4.861   1.619  10.295 -2.6703 -1.8098  1.7907
   27CHL1   H2B 1973   4.700   1.633  10.223  0.2760 -1.3517  2.6522
   27CHL1   C20 1974   4.926   1.746   9.284  0.2355 -0.3286 -0.0445
   27CHL1   H20 1975   4.841   1.805   9.244  2.1663  0.8606 -2.7532
   27CHL1   C21 1976   4.894   1.593   9.302 -1.1670 -0.3998 -0.2371
   27CHL1  H21A 1977   4.800   1.569   9.356  0.6224 -2.2968  2.2636
   27CHL1  H21B 1978   4.984   1.562   9.360 -0.1607  2.2894 -0.2231
   27CHL1  H21C 1979   4.889   1.542   9.203  0.2217  0.7301 -0.9381
   27CHL1   C22 1980   5.045   1.756   9.185  0.3848 -0.6519 -0.1206
   27CHL1  H22A 1981   5.135   1.759   9.250  0.1259  1.7040  0.2303
   27CHL1  H22B 1982   5.048   1.665   9.121 -1.3753 -0.5600 -0.4009
   27CHL1   C23 1983   5.032   1.887   9.097 -0.5882  0.5240  0.2665
   27CHL1  H23A 1984   5.006   1.969   9.168 -2.3305  0.2371  0.0143
   27CHL1  H23B 1985   5.131   1.907   9.051  0.9509 -0.9476  2.6965
   27CHL1   C24 1986   4.916   1.886   8.991 -0.1936 -0.0141  1.0312
   27CHL1  H24A 1987   4.954   1.803   8.929 -0.1459 -1.0826  2.4333
   27CHL1  H24B 1988   4.816   1.872   9.037 -2.7775  1.5934 -3.4963
   27CHL1   C25 1989   4.916   2.015   8.900 -0.2923  0.2671 -0.7870
   27CHL1   H25 1990   5.017   2.043   8.862 -0.2587 -0.5377 -1.3228
   27CHL1   C26 1991   4.825   1.996   8.775 -0.6065 -0.2487 -0.7224
   27CHL1  H26A 1992   4.849   1.912   8.706 -0.1101 -0.2762 -0.5158
   27CHL1  H26B 1993   4.717   1.980   8.797 -0.3449  1.0747  1.9039
   27CHL1  H26C 1994   4.827   2.092   8.720 -2.3352  0.1910 -0.0983
   27CHL1   C27 1995   4.868   2.130   8.987 -0.0422 -0.3746 -0.3945
   27CHL1  H27A 1996   4.849   2.226   8.933 -0.6145  0.3887  1.0763
   27CHL1  H27B 1997   4.784   2.098   9.053 -0.6552  0.5647 -0.6893
   27CHL1  H27C 1998   4.950   2.152   9.059  0.8537 -0.1437 -1.4722
   28CHL1    C3 1999   5.772   5.581  10.067  0.1965  0.1211  0.6976
   28CHL1    H3 2000   5.667   5.575  10.031  0.7255  1.1668 -1.1504
   28CHL1    O3 2001   5.766   5.578  10.205  0.0701 -1.0274  0.0586
   28CHL1   H3' 2002   5.852   5.544  10.230 -0.0481 -0.4574  1.3100
   28CHL1    C4 2003   5.859   5.463  10.007 -0.5182 -0.7533 -0.8968
   28CHL1   H4A 2004   5.958   5.466  10.057 -1.5085  0.0582  1.0826
   28CHL1   H4B 2005   5.813   5.368  10.042 -0.4612 -0.0803  1.1035
   28CHL1    C5 2006   5.864   5.470   9.861  1.1356 -0.3186  0.6865
   28CHL1    C6 2007   5.824   5.365   9.785  0.1330 -0.7046  1.4535
   28CHL1    H6 2008   5.773   5.282   9.838 -0.2096 -0.5859  1.3140
   28CHL1    C7 2009   5.829   5.362   9.634  0.2824  0.1064 -0.3337
   28CHL1   H7A 2010   5.867   5.264   9.597  0.7033  0.0057  0.3569
   28CHL1   H7B 2011   5.729   5.379   9.588 -0.1118 -2.2857 -0.4817
   28CHL1    C8 2012   5.914   5.483   9.574 -0.5868  0.6806  0.0517
   28CHL1    H8 2013   6.023   5.462   9.571 -0.3490  1.8428 -2.4001
   28CHL1   C14 2014   5.882   5.503   9.422  0.0219 -0.2572  0.4800
   28CHL1   H14 2015   5.771   5.510   9.420  0.0945  1.2938 -1.7555
   28CHL1   C15 2016   5.909   5.388   9.325  0.3295  0.3946 -0.2972
   28CHL1  H15A 2017   6.009   5.344   9.347  0.1661  0.1697 -0.0015
   28CHL1  H15B 2018   5.828   5.313   9.318 -0.4797  1.1739  0.5020
   28CHL1   C16 2019   5.913   5.455   9.184  0.0894  0.2679 -0.1066
   28CHL1  H16A 2020   6.010   5.447   9.130 -1.3416 -0.2627 -2.7543
   28CHL1  H16B 2021   5.832   5.415   9.120  0.7150 -1.5433  0.1943
   28CHL1   C17 2022   5.897   5.610   9.210  0.3155  0.2256  0.6258
   28CHL1   H17 2023   5.789   5.634   9.219  0.7682  2.4545  0.5398
   28CHL1   C13 2024   5.952   5.632   9.353  0.1395  0.0152 -0.2643
   28CHL1   C18 2025   6.103   5.610   9.345 -0.1582 -0.3843  0.0661
   28CHL1  H18A 2026   6.134   5.514   9.298 -2.0037 -0.5418 -0.9102
   28CHL1  H18B 2027   6.151   5.689   9.283 -0.7740 -0.0786 -0.0238
   28CHL1  H18C 2028   6.146   5.609   9.448 -0.1274  1.9103  0.1242
   28CHL1   C12 2029   5.913   5.759   9.426 -0.9229  1.1574  0.4532
   28CHL1  H12A 2030   5.990   5.836   9.405  1.3908 -0.5968  2.0386
   28CHL1  H12B 2031   5.806   5.788   9.412 -0.7280  0.8977 -2.0976
   28CHL1   C11 2032   5.945   5.741   9.574 -0.7856  0.0869  0.2505
   28CHL1  H11A 2033   6.055   5.740   9.583 -0.7239  0.6701 -0.3736
   28CHL1  H11B 2034   5.914   5.833   9.628 -1.6615 -1.3488  2.3599
   28CHL1    C9 2035   5.883   5.616   9.641  0.0726  1.1785 -0.5230
   28CHL1    H9 2036   5.773   5.632   9.640 -0.1467  0.5149  2.5566
   28CHL1   C10 2037   5.916   5.601   9.795 -0.3658  0.3781 -0.9945
   28CHL1   C19 2038   6.070   5.604   9.814  0.5420 -0.1443  0.1284
   28CHL1  H19A 2039   6.130   5.525   9.763  1.1816 -0.1446  0.8670
   28CHL1  H19B 2040   6.110   5.707   9.798 -0.0276  0.1823  0.7733
   28CHL1  H19C 2041   6.090   5.600   9.923 -1.9747  0.8587  0.6942
   28CHL1    C1 2042   5.842   5.721   9.873  0.2142  0.6509  0.5085
   28CHL1   H1A 2043   5.888   5.816   9.841 -1.8335  1.6558  0.3593
   28CHL1   H1B 2044   5.739   5.716   9.831  0.9553 -0.6667 -1.2434
   28CHL1    C2 2045   5.827   5.717  10.025  0.6173  0.5709 -0.5848
   28CHL1   H2A 2046   5.762   5.802  10.055  0.8667  1.4833 -2.5110
   28CHL1   H2B 2047   5.924   5.739  10.074 -0.1838 -0.7389  1.7737
   28CHL1   C20 2048   5.950   5.691   9.086 -0.3754 -0.1383  0.5513
   28CHL1   H20 2049   6.058   5.675   9.063 -0.9441  0.0266 -2.8081
   28CHL1   C21 2050   5.927   5.839   9.109  0.4733  0.6725 -0.4889
   28CHL1  H21A 2051   5.952   5.885   9.011 -0.8618 -1.5972 -1.9809
   28CHL1  H21B 2052   5.990   5.870   9.195 -0.1780 -0.2740  0.3440
   28CHL1  H21C 2053   5.824   5.865   9.141  0.7903  0.0017  1.1350
   28CHL1   C22 2054   5.879   5.644   8.956 -0.2738 -0.0340  0.5098
   28CHL1  H22A 2055   5.888   5.534   8.950 -0.8088 -0.1090  0.9889
   28CHL1  H22B 2056   5.775   5.675   8.979  0.3769  1.2124  1.9496
   28CHL1   C23 2057   5.932   5.703   8.825 -0.2023 -0.4402 -0.2936
   28CHL1  H23A 2058   5.904   5.810   8.821 -1.6086 -0.7745  0.1106
   28CHL1  H23B 2059   6.041   5.684   8.819  0.0024  0.1684  1.2209
   28CHL1   C24 2060   5.884   5.636   8.700  0.0279  0.3817  0.4468
   28CHL1  H24A 2061   5.933   5.536   8.690  1.9034  1.2778  0.2689
   28CHL1  H24B 2062   5.780   5.614   8.731  0.1618  0.5186  1.0033
   28CHL1   C25 2063   5.914   5.712   8.565 -0.7548  0.3145 -0.0054
   28CHL1   H25 2064   5.868   5.813   8.565  0.5487  0.9330 -0.4829
   28CHL1   C26 2065   6.066   5.724   8.548  0.3193  0.3144 -0.0676
   28CHL1  H26A 2066   6.113   5.758   8.643  1.8615 -0.0600 -0.6660
   28CHL1  H26B 2067   6.099   5.618   8.542 -0.8561 -0.2973  2.7056
   28CHL1  H26C 2068   6.104   5.787   8.465  1.4715 -0.8681 -0.4879
   28CHL1   C27 2069   5.853   5.631   8.449  0.0866 -0.4807  0.3434
   28CHL1  H27A 2070   5.889   5.677   8.354  0.2598  3.2469  2.0807
   28CHL1  H27B 2071   5.880   5.523   8.443 -0.0072 -0.4440 -1.1867
   28CHL1  H27C 2072   5.744   5.648   8.436  0.7671  2.3458 -3.4716
   29CHL1    C3 2073   0.287   2.895   6.698  0.1993  0.5754  0.3630
   29CHL1    H3 2074   0.313   3.003   6.700 -1.0863  0.8913  0.8016
   29CHL1    O3 2075   0.289   2.850   6.565 -0.5312 -0.7796 -0.1652
   29CHL1   H3' 2076   0.200   2.841   6.531 -0.4220 -1.9326 -0.1864
   29CHL1    C4 2077   0.394   2.813   6.764  0.1774 -1.0398  0.1490
   29CHL1   H4A 2078   0.393   2.704   6.742  0.0388 -0.4273 -3.3667
   29CHL1   H4B 2079   0.491   2.843   6.720  0.0675 -1.4166 -0.3500
   29CHL1    C5 2080   0.391   2.839   6.918  0.0416 -0.5639 -0.4397
   29CHL1    C6 2081   0.501   2.885   6.978  0.3565  0.7334  0.4804
   29CHL1    H6 2082   0.594   2.892   6.919 -1.2051  0.9957 -2.1197
   29CHL1    C7 2083   0.513   2.915   7.126  0.2146 -0.2009 -0.2689
   29CHL1   H7A 2084   0.599   2.868   7.177 -1.7770 -2.2715  1.4291
   29CHL1   H7B 2085   0.512   3.025   7.135  1.7842 -0.2335  0.7673
   29CHL1    C8 2086   0.391   2.859   7.207 -0.0051  0.3930  0.3408
   29CHL1    H8 2087   0.400   2.750   7.226 -1.3034  0.1389 -0.3499
   29CHL1   C14 2088   0.378   2.921   7.350 -0.0107  0.3139  0.2458
   29CHL1   H14 2089   0.349   3.028   7.342 -1.0838 -0.0544 -1.3706
   29CHL1   C15 2090   0.502   2.915   7.439  1.0679  0.5167  0.2159
   29CHL1  H15A 2091   0.552   2.816   7.436  0.7024  0.2284  2.0622
   29CHL1  H15B 2092   0.571   2.998   7.414 -0.6850  1.3364 -2.2567
   29CHL1   C16 2093   0.450   2.939   7.584 -0.4996 -0.1570  0.2685
   29CHL1  H16A 2094   0.481   2.850   7.642  0.8245 -0.2423 -0.5388
   29CHL1  H16B 2095   0.489   3.032   7.632 -1.4717  0.0518  0.6755
   29CHL1   C17 2096   0.290   2.958   7.568  0.7309  0.3390  0.3159
   29CHL1   H17 2097   0.262   3.062   7.542 -0.3046  0.1170  0.5180
   29CHL1   C13 2098   0.260   2.874   7.437 -1.2045 -0.2056  0.2202
   29CHL1   C18 2099   0.283   2.723   7.460 -0.3135 -0.9881 -0.0658
   29CHL1  H18A 2100   0.200   2.698   7.529  0.5522 -0.3449  1.2518
   29CHL1  H18B 2101   0.288   2.650   7.376  3.8475 -0.8855 -0.1058
   29CHL1  H18C 2102   0.379   2.708   7.515  0.9433  1.5648 -1.3896
   29CHL1   C12 2103   0.134   2.900   7.355  0.0568 -0.8527 -0.2946
   29CHL1  H12A 2104   0.045   2.874   7.417  0.4138 -1.1060  0.1134
   29CHL1  H12B 2105   0.137   3.010   7.345  0.4132 -0.7061  1.2252
   29CHL1   C11 2106   0.127   2.846   7.213 -1.1074 -0.6981 -0.7733
   29CHL1  H11A 2107   0.130   2.735   7.216 -0.6451 -0.7315 -1.8354
   29CHL1  H11B 2108   0.035   2.884   7.165 -0.3963 -1.2196 -2.6659
   29CHL1    C9 2109   0.255   2.878   7.130 -0.7986  0.3908  0.0427
   29CHL1    H9 2110   0.252   2.989   7.119  0.5692  0.5012  0.6274
   29CHL1   C10 2111   0.253   2.823   6.995 -0.0469  0.1197  0.8712
   29CHL1   C19 2112   0.237   2.668   7.004  0.6318 -0.4676 -0.1852
   29CHL1  H19A 2113   0.287   2.612   7.085  0.4946  1.7421  1.5393
   29CHL1  H19B 2114   0.127   2.649   7.010 -0.1771  3.4283  0.1063
   29CHL1  H19C 2115   0.243   2.619   6.904 -0.1047  2.4093 -1.7496
   29CHL1    C1 2116   0.147   2.896   6.907  0.3668 -0.5960 -0.8744
   29CHL1   H1A 2117   0.048   2.869   6.949 -0.0615  1.6856 -0.3288
   29CHL1   H1B 2118   0.161   3.005   6.922  0.9119 -0.5122 -1.8715
   29CHL1    C2 2119   0.148   2.866   6.755 -0.3042  0.1511 -0.1212
   29CHL1   H2A 2120   0.071   2.924   6.700  1.7224 -0.4152 -3.8930
   29CHL1   H2B 2121   0.117   2.760   6.743 -1.6040  0.3973  0.8718
   29CHL1   C20 2122   0.221   2.913   7.697  0.2077  0.1873 -0.0513
   29CHL1   H20 2123   0.223   2.803   7.708  0.0717  0.1140 -0.7136
   29CHL1   C21 2124   0.070   2.955   7.680  0.1619 -0.0132  0.5689
   29CHL1  H21A 2125   0.007   2.904   7.604 -1.4838  0.3860  1.5907
   29CHL1  H21B 2126   0.074   3.060   7.645  0.2073 -0.2133 -0.0351
   29CHL1  H21C 2127   0.015   2.955   7.777 -1.1334 -1.0506 -0.1254
   29CHL1   C22 2128   0.287   2.976   7.817  0.0054  0.8146 -0.5013
   29CHL1  H22A 2129   0.388   2.932   7.829 -0.8332 -1.0651 -0.0823
   29CHL1  H22B 2130   0.301   3.082   7.785 -0.7191  1.7812  2.1491
   29CHL1   C23 2131   0.222   2.974   7.963  0.4345 -0.1488 -0.3797
   29CHL1  H23A 2132   0.120   3.019   7.967  0.9469  0.9922  0.7075
   29CHL1  H23B 2133   0.209   2.865   7.980  1.1779 -0.0693  0.8676
   29CHL1   C24 2134   0.291   3.041   8.081  0.7482 -0.5403 -0.0911
   29CHL1  H24A 2135   0.397   3.015   8.064  0.7558 -1.3003  1.0301
   29CHL1  H24B 2136   0.276   3.152   8.077  0.3650 -0.5685 -4.7001
   29CHL1   C25 2137   0.244   3.001   8.227 -0.8820  1.1543  0.8783
   29CHL1   H25 2138   0.139   2.965   8.232 -0.3696 -0.3692  1.3137
   29CHL1   C26 2139   0.321   2.864   8.248  0.0253  0.4076  0.7702
   29CHL1  H26A 2140   0.287   2.790   8.173 -1.9491  1.6734  0.3510
   29CHL1  H26B 2141   0.431   2.884   8.245  0.1449  0.1331  2.3773
   29CHL1  H26C 2142   0.289   2.821   8.345  0.7096 -1.2347  0.2980
   29CHL1   C27 2143   0.266   3.108   8.338 -0.3567  0.6944  0.1093
   29CHL1  H27A 2144   0.366   3.097   8.384  0.3950 -1.9207 -1.9253
   29CHL1  H27B 2145   0.243   3.211   8.302  0.4375  1.3779  1.4588
   29CHL1  H27C 2146   0.199   3.075   8.420  1.1965 -2.8634  0.1162
   30CHL1    C3 2147   4.006   1.562   7.267  0.2307  0.4892 -0.0712
   30CHL1    H3 2148   4.102   1.601   7.305  1.1488  0.6230 -2.3715
   30CHL1    O3 2149   4.007   1.556   7.128 -0.2101  0.3446  0.1310
   30CHL1   H3' 2150   4.019   1.640   7.084  0.5714  1.0055  1.5239
   30CHL1    C4 2151   3.971   1.428   7.333  0.1514  1.0804  0.1578
   30CHL1   H4A 2152   3.876   1.392   7.287 -1.5846  1.2895  3.3221
   30CHL1   H4B 2153   4.045   1.351   7.303 -1.2483 -0.1704 -0.2322
   30CHL1    C5 2154   3.953   1.426   7.486 -0.2154  0.4125 -0.2896
   30CHL1    C6 2155   4.021   1.343   7.570  0.2441 -0.3781 -0.0435
   30CHL1    H6 2156   4.087   1.267   7.525  2.5002  1.7090 -0.4669
   30CHL1    C7 2157   4.002   1.340   7.717 -0.7136 -0.6156 -0.6308
   30CHL1   H7A 2158   4.012   1.238   7.759 -0.2316 -0.2590  0.1538
   30CHL1   H7B 2159   4.089   1.403   7.748  0.5647 -1.0385 -3.0914
   30CHL1    C8 2160   3.877   1.417   7.770  0.2468 -0.1963 -0.3171
   30CHL1    H8 2161   3.788   1.353   7.755 -0.1335 -0.0214  1.0640
   30CHL1   C14 2162   3.890   1.449   7.923 -0.1606  0.0743  0.1988
   30CHL1   H14 2163   3.980   1.514   7.928  0.2347 -0.1583 -2.7045
   30CHL1   C15 2164   3.919   1.335   8.022  0.2309 -0.6253  0.6414
   30CHL1  H15A 2165   3.865   1.239   8.009 -1.3617  0.2459  0.5648
   30CHL1  H15B 2166   4.029   1.324   8.014  0.2721  1.0332 -2.3581
   30CHL1   C16 2167   3.880   1.394   8.164  0.0446  0.0718 -1.0584
   30CHL1  H16A 2168   3.809   1.319   8.205 -0.2312  0.4386 -0.8528
   30CHL1  H16B 2169   3.974   1.394   8.223 -0.5859 -1.4729  0.0055
   30CHL1   C17 2170   3.819   1.537   8.136 -0.9535 -0.1900  0.2278
   30CHL1   H17 2171   3.898   1.615   8.136 -0.0387 -1.0163 -2.2651
   30CHL1   C13 2172   3.773   1.524   7.991  0.3602  0.6840  0.6497
   30CHL1   C18 2173   3.644   1.431   7.981 -0.1455 -0.2534 -0.1952
   30CHL1  H18A 2174   3.645   1.345   8.051  0.0655 -0.8819 -0.9592
   30CHL1  H18B 2175   3.553   1.491   8.003 -0.9403 -2.1768  2.1917
   30CHL1  H18C 2176   3.628   1.377   7.886 -1.6974 -0.4689  0.1588
   30CHL1   C12 2177   3.763   1.650   7.910 -0.6460 -0.3810 -0.8160
   30CHL1  H12A 2178   3.686   1.721   7.947  0.0299 -0.4167  0.7380
   30CHL1  H12B 2179   3.860   1.704   7.916 -0.8315 -0.1509  0.4019
   30CHL1   C11 2180   3.744   1.627   7.757 -0.2349 -0.3998 -0.1766
   30CHL1  H11A 2181   3.654   1.563   7.741 -0.9411  0.8024 -1.1940
   30CHL1  H11B 2182   3.734   1.727   7.711  2.1976  1.3296  2.7234
   30CHL1    C9 2183   3.861   1.551   7.693 -0.4872 -0.1226  0.5793
   30CHL1    H9 2184   3.955   1.609   7.709  0.1303 -1.6420  3.0299
   30CHL1   C10 2185   3.855   1.532   7.541  0.6138 -0.1271  0.1093
   30CHL1   C19 2186   3.714   1.480   7.493  0.7110 -0.3482 -0.6309
   30CHL1  H19A 2187   3.643   1.556   7.532  0.4711 -1.1362  0.5216
   30CHL1  H19B 2188   3.706   1.476   7.382 -3.1169 -0.3705 -0.5176
   30CHL1  H19C 2189   3.698   1.380   7.538 -0.5746  0.8896  1.9054
   30CHL1    C1 2190   3.880   1.669   7.465  0.9479 -0.7187 -0.1418
   30CHL1   H1A 2191   3.800   1.741   7.492  0.0300 -1.6970 -0.1899
   30CHL1   H1B 2192   3.978   1.709   7.497  2.1875 -1.5149 -2.6354
   30CHL1    C2 2193   3.894   1.656   7.309 -0.2630 -0.0144  0.1423
   30CHL1   H2A 2194   3.902   1.760   7.270 -1.5203  0.2100  0.4322
   30CHL1   H2B 2195   3.796   1.618   7.273 -0.1091  0.0187 -0.3147
   30CHL1   C20 2196   3.717   1.592   8.236  0.5267  0.2843  0.0899
   30CHL1   H20 2197   3.632   1.521   8.238  0.1143  0.7389  2.4971
   30CHL1   C21 2198   3.659   1.732   8.208  0.2033  0.3555 -0.1177
   30CHL1  H21A 2199   3.606   1.779   8.294  2.3607  2.9413 -0.0536
   30CHL1  H21B 2200   3.589   1.733   8.122 -1.1303 -2.6843  0.7973
   30CHL1  H21C 2201   3.739   1.805   8.180 -0.1905  0.2267 -1.6589
   30CHL1   C22 2202   3.770   1.586   8.383 -0.3261  0.0771 -0.4286
   30CHL1  H22A 2203   3.860   1.522   8.396 -0.7142 -0.1613  1.1874
   30CHL1  H22B 2204   3.791   1.690   8.416 -2.7565  0.3474  0.4627
   30CHL1   C23 2205   3.661   1.541   8.474  0.6244  0.2462 -0.0110
   30CHL1  H23A 2206   3.565   1.595   8.458  0.6764  0.4066  0.2172
   30CHL1  H23B 2207   3.633   1.436   8.451  0.2641  0.0648  1.2316
   30CHL1   C24 2208   3.685   1.562   8.625  0.7462 -0.0583 -0.2354
   30CHL1  H24A 2209   3.762   1.489   8.660  0.3808 -0.2007  0.2840
   30CHL1  H24B 2210   3.731   1.659   8.654  0.6001 -0.5691  1.8819
   30CHL1   C25 2211   3.559   1.547   8.715 -0.0563 -0.5175  0.3422
   30CHL1   H25 2212   3.487   1.621   8.674  0.8726 -0.4085 -1.1539
   30CHL1   C26 2213   3.482   1.416   8.696 -0.1608 -0.3675 -0.6730
   30CHL1  H26A 2214   3.450   1.400   8.591 -2.0638 -2.0275  0.0974
   30CHL1  H26B 2215   3.551   1.339   8.735 -0.4593 -0.5929 -0.5843
   30CHL1  H26C 2216   3.392   1.397   8.759 -0.8186 -0.4108 -1.6046
   30CHL1   C27 2217   3.582   1.573   8.862 -0.5666  0.5094 -0.0535
   30CHL1  H27A 2218   3.487   1.576   8.919  0.2314 -2.7669  1.7025
   30CHL1  H27B 2219   3.640   1.491   8.909  0.4878  1.2094 -0.1075
   30CHL1  H27C 2220   3.632   1.668   8.889 -1.6879  0.5890  1.9432
   31CHL1    C3 2221   4.593   3.685   6.792  0.1287  0.0563  0.0024
   31CHL1    H3 2222   4.583   3.796   6.793  1.5453  0.1968  0.3235
   31CHL1    O3 2223   4.610   3.651   6.655 -0.2049  0.1540  0.0544
   31CHL1   H3' 2224   4.628   3.557   6.654  0.9126  0.2853 -3.1707
   31CHL1    C4 2225   4.717   3.651   6.875  0.0834 -0.4103 -0.4428
   31CHL1   H4A 2226   4.754   3.549   6.848 -2.1281 -0.6219 -3.1790
   31CHL1   H4B 2227   4.795   3.725   6.844 -0.0283  0.3879  1.1167
   31CHL1    C5 2228   4.704   3.673   7.025 -0.1889  0.1190 -0.6442
   31CHL1    C6 2229   4.786   3.752   7.099  0.1790  0.0008 -0.0909
   31CHL1    H6 2230   4.865   3.812   7.051  1.5314 -1.2822  0.4384
   31CHL1    C7 2231   4.765   3.769   7.249 -0.2974 -0.1692 -0.1191
   31CHL1   H7A 2232   4.865   3.790   7.292 -1.2409  0.4959  1.8903
   31CHL1   H7B 2233   4.696   3.853   7.273  0.1771  0.0429  0.5262
   31CHL1    C8 2234   4.686   3.645   7.309 -0.0155  0.1011 -0.1682
   31CHL1    H8 2235   4.748   3.554   7.298 -0.5004 -0.8216  3.5250
   31CHL1   C14 2236   4.659   3.677   7.457 -0.6349 -0.1737 -0.0961
   31CHL1   H14 2237   4.607   3.775   7.457  2.8831  1.8787  0.4217
   31CHL1   C15 2238   4.780   3.705   7.550  0.3016 -0.8086 -0.7008
   31CHL1  H15A 2239   4.858   3.633   7.517  0.7021 -0.7079 -0.0035
   31CHL1  H15B 2240   4.824   3.806   7.533  1.8261 -1.3873 -0.4200
   31CHL1   C16 2241   4.731   3.680   7.693  0.0940 -0.2213 -0.1682
   31CHL1  H16A 2242   4.802   3.609   7.742  0.3269  0.6045  0.7332
   31CHL1  H16B 2243   4.734   3.778   7.745  2.4656  0.0818 -0.7443
   31CHL1   C17 2244   4.579   3.628   7.679  0.7689  0.0957  0.5663
   31CHL1   H17 2245   4.516   3.719   7.679 -0.6975 -0.8665 -1.0963
   31CHL1   C13 2246   4.577   3.571   7.533 -0.6737  0.0543 -0.1537
   31CHL1   C18 2247   4.652   3.430   7.539 -0.7599 -0.0722  0.0252
   31CHL1  H18A 2248   4.692   3.399   7.440  0.8340  1.8483  0.0244
   31CHL1  H18B 2249   4.740   3.427   7.606  0.0932 -1.5419 -1.0900
   31CHL1  H18C 2250   4.587   3.346   7.574 -1.0436 -0.6562 -1.7930
   31CHL1   C12 2251   4.444   3.562   7.460 -0.1891 -0.1637 -0.4057
   31CHL1  H12A 2252   4.387   3.475   7.501  0.6224 -0.5989 -0.1686
   31CHL1  H12B 2253   4.383   3.653   7.480 -0.5612 -0.1450 -1.5578
   31CHL1   C11 2254   4.462   3.526   7.311 -0.1117 -0.2453 -0.8915
   31CHL1  H11A 2255   4.504   3.424   7.301  1.5713  0.2842  0.1183
   31CHL1  H11B 2256   4.366   3.528   7.256 -0.4906  3.8506 -0.4495
   31CHL1    C9 2257   4.558   3.623   7.237 -0.4319  0.2680 -0.1391
   31CHL1    H9 2258   4.499   3.718   7.235  2.5973  2.2598 -1.1596
   31CHL1   C10 2259   4.586   3.594   7.087  0.0706 -0.3120  0.8124
   31CHL1   C19 2260   4.611   3.444   7.071  0.0815 -0.8736  0.3758
   31CHL1  H19A 2261   4.695   3.414   7.137  1.0338 -1.4242 -1.0436
   31CHL1  H19B 2262   4.519   3.388   7.101 -1.5079  1.5449  0.2921
   31CHL1  H19C 2263   4.641   3.415   6.969  1.6653 -1.0976  0.8882
   31CHL1    C1 2264   4.455   3.643   7.003 -0.3707 -0.3947 -0.3910
   31CHL1   H1A 2265   4.358   3.606   7.044 -0.5829 -0.8335 -1.2749
   31CHL1   H1B 2266   4.457   3.752   7.026  2.4778 -0.4287 -0.1674
   31CHL1    C2 2267   4.464   3.624   6.851  0.5187 -1.0198 -0.4305
   31CHL1   H2A 2268   4.381   3.667   6.791  1.7178  1.3408 -0.5178
   31CHL1   H2B 2269   4.464   3.515   6.831  0.5802 -1.3165  1.0699
   31CHL1   C20 2270   4.542   3.542   7.799 -0.3429  0.0659  0.9074
   31CHL1   H20 2271   4.612   3.457   7.810 -1.1284 -0.5611  1.1388
   31CHL1   C21 2272   4.403   3.475   7.775 -0.4861 -0.1260  0.5774
   31CHL1  H21A 2273   4.396   3.386   7.708 -1.3036 -0.6360  1.3155
   31CHL1  H21B 2274   4.333   3.553   7.739  1.4466  0.6789 -1.7151
   31CHL1  H21C 2275   4.360   3.447   7.874 -2.8017  2.6114  0.4678
   31CHL1   C22 2276   4.551   3.621   7.929 -0.1991  0.1592  0.4398
   31CHL1  H22A 2277   4.645   3.681   7.925 -0.2789  0.3479  1.2019
   31CHL1  H22B 2278   4.475   3.702   7.929  0.1698  0.5231 -0.2383
   31CHL1   C23 2279   4.556   3.550   8.060  0.5503  0.2598 -0.1178
   31CHL1  H23A 2280   4.452   3.512   8.067  0.6911 -0.5367 -1.9196
   31CHL1  H23B 2281   4.622   3.461   8.056  0.9041  0.4262  1.4297
   31CHL1   C24 2282   4.600   3.636   8.180 -0.8449 -0.1942  1.3181
   31CHL1  H24A 2283   4.702   3.670   8.152 -0.5546  0.7156  3.3293
   31CHL1  H24B 2284   4.546   3.733   8.183  0.7606  0.9488 -1.5582
   31CHL1   C25 2285   4.587   3.576   8.325 -0.1746  0.4749  0.1698
   31CHL1   H25 2286   4.614   3.658   8.395  1.8571  0.7727 -0.8712
   31CHL1   C26 2287   4.440   3.551   8.358  0.5551 -0.1131 -0.3188
   31CHL1  H26A 2288   4.405   3.488   8.273 -0.6731 -0.4791  0.4363
   31CHL1  H26B 2289   4.432   3.497   8.455  0.0427 -0.3216 -0.4753
   31CHL1  H26C 2290   4.382   3.646   8.359  0.0309 -0.3431  3.0419
   31CHL1   C27 2291   4.676   3.452   8.357  0.6538  0.1802 -0.4247
   31CHL1  H27A 2292   4.670   3.439   8.468  0.1138  1.1580 -0.3303
   31CHL1  H27B 2293   4.779   3.471   8.321  0.9379 -2.6651 -1.3832
   31CHL1  H27C 2294   4.634   3.361   8.310 -0.8694  0.4580  0.3171
   32CHL1    C3 2295   4.675   2.188   6.874 -0.1733 -0.3420  0.4962
   32CHL1    H3 2296   4.755   2.110   6.878  0.1763  0.0567  2.1315
   32CHL1    O3 2297   4.652   2.215   6.737 -0.5980  0.0483 -0.0096
   32CHL1   H3' 2298   4.678   2.138   6.685  0.0137 -0.7005  1.3543
   32CHL1    C4 2299   4.554   2.128   6.938  0.9459  0.2830  0.0316
   32CHL1   H4A 2300   4.461   2.186   6.923  0.7434 -0.6191 -2.5355
   32CHL1   H4B 2301   4.524   2.038   6.882 -1.7809  2.5275 -2.4296
   32CHL1    C5 2302   4.563   2.103   7.090 -0.2607  0.0473  0.8478
   32CHL1    C6 2303   4.534   1.987   7.143  0.4655 -0.0046  0.0977
   32CHL1    H6 2304   4.518   1.899   7.078 -4.2337  0.0385  0.8875
   32CHL1    C7 2305   4.532   1.965   7.287 -0.0266 -0.7052 -0.0969
   32CHL1   H7A 2306   4.433   1.917   7.302  0.9386 -3.1620 -1.0161
   32CHL1   H7B 2307   4.613   1.898   7.323  2.1882  1.9176  0.1755
   32CHL1    C8 2308   4.546   2.091   7.371 -0.1387 -0.4430 -0.8122
   32CHL1    H8 2309   4.445   2.136   7.384 -0.7329 -2.0280  0.3716
   32CHL1   C14 2310   4.617   2.050   7.504 -0.0839  0.2162 -0.4857
   32CHL1   H14 2311   4.727   2.043   7.488 -0.0057 -0.8473  0.4059
   32CHL1   C15 2312   4.576   1.927   7.584  0.2391 -0.1373  0.0996
   32CHL1  H15A 2313   4.466   1.918   7.571 -0.1262  2.0751  1.1531
   32CHL1  H15B 2314   4.627   1.831   7.560  0.3269 -0.5932  2.0052
   32CHL1   C16 2315   4.610   1.967   7.728  0.3102  0.2212  0.3793
   32CHL1  H16A 2316   4.511   1.977   7.776 -0.4290  2.1725 -1.4090
   32CHL1  H16B 2317   4.673   1.888   7.774  0.0756 -1.4440 -1.9544
   32CHL1   C17 2318   4.681   2.103   7.729 -0.1133  0.6466  0.6180
   32CHL1   H17 2319   4.787   2.087   7.698 -1.1299  0.5888 -3.3853
   32CHL1   C13 2320   4.618   2.167   7.603  0.0128  0.2382  0.2656
   32CHL1   C18 2321   4.468   2.214   7.622  0.3158  0.2146 -0.5784
   32CHL1  H18A 2322   4.454   2.264   7.721  0.2302  0.7606 -0.8619
   32CHL1  H18B 2323   4.427   2.277   7.541 -1.0927 -0.7667 -0.6745
   32CHL1  H18C 2324   4.402   2.126   7.643  0.2331  0.6112  0.9970
   32CHL1   C12 2325   4.712   2.276   7.544  0.0509 -0.1782  0.3470
   32CHL1  H12A 2326   4.706   2.362   7.614 -1.1128 -1.3782  1.8013
   32CHL1  H12B 2327   4.818   2.244   7.535 -0.5320 -1.9431 -0.7687
   32CHL1   C11 2328   4.666   2.316   7.397 -0.3104  0.4356 -0.1983
   32CHL1  H11A 2329   4.574   2.378   7.411 -1.4403 -1.4751  1.3046
   32CHL1  H11B 2330   4.745   2.375   7.345 -0.9086 -0.1478 -1.8446
   32CHL1    C9 2331   4.639   2.190   7.306  0.4895  0.2818  0.3911
   32CHL1    H9 2332   4.733   2.135   7.286  0.0900  0.3262 -1.8135
   32CHL1   C10 2333   4.597   2.231   7.164 -0.0184  0.6039  0.8517
   32CHL1   C19 2334   4.494   2.349   7.167  0.4379 -0.5500  0.1732
   32CHL1  H19A 2335   4.458   2.355   7.061  1.8016 -2.9567 -0.5023
   32CHL1  H19B 2336   4.411   2.322   7.236  0.3272  0.2418  0.3496
   32CHL1  H19C 2337   4.554   2.442   7.171  0.9940 -0.7379 -2.2130
   32CHL1    C1 2338   4.731   2.273   7.097  0.6436 -0.1352 -0.2210
   32CHL1   H1A 2339   4.762   2.367   7.148 -0.9790 -0.9754  2.5208
   32CHL1   H1B 2340   4.808   2.192   7.098  0.7060 -0.0754  0.1935
   32CHL1    C2 2341   4.717   2.307   6.947  0.3409 -0.3913  0.1177
   32CHL1   H2A 2342   4.822   2.322   6.916  0.1405  3.3175  0.7027
   32CHL1   H2B 2343   4.646   2.388   6.918 -0.1168 -1.0040 -0.5242
   32CHL1   C20 2344   4.665   2.173   7.865 -0.2308  0.2962 -0.4340
   32CHL1   H20 2345   4.582   2.247   7.868  0.0323  0.6018 -0.6303
   32CHL1   C21 2346   4.796   2.254   7.895  0.7314 -0.4225  0.7690
   32CHL1  H21A 2347   4.773   2.335   7.968  0.7173  1.5316 -1.2885
   32CHL1  H21B 2348   4.826   2.311   7.805 -1.3379 -2.2694 -1.2173
   32CHL1  H21C 2349   4.870   2.180   7.931  1.1184  0.1999  1.2760
   32CHL1   C22 2350   4.636   2.078   7.984 -0.1210 -0.0181 -0.3053
   32CHL1  H22A 2351   4.533   2.040   7.967 -0.3821  1.1541 -1.5687
   32CHL1  H22B 2352   4.706   1.992   7.990 -2.0119 -1.6688 -0.6223
   32CHL1   C23 2353   4.637   2.141   8.126 -0.4301 -0.2819  0.1053
   32CHL1  H23A 2354   4.743   2.148   8.161 -0.9867  0.1555  1.7797
   32CHL1  H23B 2355   4.591   2.242   8.130 -1.2786 -0.6547 -0.1619
   32CHL1   C24 2356   4.559   2.061   8.230  0.3935  0.7463 -0.2381
   32CHL1  H24A 2357   4.454   2.040   8.198  0.9623 -1.7387 -0.7179
   32CHL1  H24B 2358   4.610   1.963   8.243  0.9557  1.2125  1.2558
   32CHL1   C25 2359   4.560   2.124   8.371 -0.8533 -0.8898  0.0532
   32CHL1   H25 2360   4.528   2.230   8.364  2.2801  0.1587  0.1280
   32CHL1   C26 2361   4.467   2.045   8.454 -0.4340 -0.2278 -0.6238
   32CHL1  H26A 2362   4.509   1.942   8.461  0.2862  0.0955 -0.1027
   32CHL1  H26B 2363   4.457   2.078   8.559  1.4777 -0.4583 -0.3295
   32CHL1  H26C 2364   4.364   2.034   8.413  0.4060 -2.4307 -2.3923
   32CHL1   C27 2365   4.696   2.134   8.436 -0.8373  0.5597 -0.0052
   32CHL1  H27A 2366   4.755   2.040   8.435  0.4130  1.3203  0.0675
   32CHL1  H27B 2367   4.759   2.201   8.372  1.2060 -1.8132 -0.6594
   32CHL1  H27C 2368   4.699   2.168   8.541 -4.1009  0.2032  0.2918
   33CHL1    C3 2369   4.405   2.807   6.752 -0.4771 -0.2924  0.1379
   33CHL1    H3 2370   4.326   2.868   6.801 -0.0508  0.2038  0.2163
   33CHL1    O3 2371   4.379   2.787   6.615  0.3203 -0.3250 -0.0681
   33CHL1   H3' 2372   4.295   2.828   6.593  1.7927  0.7710 -4.9079
   33CHL1    C4 2373   4.539   2.884   6.761  0.4610  0.4379  0.3069
   33CHL1   H4A 2374   4.618   2.827   6.708 -0.8286 -0.1039 -1.1015
   33CHL1   H4B 2375   4.528   2.975   6.699 -1.8860  0.1829  0.2528
   33CHL1    C5 2376   4.601   2.906   6.898  0.6854  0.5070  0.1630
   33CHL1    C6 2377   4.639   3.027   6.947 -0.1573 -0.7281  0.3457
   33CHL1    H6 2378   4.642   3.114   6.879  3.9297 -1.9098 -1.2841
   33CHL1    C7 2379   4.669   3.056   7.092 -0.5730  0.1523  0.5450
   33CHL1   H7A 2380   4.756   3.125   7.095  1.0962 -1.8427  0.9384
   33CHL1   H7B 2381   4.589   3.110   7.147 -1.9280 -0.7062 -0.5072
   33CHL1    C8 2382   4.705   2.929   7.170 -0.2618 -0.4150  0.1730
   33CHL1    H8 2383   4.808   2.903   7.137  0.4599  1.1198  1.0547
   33CHL1   C14 2384   4.708   2.967   7.314 -0.3399 -0.1012 -1.6303
   33CHL1   H14 2385   4.609   3.001   7.349 -0.2033 -2.4221  1.4309
   33CHL1   C15 2386   4.803   3.079   7.359  0.1855  0.9143  0.2868
   33CHL1  H15A 2387   4.906   3.084   7.317 -0.4116  0.0917 -1.3656
   33CHL1  H15B 2388   4.773   3.181   7.327 -0.3442 -0.1381 -2.9522
   33CHL1   C16 2389   4.817   3.049   7.518 -0.2645 -0.2937 -0.1393
   33CHL1  H16A 2390   4.926   3.034   7.531 -0.4997 -0.7842  1.4869
   33CHL1  H16B 2391   4.781   3.127   7.589  0.1295 -0.6668  0.4786
   33CHL1   C17 2392   4.744   2.910   7.552 -0.1590 -0.1549  0.2696
   33CHL1   H17 2393   4.639   2.930   7.581  0.4408  0.5825  2.0818
   33CHL1   C13 2394   4.733   2.847   7.407 -0.8790  0.1061  0.7478
   33CHL1   C18 2395   4.866   2.790   7.357  0.7168 -0.2366  0.1484
   33CHL1  H18A 2396   4.899   2.703   7.418 -0.6617 -0.9665 -0.1112
   33CHL1  H18B 2397   4.859   2.750   7.254 -2.3515  0.4187  0.0266
   33CHL1  H18C 2398   4.945   2.868   7.359  0.5339 -0.0232 -0.7709
   33CHL1   C12 2399   4.620   2.739   7.385  0.0837  0.1102  1.4329
   33CHL1  H12A 2400   4.630   2.649   7.450 -0.8949 -1.3314 -0.3258
   33CHL1  H12B 2401   4.532   2.797   7.419  1.3241  1.1914  2.9417
   33CHL1   C11 2402   4.595   2.691   7.243  0.2213 -0.5453 -0.2130
   33CHL1  H11A 2403   4.679   2.625   7.211  0.0629 -1.0186  0.3501
   33CHL1  H11B 2404   4.494   2.644   7.244 -0.6149  1.1675 -0.6050
   33CHL1    C9 2405   4.602   2.820   7.143  0.3163 -0.3342  0.7515
   33CHL1    H9 2406   4.506   2.874   7.159 -0.2828 -1.3046  0.5670
   33CHL1   C10 2407   4.592   2.783   6.990 -0.9521 -0.6687  0.8081
   33CHL1   C19 2408   4.711   2.695   6.949  0.7983 -0.1277 -0.0487
   33CHL1  H19A 2409   4.693   2.671   6.842  0.0059 -1.4393  0.3590
   33CHL1  H19B 2410   4.813   2.736   6.966  0.5159  0.3277  0.5393
   33CHL1  H19C 2411   4.698   2.596   6.998 -0.2433  0.1573  0.2745
   33CHL1    C1 2412   4.462   2.712   6.968 -0.6065  0.5468 -0.8621
   33CHL1   H1A 2413   4.456   2.613   7.018  0.4132  0.4446 -0.9207
   33CHL1   H1B 2414   4.381   2.774   7.010  0.8885  2.6272 -0.8854
   33CHL1    C2 2415   4.418   2.676   6.822  0.2472  0.2603  0.3315
   33CHL1   H2A 2416   4.314   2.638   6.820  0.5145 -0.4691 -0.9807
   33CHL1   H2B 2417   4.483   2.604   6.769  2.3340  2.0227  0.3307
   33CHL1   C20 2418   4.821   2.835   7.664  0.2347  0.1623 -0.4931
   33CHL1   H20 2419   4.929   2.831   7.639  0.6509  0.6372  1.0847
   33CHL1   C21 2420   4.763   2.694   7.683  0.0929 -0.6795  0.6224
   33CHL1  H21A 2421   4.797   2.635   7.596  1.2520  0.1889  0.4585
   33CHL1  H21B 2422   4.654   2.699   7.704  0.0400  0.0171  0.2222
   33CHL1  H21C 2423   4.804   2.645   7.774  0.8861 -0.9147  0.1424
   33CHL1   C22 2424   4.814   2.903   7.796 -0.1455 -0.5146  0.2591
   33CHL1  H22A 2425   4.819   3.013   7.780 -1.1929 -0.6380 -1.0867
   33CHL1  H22B 2426   4.714   2.883   7.838 -0.1522  0.0781  0.5439
   33CHL1   C23 2427   4.933   2.860   7.879 -0.2505  0.0739 -0.3575
   33CHL1  H23A 2428   4.938   2.749   7.888 -0.6615 -0.0489 -1.4343
   33CHL1  H23B 2429   5.025   2.897   7.828  1.7891 -1.2678  2.1420
   33CHL1   C24 2430   4.938   2.921   8.017 -0.2824 -0.1032 -0.8792
   33CHL1  H24A 2431   5.033   2.905   8.073  0.0778  2.7598 -0.5164
   33CHL1  H24B 2432   4.934   3.031   8.002  1.0254 -0.0368 -0.8657
   33CHL1   C25 2433   4.815   2.866   8.104  0.7813 -0.1482 -0.3369
   33CHL1   H25 2434   4.726   2.884   8.039  0.5402  0.7185  0.2134
   33CHL1   C26 2435   4.837   2.718   8.139 -0.4467  0.2076 -0.0331
   33CHL1  H26A 2436   4.930   2.723   8.199  0.7859  2.8186 -1.9502
   33CHL1  H26B 2437   4.745   2.692   8.195 -0.5152 -1.4738 -0.8713
   33CHL1  H26C 2438   4.858   2.652   8.052  0.8722  1.9601 -1.1248
   33CHL1   C27 2439   4.787   2.951   8.224 -0.7479 -0.2309  0.1665
   33CHL1  H27A 2440   4.693   2.929   8.280 -0.7453  1.7132  1.0216
   33CHL1  H27B 2441   4.871   2.947   8.297  0.1117  1.8634 -0.6438
   33CHL1  H27C 2442   4.777   3.056   8.190 -4.4519  0.2043  1.9934
   34CHL1    C3 2443   4.832   6.763   7.016  0.4555  0.5567 -0.7217
   34CHL1    H3 2444   4.893   6.671   6.999  0.2534  0.7370 -2.6397
   34CHL1    O3 2445   4.749   6.770   6.909 -0.2517 -0.5672 -0.7085
   34CHL1   H3' 2446   4.793   6.717   6.842 -0.3707 -0.3357 -0.9717
   34CHL1    C4 2447   4.745   6.751   7.146  0.0466 -0.1021 -0.1529
   34CHL1   H4A 2448   4.684   6.844   7.154  0.4505  0.0194  3.4628
   34CHL1   H4B 2449   4.684   6.659   7.135  1.6389 -1.0332 -1.7223
   34CHL1    C5 2450   4.828   6.742   7.277 -0.1191 -0.4363  0.6317
   34CHL1    C6 2451   4.809   6.645   7.366  0.1166  0.0404  0.7111
   34CHL1    H6 2452   4.730   6.571   7.349  1.4501 -1.0069 -1.3980
   34CHL1    C7 2453   4.881   6.635   7.496  0.5038  0.7449 -0.7014
   34CHL1   H7A 2454   4.800   6.618   7.571  1.4441 -0.6860  0.0528
   34CHL1   H7B 2455   4.949   6.547   7.506 -1.0443 -0.4260 -0.0067
   34CHL1    C8 2456   4.954   6.767   7.533 -0.1910  0.4517  1.2516
   34CHL1    H8 2457   4.874   6.842   7.553 -0.4332  0.7457 -0.6260
   34CHL1   C14 2458   5.049   6.737   7.643 -0.3095 -0.6449 -0.6572
   34CHL1   H14 2459   5.128   6.665   7.611  0.0962 -1.5524  2.0998
   34CHL1   C15 2460   5.003   6.670   7.771  1.1501  0.2628 -0.5891
   34CHL1  H15A 2461   4.903   6.710   7.800  0.2244 -1.1769 -1.6314
   34CHL1  H15B 2462   4.992   6.559   7.763 -0.9033 -0.1864  4.2968
   34CHL1   C16 2463   5.104   6.695   7.876  0.4932 -0.5394 -0.1816
   34CHL1  H16A 2464   5.050   6.742   7.961  1.1077  2.7244 -1.4205
   34CHL1  H16B 2465   5.147   6.595   7.898 -0.3235 -1.3602 -2.0889
   34CHL1   C17 2466   5.204   6.799   7.816  0.2722  0.1676  0.7304
   34CHL1   H17 2467   5.277   6.734   7.763 -1.9140 -0.4543 -1.6829
   34CHL1   C13 2468   5.134   6.852   7.689 -0.0735  0.3052 -0.6221
   34CHL1   C18 2469   5.057   6.975   7.732  0.2985 -0.1496 -0.0985
   34CHL1  H18A 2470   4.983   6.950   7.812  0.4099  0.4859  0.2091
   34CHL1  H18B 2471   5.117   7.061   7.768  0.2798 -0.3407  0.3998
   34CHL1  H18C 2472   4.990   7.009   7.649 -1.0393 -0.4870  0.8016
   34CHL1   C12 2473   5.227   6.883   7.576  0.2582 -0.3337 -0.5392
   34CHL1  H12A 2474   5.283   6.975   7.604  0.8910 -1.1463  0.9279
   34CHL1  H12B 2475   5.296   6.800   7.553 -0.2496 -0.8228 -0.3359
   34CHL1   C11 2476   5.148   6.912   7.450 -0.8346 -0.0907 -0.1361
   34CHL1  H11A 2477   5.106   7.013   7.469 -0.4324  0.0587 -0.0134
   34CHL1  H11B 2478   5.211   6.911   7.358 -2.4620 -1.7293 -1.3097
   34CHL1    C9 2479   5.031   6.813   7.411  0.8899  0.1904 -0.3526
   34CHL1    H9 2480   5.095   6.726   7.382  1.2377  1.0497 -2.3151
   34CHL1   C10 2481   4.943   6.846   7.289 -0.0649  0.3951  0.7709
   34CHL1   C19 2482   4.876   6.984   7.324  0.2827 -0.3309 -0.2500
   34CHL1  H19A 2483   4.950   7.067   7.327  1.0389 -1.0336  1.9593
   34CHL1  H19B 2484   4.799   7.016   7.250 -0.0172 -0.3715  0.0435
   34CHL1  H19C 2485   4.824   6.978   7.422  0.6074  0.7988  0.0057
   34CHL1    C1 2486   5.026   6.854   7.154 -0.3172 -0.4918  0.8316
   34CHL1   H1A 2487   5.108   6.929   7.170  0.5444 -0.8252 -1.5233
   34CHL1   H1B 2488   5.075   6.756   7.135  2.1529  1.3018 -3.6633
   34CHL1    C2 2489   4.930   6.882   7.034 -0.4431 -0.5908 -0.0599
   34CHL1   H2A 2490   4.986   6.881   6.938 -1.5891  0.3091 -0.7508
   34CHL1   H2B 2491   4.884   6.982   7.042  0.4373 -0.1547 -0.3588
   34CHL1   C20 2492   5.279   6.899   7.912 -0.0695 -0.8271  0.0184
   34CHL1   H20 2493   5.227   6.997   7.916  0.8162 -0.3019 -0.9680
   34CHL1   C21 2494   5.415   6.934   7.855  0.3406 -0.6014 -0.1336
   34CHL1  H21A 2495   5.412   6.965   7.749 -0.1550  0.0295  0.0576
   34CHL1  H21B 2496   5.466   6.836   7.849  0.5983 -0.3805 -2.4656
   34CHL1  H21C 2497   5.475   7.001   7.920 -0.9244  0.5601 -0.1178
   34CHL1   C22 2498   5.286   6.848   8.067 -0.3000 -0.3427  0.2678
   34CHL1  H22A 2499   5.333   6.929   8.127  1.5166  0.5481 -2.1737
   34CHL1  H22B 2500   5.185   6.838   8.111 -0.0666  0.0905  0.9289
   34CHL1   C23 2501   5.362   6.715   8.083  0.1785 -0.1804  0.2920
   34CHL1  H23A 2502   5.326   6.640   8.010  0.9246 -0.7493  0.4911
   34CHL1  H23B 2503   5.468   6.729   8.053  0.0604 -1.5106 -0.8557
   34CHL1   C24 2504   5.356   6.671   8.228  0.0209  0.8614  0.4134
   34CHL1  H24A 2505   5.248   6.667   8.255  0.1219 -2.8183  0.7293
   34CHL1  H24B 2506   5.402   6.572   8.251  1.5087  1.5622  0.5604
   34CHL1   C25 2507   5.423   6.768   8.328  0.2774  0.6341 -0.5050
   34CHL1   H25 2508   5.356   6.856   8.341 -0.6132 -0.2417  1.0826
   34CHL1   C26 2509   5.449   6.711   8.471 -0.0927 -0.2219  0.1273
   34CHL1  H26A 2510   5.508   6.784   8.531  0.1646  0.6901 -1.2019
   34CHL1  H26B 2511   5.358   6.698   8.533 -0.6046  0.4320 -0.4689
   34CHL1  H26C 2512   5.515   6.621   8.466  0.0361 -0.0910 -0.7178
   34CHL1   C27 2513   5.555   6.828   8.277 -0.6281  0.0789  0.3448
   34CHL1  H27A 2514   5.590   6.914   8.339 -0.7876  0.9287 -0.7104
   34CHL1  H27B 2515   5.631   6.749   8.259  0.5510  0.9338  1.3695
   34CHL1  H27C 2516   5.541   6.880   8.180  0.2730 -1.2179 -0.5130
   35CHL1    C3 2517   2.280   1.490   7.453 -1.1128 -0.2026  0.0408
   35CHL1    H3 2518   2.271   1.601   7.450 -1.6338 -0.2573 -0.5335
   35CHL1    O3 2519   2.341   1.453   7.327 -0.5940 -0.2277 -0.4164
   35CHL1   H3' 2520   2.395   1.527   7.297 -0.6293 -0.3880 -0.8723
   35CHL1    C4 2521   2.377   1.461   7.575 -0.1622 -0.4371  0.7540
   35CHL1   H4A 2522   2.411   1.356   7.572 -0.3075 -0.4670 -0.0240
   35CHL1   H4B 2523   2.465   1.520   7.541 -0.3526 -0.9771 -0.7575
   35CHL1    C5 2524   2.320   1.510   7.706  0.1633 -0.0603  0.7115
   35CHL1    C6 2525   2.370   1.608   7.779 -0.2085 -0.0207 -0.1332
   35CHL1    H6 2526   2.472   1.646   7.764 -0.7117  1.0800 -0.9271
   35CHL1    C7 2527   2.306   1.637   7.916 -0.3768 -0.0634 -0.0406
   35CHL1   H7A 2528   2.387   1.648   7.992  1.9461  0.4118 -2.4054
   35CHL1   H7B 2529   2.255   1.735   7.917 -1.1948 -0.4242  2.6508
   35CHL1    C8 2530   2.204   1.537   7.973  0.4685  0.0182  0.2881
   35CHL1    H8 2531   2.253   1.444   8.010 -0.9218  0.3966  3.4271
   35CHL1   C14 2532   2.135   1.601   8.089  1.2127  0.3115  0.3888
   35CHL1   H14 2533   2.082   1.687   8.042 -2.8834 -2.3396 -0.3666
   35CHL1   C15 2534   2.211   1.667   8.207 -0.1456 -0.1537 -0.0220
   35CHL1  H15A 2535   2.299   1.602   8.224  1.5832  1.4615 -2.1248
   35CHL1  H15B 2536   2.247   1.770   8.183 -1.5795 -0.1052 -2.2724
   35CHL1   C16 2537   2.108   1.680   8.321  0.2766 -0.3561  0.0460
   35CHL1  H16A 2538   2.151   1.611   8.398  1.9160 -0.0535 -0.5655
   35CHL1  H16B 2539   2.099   1.780   8.369  1.9975  0.0261 -0.3502
   35CHL1   C17 2540   1.984   1.612   8.273  0.6472 -0.3423 -0.3403
   35CHL1   H17 2541   1.933   1.692   8.217  1.8031 -0.1479 -1.1496
   35CHL1   C13 2542   2.025   1.513   8.157 -0.3661  0.3406 -0.1115
   35CHL1   C18 2543   2.095   1.384   8.213 -0.0597  0.4774 -0.1240
   35CHL1  H18A 2544   2.176   1.409   8.284  0.4538 -0.4384 -0.3737
   35CHL1  H18B 2545   2.020   1.321   8.265  0.0028 -0.3422 -0.9844
   35CHL1  H18C 2546   2.125   1.316   8.130  1.6892 -3.7020  3.5493
   35CHL1   C12 2547   1.922   1.497   8.042  0.4116 -0.1377 -0.1992
   35CHL1  H12A 2548   1.835   1.437   8.074 -1.7430  3.3633  1.0973
   35CHL1  H12B 2549   1.893   1.599   8.009 -1.1963 -0.5594 -0.1299
   35CHL1   C11 2550   1.983   1.431   7.915  0.3745  0.0985  0.2674
   35CHL1  H11A 2551   2.009   1.327   7.945 -1.2703  0.0709  1.7419
   35CHL1  H11B 2552   1.908   1.418   7.833  0.4555 -2.2978  0.4829
   35CHL1    C9 2553   2.106   1.501   7.863  0.7406  0.2134  0.7654
   35CHL1    H9 2554   2.061   1.594   7.823 -1.1589 -0.5945  0.9390
   35CHL1   C10 2555   2.178   1.446   7.738 -0.0669  0.2358 -0.5778
   35CHL1   C19 2556   2.213   1.294   7.771 -0.0214 -1.0692 -1.1140
   35CHL1  H19A 2557   2.267   1.276   7.866 -2.1612 -1.8371  0.0001
   35CHL1  H19B 2558   2.118   1.237   7.769  1.0226 -3.1790  1.8506
   35CHL1  H19C 2559   2.292   1.265   7.698  0.2600  0.0305 -1.2675
   35CHL1    C1 2560   2.087   1.452   7.610  0.6809  0.0208 -0.6880
   35CHL1   H1A 2561   2.001   1.389   7.639  0.9232 -0.1988 -0.4399
   35CHL1   H1B 2562   2.054   1.558   7.601  0.3187  0.0685  0.9447
   35CHL1    C2 2563   2.148   1.422   7.469  1.2159  0.1034  0.1606
   35CHL1   H2A 2564   2.068   1.461   7.401 -0.0487 -0.0744  1.4883
   35CHL1   H2B 2565   2.141   1.316   7.437 -0.2110  0.2368 -0.0767
   35CHL1   C20 2566   1.893   1.550   8.378  0.0167  0.1084 -0.7775
   35CHL1   H20 2567   1.837   1.468   8.328  3.3900 -1.8722 -1.6680
   35CHL1   C21 2568   1.790   1.660   8.422 -0.2104 -0.4350  0.2787
   35CHL1  H21A 2569   1.848   1.746   8.462  0.1963  0.1188 -1.4529
   35CHL1  H21B 2570   1.729   1.618   8.506  0.8027  1.9063  2.3201
   35CHL1  H21C 2571   1.730   1.700   8.338 -2.1310  0.6042  2.0634
   35CHL1   C22 2572   1.965   1.487   8.501  0.5439  0.5405 -0.1204
   35CHL1  H22A 2573   2.050   1.423   8.468  0.8356  1.0005 -0.2628
   35CHL1  H22B 2574   2.003   1.566   8.568  0.1534  0.8898 -0.3058
   35CHL1   C23 2575   1.864   1.404   8.583 -0.7508  0.2121  0.0248
   35CHL1  H23A 2576   1.806   1.469   8.652 -0.0496  0.2703  0.5782
   35CHL1  H23B 2577   1.790   1.354   8.518 -2.6819  2.9974 -0.0527
   35CHL1   C24 2578   1.940   1.295   8.672  0.3183  0.3016 -0.4030
   35CHL1  H24A 2579   1.986   1.208   8.621  1.8926 -0.7544  2.5374
   35CHL1  H24B 2580   2.031   1.345   8.712 -0.0987  0.0045  0.9727
   35CHL1   C25 2581   1.868   1.255   8.806  0.6347 -0.0957 -0.7299
   35CHL1   H25 2582   1.825   1.345   8.855  0.6031 -0.3456 -0.2872
   35CHL1   C26 2583   1.743   1.169   8.768 -0.2678  0.2724 -0.1695
   35CHL1  H26A 2584   1.659   1.227   8.724 -1.3385 -0.7091  0.5115
   35CHL1  H26B 2585   1.768   1.075   8.715 -1.5673 -1.6134  2.3458
   35CHL1  H26C 2586   1.700   1.145   8.868  0.8106 -1.7648 -0.1319
   35CHL1   C27 2587   1.962   1.181   8.904 -0.5284 -0.4815  0.4534
   35CHL1  H27A 2588   1.908   1.149   8.995  0.0209 -0.8419  0.6608
   35CHL1  H27B 2589   2.054   1.239   8.927 -2.7994  3.2361  0.8832
   35CHL1  H27C 2590   1.987   1.077   8.872  0.6786 -0.8179  2.3398
   36CHL1    C3 2591   2.269   0.880   7.124  0.6390 -0.4088  0.3620
   36CHL1    H3 2592   2.268   0.774   7.093  1.5147  0.2793 -2.3066
   36CHL1    O3 2593   2.301   0.959   7.006 -0.6148 -0.2911 -0.4213
   36CHL1   H3' 2594   2.297   1.046   7.047  0.2659 -0.2983 -0.3047
   36CHL1    C4 2595   2.121   0.917   7.160 -0.8710  0.3012 -0.7010
   36CHL1   H4A 2596   2.114   1.027   7.171 -0.8552  0.4454 -1.9436
   36CHL1   H4B 2597   2.056   0.881   7.078 -1.9501  0.9206 -0.1345
   36CHL1    C5 2598   2.083   0.850   7.291 -0.0075 -0.7161  0.3839
   36CHL1    C6 2599   1.966   0.794   7.308  0.4647  0.0123  0.1331
   36CHL1    H6 2600   1.894   0.801   7.225 -0.4632  0.5963  0.9692
   36CHL1    C7 2601   1.911   0.743   7.438  0.1159  0.1594  1.2292
   36CHL1   H7A 2602   1.808   0.775   7.465  0.0064 -0.1830  1.2180
   36CHL1   H7B 2603   1.902   0.634   7.421 -1.9808  0.5587 -0.7710
   36CHL1    C8 2604   2.003   0.767   7.559  0.9432 -0.3553  0.1323
   36CHL1    H8 2605   1.975   0.868   7.596 -0.1436 -0.4018 -0.5436
   36CHL1   C14 2606   1.981   0.659   7.663  0.2146 -0.9646  0.8571
   36CHL1   H14 2607   2.016   0.561   7.623 -0.0821  0.0885 -2.2012
   36CHL1   C15 2608   1.839   0.631   7.710  0.1990 -0.4760 -0.0658
   36CHL1  H15A 2609   1.797   0.734   7.721  2.0109  0.2258  0.6973
   36CHL1  H15B 2610   1.791   0.564   7.636  2.2197 -1.1281 -0.8492
   36CHL1   C16 2611   1.855   0.574   7.851 -0.1897 -0.7422  0.6713
   36CHL1  H16A 2612   1.794   0.643   7.912  0.2623  0.7461 -0.4949
   36CHL1  H16B 2613   1.817   0.472   7.872 -0.9101 -0.5246  0.4511
   36CHL1   C17 2614   2.004   0.587   7.881 -0.4718 -0.0660  0.3352
   36CHL1   H17 2615   2.046   0.493   7.840 -2.2445 -0.1596 -1.3754
   36CHL1   C13 2616   2.061   0.691   7.787 -0.3705 -0.1371 -0.0913
   36CHL1   C18 2617   2.015   0.823   7.850 -0.6190 -0.4342 -0.4782
   36CHL1  H18A 2618   2.054   0.910   7.793 -0.9133 -1.1204 -1.7433
   36CHL1  H18B 2619   1.905   0.833   7.860 -0.6322 -0.1633 -0.8676
   36CHL1  H18C 2620   2.075   0.830   7.944 -1.3519 -0.4684 -0.0053
   36CHL1   C12 2621   2.210   0.681   7.754 -0.2152 -0.9000  0.5327
   36CHL1  H12A 2622   2.269   0.721   7.840  0.6249 -0.5373 -0.1982
   36CHL1  H12B 2623   2.242   0.576   7.739  1.0952 -0.5937  1.0617
   36CHL1   C11 2624   2.246   0.773   7.633 -0.0665 -0.6393  0.5458
   36CHL1  H11A 2625   2.258   0.875   7.676 -2.1760  0.7571 -1.8734
   36CHL1  H11B 2626   2.351   0.745   7.608  0.9483  1.2922  2.3114
   36CHL1    C9 2627   2.151   0.769   7.515  0.3150 -0.6134  0.0620
   36CHL1    H9 2628   2.178   0.672   7.466 -1.3512  0.3730 -3.1028
   36CHL1   C10 2629   2.181   0.868   7.405  0.1594 -0.1992 -0.2256
   36CHL1   C19 2630   2.188   1.022   7.463  0.0308  0.7511  0.0894
   36CHL1  H19A 2631   2.265   1.017   7.543  0.6483 -3.3625 -0.5296
   36CHL1  H19B 2632   2.219   1.087   7.378  1.2076 -2.5746 -2.2364
   36CHL1  H19C 2633   2.093   1.060   7.507  0.3803  0.1821  1.3798
   36CHL1    C1 2634   2.321   0.831   7.356 -0.6009 -0.8677  0.1628
   36CHL1   H1A 2635   2.395   0.856   7.435 -1.9206  2.7974  0.4183
   36CHL1   H1B 2636   2.319   0.723   7.330 -0.2438 -0.4212 -1.8697
   36CHL1    C2 2637   2.362   0.911   7.231 -0.7762  0.5854 -0.3640
   36CHL1   H2A 2638   2.464   0.884   7.193 -1.0325 -1.1333  0.0714
   36CHL1   H2B 2639   2.366   1.019   7.258  0.4675  0.8920 -1.6231
   36CHL1   C20 2640   2.039   0.589   8.037 -0.3869 -0.6836  0.5104
   36CHL1   H20 2641   2.060   0.684   8.089 -0.9844  1.5149 -2.9693
   36CHL1   C21 2642   2.180   0.530   8.052 -0.1557  0.2528  0.3874
   36CHL1  H21A 2643   2.165   0.422   8.034  1.6135 -0.7277  4.0575
   36CHL1  H21B 2644   2.220   0.539   8.155  0.2157 -1.0165  0.3667
   36CHL1  H21C 2645   2.256   0.577   7.986  1.2310  0.1931  1.8920
   36CHL1   C22 2646   1.943   0.492   8.120  0.3479  0.2600 -0.3944
   36CHL1  H22A 2647   1.842   0.537   8.109 -0.4643 -0.4242  3.0681
   36CHL1  H22B 2648   1.941   0.390   8.074 -2.1370  0.5119 -1.0113
   36CHL1   C23 2649   1.982   0.485   8.270  0.2882  0.3721  0.2313
   36CHL1  H23A 2650   2.073   0.422   8.276  0.6507  0.4406 -2.9076
   36CHL1  H23B 2651   2.000   0.592   8.294 -0.0258  0.9102 -1.7278
   36CHL1   C24 2652   1.867   0.426   8.353 -0.0336  0.0304 -0.3256
   36CHL1  H24A 2653   1.782   0.497   8.363  0.2490  0.6473 -2.0078
   36CHL1  H24B 2654   1.816   0.344   8.297  1.1183 -0.0370 -1.3071
   36CHL1   C25 2655   1.916   0.385   8.490  0.4210  0.1953 -0.6485
   36CHL1   H25 2656   1.997   0.313   8.468  2.3689  1.2629  2.4096
   36CHL1   C26 2657   1.967   0.513   8.565 -0.0765  0.2085  0.9173
   36CHL1  H26A 2658   2.007   0.497   8.668 -1.5638 -1.2554  1.3171
   36CHL1  H26B 2659   2.045   0.558   8.500  1.3273 -0.5028  2.0536
   36CHL1  H26C 2660   1.888   0.591   8.570 -2.0690 -1.3558 -2.6592
   36CHL1   C27 2661   1.801   0.324   8.569  0.1989 -0.3445 -0.0843
   36CHL1  H27A 2662   1.718   0.393   8.592  1.1218  1.0623 -0.8145
   36CHL1  H27B 2663   1.755   0.241   8.512 -0.1097  0.3003 -0.7813
   36CHL1  H27C 2664   1.842   0.277   8.662  1.5847  3.2308  1.2925
   37CHL1    C3 2665   0.018   3.503   7.016  0.4352 -0.2437  0.2037
   37CHL1    H3 2666  -0.071   3.568   7.034  1.4513  1.5534 -0.9520
   37CHL1    O3 2667   0.042   3.487   6.870  0.1150 -0.2226  0.3422
   37CHL1   H3' 2668   0.065   3.395   6.860 -0.9442 -0.5714  0.9864
   37CHL1    C4 2669   0.140   3.546   7.107 -0.8935 -0.0811 -0.4364
   37CHL1   H4A 2670   0.231   3.483   7.092 -0.5064  0.2585  0.3849
   37CHL1   H4B 2671   0.174   3.644   7.065  3.4274 -0.4563  1.6123
   37CHL1    C5 2672   0.110   3.551   7.252  0.0420 -0.2917 -0.4102
   37CHL1    C6 2673   0.111   3.663   7.327 -0.4279  0.2902  0.5021
   37CHL1    H6 2674   0.150   3.757   7.286  0.4435 -0.3610 -0.2122
   37CHL1    C7 2675   0.098   3.659   7.474 -0.2324  0.6394  0.0791
   37CHL1   H7A 2676   0.189   3.708   7.516  0.9087 -1.1401 -0.2257
   37CHL1   H7B 2677   0.009   3.724   7.494 -0.2664  0.3552  0.9059
   37CHL1    C8 2678   0.083   3.515   7.531 -0.0784 -0.0565 -0.6392
   37CHL1    H8 2679   0.185   3.471   7.539  0.4040  1.1819  0.6361
   37CHL1   C14 2680   0.023   3.538   7.673 -0.5329 -0.0496 -0.1024
   37CHL1   H14 2681  -0.082   3.571   7.659 -1.0875 -1.1057  1.3439
   37CHL1   C15 2682   0.082   3.643   7.771  0.3722  0.1379 -0.0097
   37CHL1  H15A 2683   0.192   3.660   7.770  0.4330 -0.2637 -0.0680
   37CHL1  H15B 2684   0.038   3.739   7.735  1.4153  0.1408 -1.3123
   37CHL1   C16 2685   0.027   3.594   7.902 -0.4090  0.0263  0.1565
   37CHL1  H16A 2686   0.111   3.563   7.968  0.6267 -0.7198 -1.4603
   37CHL1  H16B 2687  -0.035   3.670   7.954  2.0136  2.5260 -0.3288
   37CHL1   C17 2688  -0.049   3.454   7.879  0.3606  0.7524  0.4333
   37CHL1   H17 2689  -0.158   3.471   7.876  0.3580  0.6450 -0.0228
   37CHL1   C13 2690   0.009   3.404   7.749  0.7796 -0.2124  0.1374
   37CHL1   C18 2691   0.149   3.336   7.777 -0.0893  0.2439  0.0035
   37CHL1  H18A 2692   0.193   3.317   7.677  0.2003  0.3826  0.1020
   37CHL1  H18B 2693   0.221   3.408   7.822  0.7986 -0.6449  0.0419
   37CHL1  H18C 2694   0.150   3.241   7.835  1.0936 -0.4533 -1.1165
   37CHL1   C12 2695  -0.090   3.317   7.654  0.2324  0.3364 -0.1039
   37CHL1  H12A 2696  -0.114   3.218   7.697 -0.0216  0.7018  0.6215
   37CHL1  H12B 2697  -0.186   3.370   7.637  0.4245  1.6868  2.5266
   37CHL1   C11 2698  -0.030   3.292   7.514  0.0478  0.0363 -0.1685
   37CHL1  H11A 2699   0.056   3.222   7.516  0.1313  0.1464  0.1389
   37CHL1  H11B 2700  -0.101   3.249   7.440  0.8928  1.0487 -1.6288
   37CHL1    C9 2701   0.002   3.433   7.446  0.2288 -0.1167 -1.2244
   37CHL1    H9 2702  -0.096   3.484   7.431  0.9333  1.6900  0.0021
   37CHL1   C10 2703   0.066   3.415   7.302  0.1591 -0.1740  0.6895
   37CHL1   C19 2704   0.193   3.325   7.306  0.0141  0.1707  0.6842
   37CHL1  H19A 2705   0.214   3.310   7.198 -1.6676 -2.5919  0.6201
   37CHL1  H19B 2706   0.281   3.364   7.362 -0.3601  2.1713 -0.0347
   37CHL1  H19C 2707   0.164   3.223   7.340  0.2662  0.2628  1.1832
   37CHL1    C1 2708  -0.045   3.354   7.206  0.5385  1.0118  0.1295
   37CHL1   H1A 2709  -0.076   3.249   7.225  0.9524  0.4608 -1.9216
   37CHL1   H1B 2710  -0.147   3.395   7.225 -1.1780 -2.5706 -0.4633
   37CHL1    C2 2711  -0.016   3.369   7.060 -0.1203  0.7462  0.0008
   37CHL1   H2A 2712  -0.089   3.319   6.992  0.7149  0.2829 -0.5744
   37CHL1   H2B 2713   0.073   3.304   7.044 -0.6301 -0.3326  1.3475
   37CHL1   C20 2714  -0.041   3.364   8.004 -0.2713 -0.1166  0.9980
   37CHL1   H20 2715   0.066   3.338   8.016  0.5616  1.3363 -2.1883
   37CHL1   C21 2716  -0.120   3.230   7.984  0.2411  0.6877  0.7804
   37CHL1  H21A 2717  -0.229   3.251   7.990  0.2102  0.9121 -0.3241
   37CHL1  H21B 2718  -0.091   3.171   8.074  2.3369  0.5062  0.0296
   37CHL1  H21C 2719  -0.093   3.172   7.893 -1.2461  0.0448  0.7236
   37CHL1   C22 2720  -0.072   3.442   8.139  0.5065  0.0298 -0.2077
   37CHL1  H22A 2721  -0.026   3.543   8.143 -1.8031  1.1579 -0.5918
   37CHL1  H22B 2722  -0.181   3.464   8.137  0.6035  0.6217  0.6704
   37CHL1   C23 2723  -0.039   3.375   8.264 -0.1020  0.4964 -0.0333
   37CHL1  H23A 2724  -0.087   3.275   8.276  0.7342  0.0157 -0.6340
   37CHL1  H23B 2725   0.071   3.359   8.268 -0.0051  1.0573 -0.4562
   37CHL1   C24 2726  -0.071   3.454   8.393 -0.4813  0.4251  0.2312
   37CHL1  H24A 2727  -0.029   3.555   8.372 -1.8351  1.0959  0.6240
   37CHL1  H24B 2728  -0.181   3.468   8.388 -0.3658  0.9327 -2.8450
   37CHL1   C25 2729  -0.021   3.395   8.527 -0.6574 -0.2527  0.7301
   37CHL1   H25 2730   0.088   3.377   8.513 -0.6086  0.8686 -0.5956
   37CHL1   C26 2731  -0.039   3.500   8.640 -0.0298 -0.3899 -0.4609
   37CHL1  H26A 2732   0.010   3.465   8.733  0.3482 -0.2048 -0.5891
   37CHL1  H26B 2733   0.005   3.597   8.610  0.4767 -0.4366  0.1159
   37CHL1  H26C 2734  -0.147   3.520   8.660 -0.2766  0.1720 -2.1914
   37CHL1   C27 2735  -0.079   3.264   8.557 -0.1198  0.4297 -0.1849
   37CHL1  H27A 2736  -0.186   3.264   8.585 -0.0583  0.7390  0.0535
   37CHL1  H27B 2737  -0.075   3.194   8.471  1.2330 -0.0733  0.2566
   37CHL1  H27C 2738  -0.027   3.215   8.643 -1.3121 -3.6623 -1.5515
   38CHL1    C3 2739   4.376   4.044   6.683  0.3656  0.0913  0.1228
   38CHL1    H3 2740   4.434   3.950   6.693 -2.0022 -1.4039  0.7968
   38CHL1    O3 2741   4.342   4.065   6.550 -0.2231  0.4229 -0.3111
   38CHL1   H3' 2742   4.296   4.149   6.548  0.2237  0.6741 -0.4586
   38CHL1    C4 2743   4.250   4.039   6.769 -0.1520  0.8934  0.7843
   38CHL1   H4A 2744   4.200   4.133   6.737 -0.3306 -0.1732 -2.3756
   38CHL1   H4B 2745   4.190   3.954   6.733  0.5665  1.2902 -1.4948
   38CHL1    C5 2746   4.267   4.041   6.916 -0.0496 -0.2352  0.0134
   38CHL1    C6 2747   4.221   3.937   6.984  0.7934  0.3819 -0.6814
   38CHL1    H6 2748   4.160   3.864   6.928  1.9383 -0.0655 -1.3912
   38CHL1    C7 2749   4.238   3.904   7.131 -0.5650 -0.6353 -1.0109
   38CHL1   H7A 2750   4.137   3.886   7.173 -0.7115 -0.0290 -1.0956
   38CHL1   H7B 2751   4.302   3.814   7.144 -0.1681 -0.2551 -0.3298
   38CHL1    C8 2752   4.305   4.024   7.202  0.0536 -0.1334 -0.2565
   38CHL1    H8 2753   4.222   4.097   7.211 -0.9618 -1.2483 -0.3316
   38CHL1   C14 2754   4.343   3.992   7.348  0.6827 -0.4565 -0.7187
   38CHL1   H14 2755   4.420   3.918   7.316  2.2206  1.9275 -2.9724
   38CHL1   C15 2756   4.254   3.915   7.444  0.4087 -0.8134 -0.7395
   38CHL1  H15A 2757   4.167   3.984   7.444  1.7514  1.0107 -2.2712
   38CHL1  H15B 2758   4.243   3.809   7.413  2.1171 -1.4849  0.7656
   38CHL1   C16 2759   4.331   3.924   7.578 -0.0440 -0.6973 -0.6701
   38CHL1  H16A 2760   4.265   3.958   7.660  0.6123 -1.2865  0.1173
   38CHL1  H16B 2761   4.377   3.826   7.600  0.5545 -0.0311  1.2177
   38CHL1   C17 2762   4.444   4.027   7.561 -0.2124  0.0240  0.1235
   38CHL1   H17 2763   4.533   3.966   7.535 -0.4995 -0.5323  0.4343
   38CHL1   C13 2764   4.414   4.105   7.424  0.1896 -0.3785  0.7421
   38CHL1   C18 2765   4.319   4.228   7.449  0.5517 -0.2629  0.3617
   38CHL1  H18A 2766   4.235   4.200   7.516 -0.2120  1.5938  0.2267
   38CHL1  H18B 2767   4.378   4.311   7.493  1.5967 -0.7907  0.0188
   38CHL1  H18C 2768   4.263   4.251   7.356 -0.9680  0.3195  1.3765
   38CHL1   C12 2769   4.540   4.146   7.338  0.2912 -0.2047 -0.2023
   38CHL1  H12A 2770   4.607   4.221   7.385  1.0730 -1.2199  0.3458
   38CHL1  H12B 2771   4.610   4.061   7.319  2.4798  1.3779  0.3285
   38CHL1   C11 2772   4.497   4.200   7.198 -0.7853  0.1950  0.0452
   38CHL1  H11A 2773   4.445   4.299   7.201 -0.6425  0.2401  2.6526
   38CHL1  H11B 2774   4.591   4.215   7.141 -0.7116  2.0100  0.5897
   38CHL1    C9 2775   4.418   4.087   7.121 -0.2988 -0.6728 -0.4262
   38CHL1    H9 2776   4.490   4.004   7.103  0.7231 -0.7001  2.9910
   38CHL1   C10 2777   4.369   4.135   6.981  0.2467 -0.7419  0.6650
   38CHL1   C19 2778   4.287   4.268   6.984 -0.3816  0.0266 -0.7574
   38CHL1  H19A 2779   4.200   4.248   7.050 -0.8490  0.4164 -1.2409
   38CHL1  H19B 2780   4.351   4.347   7.028 -2.0102  0.9299  0.1186
   38CHL1  H19C 2781   4.249   4.302   6.885 -1.2224 -1.4742 -0.9811
   38CHL1    C1 2782   4.491   4.159   6.889 -0.0876  0.5936 -0.8531
   38CHL1   H1A 2783   4.532   4.259   6.915 -0.8352  0.5711  0.4867
   38CHL1   H1B 2784   4.574   4.090   6.915  0.5217  1.7805  0.4675
   38CHL1    C2 2785   4.471   4.159   6.735 -0.4595 -0.0090 -0.1722
   38CHL1   H2A 2786   4.566   4.155   6.678 -0.4687  1.4201 -0.3256
   38CHL1   H2B 2787   4.419   4.251   6.701  0.0511 -0.3030 -1.8478
   38CHL1   C20 2788   4.478   4.107   7.681  0.6976 -0.7786 -0.7070
   38CHL1   H20 2789   4.392   4.177   7.694  0.2519 -1.3842 -0.3603
   38CHL1   C21 2790   4.598   4.198   7.658 -0.1586 -0.5153  0.2783
   38CHL1  H21A 2791   4.579   4.291   7.601 -2.2553 -1.2802 -0.3409
   38CHL1  H21B 2792   4.675   4.136   7.608  1.0221 -0.7362  2.2688
   38CHL1  H21C 2793   4.643   4.221   7.758  2.5382  0.0011 -0.9666
   38CHL1   C22 2794   4.491   4.025   7.812 -0.1229  0.0140  0.0215
   38CHL1  H22A 2795   4.401   3.961   7.826  0.2668 -0.7561 -0.8847
   38CHL1  H22B 2796   4.580   3.959   7.800 -0.4163 -0.0689 -2.0913
   38CHL1   C23 2797   4.520   4.105   7.944  0.6771  0.9240 -0.0471
   38CHL1  H23A 2798   4.615   4.163   7.934  0.8489  1.6555  3.9728
   38CHL1  H23B 2799   4.434   4.172   7.959  0.2987  0.9620 -2.1511
   38CHL1   C24 2800   4.553   4.013   8.058  0.7916  0.1033 -0.2055
   38CHL1  H24A 2801   4.507   3.912   8.049 -0.2086  0.5932 -0.7969
   38CHL1  H24B 2802   4.662   3.990   8.051  0.8993  0.3207  0.7243
   38CHL1   C25 2803   4.530   4.082   8.192 -0.2785  0.3379  0.8490
   38CHL1   H25 2804   4.587   4.025   8.270  0.6989  1.9073  1.3208
   38CHL1   C26 2805   4.564   4.231   8.209 -0.0245  0.1216 -0.1249
   38CHL1  H26A 2806   4.661   4.255   8.160 -0.8409 -0.1739 -1.9880
   38CHL1  H26B 2807   4.489   4.291   8.153  0.6487 -1.2837 -2.6759
   38CHL1  H26C 2808   4.567   4.261   8.316 -0.3507  1.5000 -0.4773
   38CHL1   C27 2809   4.381   4.068   8.238 -0.2256 -0.1268 -0.1392
   38CHL1  H27A 2810   4.350   4.145   8.312 -0.2526  1.0708 -1.3424
   38CHL1  H27B 2811   4.307   4.065   8.155 -1.7308 -0.3937  1.1573
   38CHL1  H27C 2812   4.372   3.971   8.291  1.8405 -0.8222 -0.9569
   39CHL1    C3 2813   3.886   3.608   6.931  0.0380  0.6628 -0.1634
   39CHL1    H3 2814   3.781   3.576   6.913  0.0330 -1.4377  2.9230
   39CHL1    O3 2815   3.954   3.642   6.811  0.4301  0.7281  0.6470
   39CHL1   H3' 2816   3.893   3.707   6.775 -0.1926 -0.5989 -0.8118
   39CHL1    C4 2817   3.888   3.729   7.025  0.0075  0.5185 -0.2399
   39CHL1   H4A 2818   3.999   3.738   7.026  0.2260 -0.1460  4.3542
   39CHL1   H4B 2819   3.847   3.822   6.981 -1.7785 -0.8972 -1.7088
   39CHL1    C5 2820   3.853   3.686   7.169  0.0923 -0.3174  0.5291
   39CHL1    C6 2821   3.767   3.765   7.244 -0.3588  0.3409 -0.3580
   39CHL1    H6 2822   3.725   3.854   7.196 -1.2377  1.3494  2.0954
   39CHL1    C7 2823   3.749   3.750   7.394  0.1095  0.0952 -0.6216
   39CHL1   H7A 2824   3.763   3.839   7.458 -0.2858 -0.2608 -0.0172
   39CHL1   H7B 2825   3.643   3.734   7.425 -0.8081  1.4321 -2.8769
   39CHL1    C8 2826   3.845   3.642   7.452 -0.7865  0.0420 -0.2572
   39CHL1    H8 2827   3.939   3.700   7.462 -0.5713 -0.0106 -1.7169
   39CHL1   C14 2828   3.799   3.596   7.589  0.6138 -0.4557 -0.2107
   39CHL1   H14 2829   3.696   3.555   7.583  0.2977  0.4639 -1.4953
   39CHL1   C15 2830   3.785   3.699   7.705  0.2804  0.2087  0.4860
   39CHL1  H15A 2831   3.860   3.781   7.694 -0.3485  0.5691 -1.5068
   39CHL1  H15B 2832   3.687   3.750   7.694 -0.1880 -1.0165 -1.4177
   39CHL1   C16 2833   3.797   3.621   7.836 -0.2369 -0.5365  0.9608
   39CHL1  H16A 2834   3.878   3.670   7.894 -0.5693  0.7112  0.4230
   39CHL1  H16B 2835   3.699   3.636   7.886 -0.3393  0.4842  0.4849
   39CHL1   C17 2836   3.835   3.472   7.795 -0.1601  0.0049 -0.1001
   39CHL1   H17 2837   3.738   3.417   7.788 -1.4941  2.0923  1.1626
   39CHL1   C13 2838   3.881   3.485   7.650  0.0699  0.2549  0.9032
   39CHL1   C18 2839   4.034   3.525   7.656 -0.2293  0.4438 -0.5189
   39CHL1  H18A 2840   4.096   3.438   7.685 -0.9566 -0.4632 -1.6246
   39CHL1  H18B 2841   4.068   3.549   7.552 -1.3965 -0.8629 -1.2312
   39CHL1  H18C 2842   4.043   3.617   7.718 -1.3797  0.8206 -0.8911
   39CHL1   C12 2843   3.862   3.359   7.559  0.1407  1.5456  0.3203
   39CHL1  H12A 2844   3.906   3.263   7.592 -1.1451  0.7226 -0.2768
   39CHL1  H12B 2845   3.755   3.329   7.557  0.5794 -0.0392 -1.1974
   39CHL1   C11 2846   3.908   3.390   7.416 -0.0340  0.6636 -0.1866
   39CHL1  H11A 2847   4.019   3.395   7.413  0.0058 -0.3985 -1.4139
   39CHL1  H11B 2848   3.889   3.300   7.353 -0.0846  0.9928 -0.6460
   39CHL1    C9 2849   3.854   3.523   7.358 -0.0459 -0.4676  0.4522
   39CHL1    H9 2850   3.750   3.493   7.333  0.7252 -1.1336 -2.2324
   39CHL1   C10 2851   3.915   3.558   7.221 -0.6193  0.2985  0.3465
   39CHL1   C19 2852   4.064   3.584   7.243  0.4850 -0.4502  0.1823
   39CHL1  H19A 2853   4.119   3.618   7.152 -0.3322  0.8975  0.1668
   39CHL1  H19B 2854   4.085   3.666   7.315  1.4740 -0.0952 -0.4874
   39CHL1  H19C 2855   4.117   3.496   7.284  1.2095 -0.2488 -0.3125
   39CHL1    C1 2856   3.895   3.443   7.113  0.3151 -0.0592  0.1164
   39CHL1   H1A 2857   3.940   3.342   7.129  2.0236  0.6485 -0.0269
   39CHL1   H1B 2858   3.786   3.424   7.098 -0.0048  1.9798 -0.3976
   39CHL1    C2 2859   3.954   3.484   6.984  0.6880 -0.1003 -0.5990
   39CHL1   H2A 2860   3.941   3.410   6.903 -0.1373 -0.2458 -0.3417
   39CHL1   H2B 2861   4.063   3.499   7.004  0.5872 -0.2189  0.0792
   39CHL1   C20 2862   3.911   3.385   7.899 -0.5326 -0.5559 -0.1687
   39CHL1   H20 2863   4.012   3.427   7.916 -0.5251 -1.6216  3.0032
   39CHL1   C21 2864   3.921   3.236   7.855 -0.2062 -0.3432 -0.0625
   39CHL1  H21A 2865   3.968   3.183   7.940 -0.1435  0.9250  0.7268
   39CHL1  H21B 2866   3.998   3.226   7.776  1.4408 -0.9808  1.5344
   39CHL1  H21C 2867   3.827   3.185   7.828  1.5893 -2.8212 -2.1364
   39CHL1   C22 2868   3.848   3.390   8.037  0.1624 -0.9511  0.3763
   39CHL1  H22A 2869   3.803   3.485   8.071  2.4297 -0.6709  2.9410
   39CHL1  H22B 2870   3.764   3.318   8.038 -0.1941 -0.5368  0.2487
   39CHL1   C23 2871   3.928   3.333   8.156 -0.5344  0.2368 -0.4271
   39CHL1  H23A 2872   3.961   3.229   8.137  1.9134  0.8509  0.0821
   39CHL1  H23B 2873   4.028   3.380   8.168 -0.0474 -0.7575 -0.4975
   39CHL1   C24 2874   3.850   3.351   8.282 -0.4755  0.2731  0.2471
   39CHL1  H24A 2875   3.831   3.461   8.284 -0.7399  0.2369 -0.1703
   39CHL1  H24B 2876   3.759   3.287   8.278 -1.2004  1.2432  0.7148
   39CHL1   C25 2877   3.927   3.299   8.404  0.4904  0.1878  0.0367
   39CHL1   H25 2878   3.962   3.197   8.379  0.3372  0.2161 -0.3029
   39CHL1   C26 2879   4.039   3.391   8.441  0.0656  0.2134  0.7384
   39CHL1  H26A 2880   4.116   3.386   8.361  0.0703  1.9760  0.6028
   39CHL1  H26B 2881   4.004   3.494   8.462  0.7006  1.3944 -3.2396
   39CHL1  H26C 2882   4.088   3.353   8.534 -4.4001 -0.8937  2.9155
   39CHL1   C27 2883   3.839   3.290   8.520  0.3487  0.5977 -0.1559
   39CHL1  H27A 2884   3.882   3.249   8.614  1.1064  3.3255  0.8029
   39CHL1  H27B 2885   3.796   3.388   8.551 -1.6938 -0.8715  1.9871
   39CHL1  H27C 2886   3.755   3.221   8.500 -1.0869  1.8918  1.0516
   40CHL1    C3 2887   6.001   2.365   6.925 -0.2765  0.2715  0.8884
   40CHL1    H3 2888   5.895   2.352   6.953 -0.1357  0.0954  1.3515
   40CHL1    O3 2889   6.021   2.348   6.785 -0.3035  0.2004 -0.0162
   40CHL1   H3' 2890   6.115   2.366   6.780 -0.0831 -0.4225  1.3141
   40CHL1    C4 2891   6.058   2.505   6.963  0.7906  0.0986  0.2539
   40CHL1   H4A 2892   6.156   2.520   6.914  0.3638  1.5131 -0.2043
   40CHL1   H4B 2893   5.996   2.584   6.915 -1.3622 -1.8558 -0.4076
   40CHL1    C5 2894   6.072   2.527   7.112 -0.1798  0.3164 -0.0903
   40CHL1    C6 2895   6.005   2.625   7.173 -0.2331 -0.5740 -0.5935
   40CHL1    H6 2896   5.959   2.699   7.106  1.8268  1.5062  0.1748
   40CHL1    C7 2897   6.003   2.660   7.322  0.1246  0.2643  0.0092
   40CHL1   H7A 2898   6.021   2.769   7.324  0.7821  0.1873 -1.1550
   40CHL1   H7B 2899   5.902   2.656   7.367  0.6997  0.9644  1.4351
   40CHL1    C8 2900   6.101   2.562   7.400  0.1723 -0.5337 -0.6746
   40CHL1    H8 2901   6.198   2.609   7.373  0.3845 -0.7903 -0.3575
   40CHL1   C14 2902   6.070   2.561   7.552 -0.0789  0.0675  0.8480
   40CHL1   H14 2903   5.964   2.527   7.551 -0.9641  2.5766 -0.9989
   40CHL1   C15 2904   6.061   2.693   7.629  0.1620  0.4453  0.3983
   40CHL1  H15A 2905   6.132   2.766   7.585 -0.9068  0.0993 -2.1033
   40CHL1  H15B 2906   5.961   2.735   7.604  0.4060 -0.2343 -1.9929
   40CHL1   C16 2907   6.091   2.652   7.772 -0.1246  0.1019  0.8005
   40CHL1  H16A 2908   6.186   2.701   7.801  0.2666 -1.4936  2.4887
   40CHL1  H16B 2909   6.011   2.672   7.847 -0.6382  0.0265  0.2827
   40CHL1   C17 2910   6.105   2.498   7.774 -0.6653 -0.1538 -0.1440
   40CHL1   H17 2911   6.012   2.437   7.777 -1.9508  1.7302  0.4698
   40CHL1   C13 2912   6.159   2.468   7.633 -0.1337 -0.0152  0.0806
   40CHL1   C18 2913   6.309   2.505   7.608  0.4776 -0.2984 -0.3269
   40CHL1  H18A 2914   6.329   2.494   7.499 -1.1549  0.5990 -0.7502
   40CHL1  H18B 2915   6.335   2.610   7.633  1.7402 -0.5962 -0.3167
   40CHL1  H18C 2916   6.374   2.433   7.664  0.2345 -0.4881 -0.2880
   40CHL1   C12 2917   6.132   2.325   7.582 -1.2716  0.3722 -0.5418
   40CHL1  H12A 2918   6.191   2.249   7.637  0.6351  0.8518 -1.8177
   40CHL1  H12B 2919   6.023   2.311   7.598 -1.1491  1.0678  1.1011
   40CHL1   C11 2920   6.161   2.312   7.430  0.1956 -0.6119 -0.1754
   40CHL1  H11A 2921   6.271   2.312   7.418  0.1291 -1.1402 -0.8592
   40CHL1  H11B 2922   6.130   2.209   7.400 -1.0101 -0.0993 -0.7641
   40CHL1    C9 2923   6.088   2.419   7.345 -0.8135 -0.5038  0.6707
   40CHL1    H9 2924   5.978   2.404   7.349 -0.7442 -1.8715 -1.1251
   40CHL1   C10 2925   6.119   2.409   7.196  0.3378  0.7599 -0.3859
   40CHL1   C19 2926   6.269   2.412   7.179 -0.0400  0.3969  0.0517
   40CHL1  H19A 2927   6.304   2.416   7.074  0.9692 -0.6429  0.3185
   40CHL1  H19B 2928   6.323   2.500   7.220  0.8829  0.3512 -1.0210
   40CHL1  H19C 2929   6.315   2.319   7.221  1.2641  1.3598  0.8512
   40CHL1    C1 2930   6.065   2.271   7.141  0.0197 -0.7441 -0.7532
   40CHL1   H1A 2931   6.115   2.187   7.194 -1.5157  0.5799  3.2114
   40CHL1   H1B 2932   5.960   2.255   7.172 -0.4276  1.9827 -0.5592
   40CHL1    C2 2933   6.079   2.253   6.995 -0.2505 -0.2613  0.7318
   40CHL1   H2A 2934   6.030   2.155   6.975  1.2431 -1.4857  2.6368
   40CHL1   H2B 2935   6.187   2.253   6.966  0.7903  2.2825  3.9824
   40CHL1   C20 2936   6.184   2.458   7.902  0.4514  0.1060  0.1323
   40CHL1   H20 2937   6.284   2.501   7.881 -1.0455  3.1853 -1.2456
   40CHL1   C21 2938   6.196   2.303   7.913  0.2228 -0.5848  0.6379
   40CHL1  H21A 2939   6.099   2.252   7.893  0.3361 -0.4895 -0.1977
   40CHL1  H21B 2940   6.230   2.281   8.017  0.2022  0.6319  0.9094
   40CHL1  H21C 2941   6.277   2.257   7.852  1.3380  1.3282  0.5886
   40CHL1   C22 2942   6.122   2.512   8.042 -0.1852  0.2381 -0.2592
   40CHL1  H22A 2943   6.176   2.459   8.123 -0.5916  1.4168  0.8224
   40CHL1  H22B 2944   6.155   2.619   8.040  1.3002 -0.2003 -0.9306
   40CHL1   C23 2945   5.973   2.482   8.058  0.4760  0.5789 -0.1643
   40CHL1  H23A 2946   5.912   2.499   7.966 -0.1191 -0.0379  0.1082
   40CHL1  H23B 2947   5.967   2.374   8.079  1.6866  0.2595 -1.3503
   40CHL1   C24 2948   5.902   2.563   8.172  0.5353 -0.2105 -0.5099
   40CHL1  H24A 2949   5.922   2.523   8.274  1.8291  0.8022 -0.3319
   40CHL1  H24B 2950   5.952   2.662   8.161 -1.6088  1.3295  2.2342
   40CHL1   C25 2951   5.749   2.592   8.153  0.3988  0.1234 -0.1883
   40CHL1   H25 2952   5.731   2.649   8.059 -0.1663 -0.9648 -0.7529
   40CHL1   C26 2953   5.682   2.454   8.135 -0.4143  0.1963 -0.1330
   40CHL1  H26A 2954   5.731   2.393   8.056 -1.6238 -1.3229  0.2245
   40CHL1  H26B 2955   5.690   2.388   8.223 -0.0354  0.0190 -0.2988
   40CHL1  H26C 2956   5.575   2.453   8.104 -0.8879 -2.4959  1.2787
   40CHL1   C27 2957   5.689   2.673   8.263 -0.0185 -0.9252  0.0132
   40CHL1  H27A 2958   5.586   2.701   8.233  0.9622  1.9425 -1.0681
   40CHL1  H27B 2959   5.689   2.616   8.358  0.0806 -0.3454  0.3677
   40CHL1  H27C 2960   5.738   2.772   8.274  0.5887 -1.4363  2.3383
   41CHL1    C3 2961   6.707   2.223   6.967 -0.0133 -0.4240 -0.1002
   41CHL1    H3 2962   6.601   2.227   7.000  0.3172 -1.0631  1.0728
   41CHL1    O3 2963   6.710   2.188   6.833  0.1870  0.0960 -0.0941
   41CHL1   H3' 2964   6.804   2.190   6.817  0.2690 -0.4416  0.2817
   41CHL1    C4 2965   6.774   2.353   6.997 -0.3362 -0.0378  0.6893
   41CHL1   H4A 2966   6.881   2.338   6.970 -0.7339  0.6903 -1.3993
   41CHL1   H4B 2967   6.725   2.431   6.936 -0.8168 -0.5479  0.4084
   41CHL1    C5 2968   6.769   2.375   7.147  0.0095  0.6380  0.0844
   41CHL1    C6 2969   6.708   2.481   7.193  0.0838 -0.7108 -0.4534
   41CHL1    H6 2970   6.657   2.544   7.119 -1.6904 -1.2282  0.2830
   41CHL1    C7 2971   6.693   2.506   7.342  1.3537  0.8474  0.0758
   41CHL1   H7A 2972   6.712   2.616   7.344 -0.8332  1.2677  1.1179
   41CHL1   H7B 2973   6.587   2.493   7.372  0.8653  0.0145 -1.8941
   41CHL1    C8 2974   6.786   2.428   7.438 -0.0546  0.1919  0.0286
   41CHL1    H8 2975   6.887   2.474   7.439  1.0536 -2.0745  0.6703
   41CHL1   C14 2976   6.735   2.425   7.574  1.1653 -0.2683 -0.2228
   41CHL1   H14 2977   6.638   2.371   7.567  0.7148  0.5867 -0.7113
   41CHL1   C15 2978   6.698   2.560   7.639  0.1721  0.2279  0.1261
   41CHL1  H15A 2979   6.777   2.634   7.614 -0.5993  1.1524  0.3535
   41CHL1  H15B 2980   6.604   2.602   7.598 -0.0323 -0.6033 -0.2781
   41CHL1   C16 2981   6.681   2.524   7.784 -0.1497 -0.2181 -0.1382
   41CHL1  H16A 2982   6.742   2.599   7.839  0.2499 -1.5362  1.2986
   41CHL1  H16B 2983   6.575   2.539   7.814 -0.3937 -1.0423 -0.5882
   41CHL1   C17 2984   6.735   2.380   7.810 -0.4596  0.2032  0.3801
   41CHL1   H17 2985   6.648   2.312   7.806  0.0664 -0.7843  3.4595
   41CHL1   C13 2986   6.821   2.361   7.680  0.4899 -0.4367 -0.2044
   41CHL1   C18 2987   6.949   2.450   7.693 -0.7638  0.5726 -0.4105
   41CHL1  H18A 2988   7.036   2.395   7.734 -1.8060 -2.1630 -1.6814
   41CHL1  H18B 2989   6.993   2.494   7.601  2.1208  0.2615  0.7035
   41CHL1  H18C 2990   6.923   2.538   7.756 -1.8954  2.7947 -3.7235
   41CHL1   C12 2991   6.833   2.221   7.630  0.3992 -0.0741  0.2353
   41CHL1  H12A 2992   6.921   2.169   7.674  0.6249 -1.6037 -1.8729
   41CHL1  H12B 2993   6.755   2.146   7.654  2.4238 -2.4333 -0.1535
   41CHL1   C11 2994   6.872   2.200   7.491  0.4862  0.1357  1.0626
   41CHL1  H11A 2995   6.979   2.228   7.481 -0.1494  2.7699  0.9927
   41CHL1  H11B 2996   6.870   2.093   7.462 -0.4103  0.0699  1.3482
   41CHL1    C9 2997   6.790   2.283   7.386  1.0401  0.0880  0.2417
   41CHL1    H9 2998   6.684   2.249   7.395  0.4315  1.0729 -2.3592
   41CHL1   C10 2999   6.827   2.260   7.240 -0.2490 -0.6015  0.1438
   41CHL1   C19 3000   6.980   2.254   7.227  0.4517  0.3863  0.1375
   41CHL1  H19A 3001   7.013   2.157   7.270  1.8630  0.9748  0.4459
   41CHL1  H19B 3002   6.999   2.257   7.118  1.0439  0.9954  0.2495
   41CHL1  H19C 3003   7.028   2.334   7.288 -0.4908 -0.4088  2.0126
   41CHL1    C1 3004   6.759   2.132   7.192  0.2656  0.0440 -0.2332
   41CHL1   H1A 3005   6.804   2.049   7.250  1.3384  0.5242 -0.3534
   41CHL1   H1B 3006   6.651   2.130   7.218  0.1376  0.3464 -0.7203
   41CHL1    C2 3007   6.775   2.110   7.043  0.4074 -0.3166 -0.2976
   41CHL1   H2A 3008   6.734   2.011   7.012 -0.4620  0.0148 -0.2168
   41CHL1   H2B 3009   6.883   2.108   7.016  0.1328  1.6586 -1.6565
   41CHL1   C20 3010   6.815   2.360   7.939  0.1206  0.7855 -0.4834
   41CHL1   H20 3011   6.895   2.437   7.928  0.0814  0.8040 -0.6329
   41CHL1   C21 3012   6.877   2.214   7.954 -0.3069  0.5871  0.6840
   41CHL1  H21A 3013   6.801   2.150   7.904 -0.1515  1.1353 -0.2666
   41CHL1  H21B 3014   6.889   2.170   8.055  0.1718  1.0336  0.8223
   41CHL1  H21C 3015   6.972   2.218   7.898  0.2641  0.5631  1.6228
   41CHL1   C22 3016   6.722   2.371   8.067 -0.9453 -0.4399 -0.8257
   41CHL1  H22A 3017   6.642   2.447   8.051 -1.5197 -0.6043  1.0894
   41CHL1  H22B 3018   6.676   2.270   8.073  2.2163 -1.9900 -0.8020
   41CHL1   C23 3019   6.806   2.385   8.194 -0.0891 -0.5971 -0.8254
   41CHL1  H23A 3020   6.871   2.294   8.188  0.5969 -0.0285 -2.5274
   41CHL1  H23B 3021   6.858   2.483   8.190 -1.9656  0.6475  1.9230
   41CHL1   C24 3022   6.715   2.385   8.321  0.8464  0.1068  0.2786
   41CHL1  H24A 3023   6.641   2.468   8.318  0.7838  0.0620  0.5675
   41CHL1  H24B 3024   6.664   2.287   8.322  0.7024  0.1500 -0.9586
   41CHL1   C25 3025   6.772   2.421   8.458  0.1405  0.0855  0.1287
   41CHL1   H25 3026   6.788   2.531   8.459 -2.7296  0.5905 -0.5916
   41CHL1   C26 3027   6.675   2.386   8.575 -0.2349  0.3132  0.4838
   41CHL1  H26A 3028   6.583   2.448   8.572  0.5260  1.4758  0.6457
   41CHL1  H26B 3029   6.649   2.278   8.572  3.0992 -0.6400  1.3527
   41CHL1  H26C 3030   6.724   2.404   8.673 -1.0096 -0.5333  1.0506
   41CHL1   C27 3031   6.909   2.349   8.479  0.5783 -0.4237  0.0237
   41CHL1  H27A 3032   6.982   2.411   8.422 -1.6118  2.8710  0.5404
   41CHL1  H27B 3033   6.931   2.357   8.587  0.0416 -0.6438  0.1503
   41CHL1  H27C 3034   6.910   2.242   8.450  1.5387 -0.7918  1.3289
   42CHL1    C3 3035   1.445   0.224   6.910  0.5454 -0.2857  0.6997
   42CHL1    H3 3036   1.363   0.298   6.895  1.5140  0.4429 -1.4727
   42CHL1    O3 3037   1.475   0.197   6.772  0.7418  0.3947  0.3226
   42CHL1   H3' 3038   1.391   0.160   6.745 -0.1630  1.3491  1.7699
   42CHL1    C4 3039   1.560   0.294   6.976  0.9911 -0.3318 -0.4878
   42CHL1   H4A 3040   1.648   0.227   6.973 -0.0662 -1.8248  0.2547
   42CHL1   H4B 3041   1.581   0.383   6.914  2.4818  0.3016  0.8555
   42CHL1    C5 3042   1.518   0.342   7.113  0.5941  0.6032  0.1345
   42CHL1    C6 3043   1.510   0.476   7.139 -0.3508  0.0076  0.2435
   42CHL1    H6 3044   1.540   0.546   7.059  1.5800 -0.8353  0.1765
   42CHL1    C7 3045   1.468   0.529   7.265 -0.4248  0.0012 -0.2285
   42CHL1   H7A 3046   1.538   0.612   7.286  0.7795 -0.4321 -2.2855
   42CHL1   H7B 3047   1.360   0.554   7.271 -0.8938 -1.9740  0.3371
   42CHL1    C8 3048   1.487   0.422   7.379  0.4041 -0.1836 -0.1447
   42CHL1    H8 3049   1.596   0.408   7.394  0.2608 -2.6760 -1.0411
   42CHL1   C14 3050   1.434   0.489   7.503  0.2287  0.6345 -0.4508
   42CHL1   H14 3051   1.323   0.493   7.495 -0.0265 -3.5072 -1.0745
   42CHL1   C15 3052   1.483   0.624   7.556 -0.5627  0.5551  0.5440
   42CHL1  H15A 3053   1.590   0.646   7.535 -0.6909  0.0396 -0.7520
   42CHL1  H15B 3054   1.418   0.703   7.513 -1.0817 -0.4279 -0.5271
   42CHL1   C16 3055   1.454   0.618   7.708  0.0016  0.3464  0.0146
   42CHL1  H16A 3056   1.550   0.620   7.763 -0.3768 -2.2535  0.8921
   42CHL1  H16B 3057   1.395   0.705   7.742 -1.0788 -1.0415  1.8365
   42CHL1   C17 3058   1.379   0.485   7.741  0.0442 -0.4782 -1.0122
   42CHL1   H17 3059   1.271   0.496   7.717 -0.0554  0.8631 -0.0378
   42CHL1   C13 3060   1.440   0.389   7.630  0.2742 -0.3881  0.0385
   42CHL1   C18 3061   1.584   0.343   7.668  0.0660 -0.1162  0.7373
   42CHL1  H18A 3062   1.579   0.241   7.712 -2.5527 -0.3843 -0.0066
   42CHL1  H18B 3063   1.656   0.356   7.584 -0.3058  2.0336  0.6909
   42CHL1  H18C 3064   1.625   0.415   7.741  0.0433  1.1721 -0.4736
   42CHL1   C12 3065   1.355   0.269   7.592 -0.9349 -0.1178  0.1173
   42CHL1  H12A 3066   1.351   0.193   7.673 -0.8795  1.9163  2.1624
   42CHL1  H12B 3067   1.251   0.307   7.580 -1.6317 -1.7949  0.5585
   42CHL1   C11 3068   1.402   0.194   7.465 -0.6434  0.1698 -0.0526
   42CHL1  H11A 3069   1.495   0.151   7.508 -1.6399  1.0288  3.2794
   42CHL1  H11B 3070   1.337   0.107   7.443 -0.6693  0.4577 -1.1727
   42CHL1    C9 3071   1.420   0.291   7.340 -0.0173 -0.0371  0.1225
   42CHL1    H9 3072   1.314   0.320   7.325  0.5002  1.4359 -0.8684
   42CHL1   C10 3073   1.470   0.236   7.210 -0.1154  0.4691  0.2990
   42CHL1   C19 3074   1.577   0.138   7.240  0.1678  0.4606 -0.5304
   42CHL1  H19A 3075   1.619   0.097   7.146  1.0509 -1.6204  0.7195
   42CHL1  H19B 3076   1.664   0.186   7.290  0.0774 -3.1082  3.6567
   42CHL1  H19C 3077   1.546   0.054   7.305  1.6286 -0.2333 -0.6831
   42CHL1    C1 3078   1.355   0.159   7.134  0.0034  0.0004  0.6618
   42CHL1   H1A 3079   1.323   0.086   7.212 -3.3533  1.0298  0.4361
   42CHL1   H1B 3080   1.269   0.225   7.109  0.3383  0.7157  1.3548
   42CHL1    C2 3081   1.395   0.108   6.995  0.2156 -0.2268 -0.0580
   42CHL1   H2A 3082   1.311   0.057   6.944  1.4100 -0.2720 -2.0811
   42CHL1   H2B 3083   1.476   0.033   7.002  2.4500  1.8627 -1.7621
   42CHL1   C20 3084   1.394   0.431   7.887 -0.0559  0.2503 -0.3361
   42CHL1   H20 3085   1.503   0.427   7.906 -0.4756 -1.3602  2.2314
   42CHL1   C21 3086   1.328   0.295   7.917  0.7776  0.4889  0.1178
   42CHL1  H21A 3087   1.373   0.211   7.861  0.3821  0.1552  0.2995
   42CHL1  H21B 3088   1.220   0.294   7.890  0.9224 -0.7060 -0.4631
   42CHL1  H21C 3089   1.331   0.272   8.025  1.4404 -0.6492 -0.1366
   42CHL1   C22 3090   1.343   0.531   7.999  0.5891  0.0336 -0.5529
   42CHL1  H22A 3091   1.356   0.636   7.967  1.8332  0.1794  0.3431
   42CHL1  H22B 3092   1.233   0.517   7.997  0.6161 -0.4066 -3.1596
   42CHL1   C23 3093   1.396   0.509   8.139  0.1072 -0.1916 -0.1186
   42CHL1  H23A 3094   1.405   0.402   8.169 -0.6488  0.3570  2.2816
   42CHL1  H23B 3095   1.495   0.559   8.154  0.3108 -0.5587 -0.2244
   42CHL1   C24 3096   1.305   0.567   8.255  0.3684  0.1792  0.8229
   42CHL1  H24A 3097   1.273   0.667   8.217  2.1290  0.6547  0.4826
   42CHL1  H24B 3098   1.216   0.501   8.264  0.5087 -0.0154  0.7835
   42CHL1   C25 3099   1.353   0.595   8.402  0.0388  0.2299 -0.5851
   42CHL1   H25 3100   1.432   0.673   8.394  1.0767 -0.9387 -2.9766
   42CHL1   C26 3101   1.224   0.637   8.477 -0.6180 -0.1354  0.1104
   42CHL1  H26A 3102   1.158   0.705   8.418  0.9334  0.9251 -0.4699
   42CHL1  H26B 3103   1.160   0.550   8.500 -1.1802 -0.0166 -0.9346
   42CHL1  H26C 3104   1.251   0.678   8.577  1.0053 -1.8274  0.4038
   42CHL1   C27 3105   1.406   0.471   8.471  0.0248 -0.5676 -0.7707
   42CHL1  H27A 3106   1.482   0.417   8.411 -1.1632 -0.9933 -1.9318
   42CHL1  H27B 3107   1.328   0.395   8.495  1.6138 -1.1468  3.3678
   42CHL1  H27C 3108   1.440   0.497   8.574  0.7838  0.5173 -1.2827
   43CHL1    C3 3109   0.809   3.797   6.918  0.1401 -0.4858  0.2660
   43CHL1    H3 3110   0.795   3.687   6.915  3.0743 -1.0225  1.5836
   43CHL1    O3 3111   0.830   3.829   6.783 -0.8207  0.0047 -0.1545
   43CHL1   H3' 3112   0.744   3.809   6.744 -0.0023 -1.0288 -1.5433
   43CHL1    C4 3113   0.689   3.875   6.977 -0.1294 -0.1617  0.0942
   43CHL1   H4A 3114   0.699   3.984   6.958 -1.7200 -0.3700 -2.4193
   43CHL1   H4B 3115   0.595   3.842   6.927 -0.8022 -0.2241  1.3548
   43CHL1    C5 3116   0.670   3.856   7.126 -0.0277  0.4951 -0.0491
   43CHL1    C6 3117   0.551   3.809   7.170  0.2746  0.9096  0.2940
   43CHL1    H6 3118   0.470   3.796   7.097 -0.5087  2.7484  0.7823
   43CHL1    C7 3119   0.519   3.771   7.307  0.8021 -0.4811  1.0451
   43CHL1   H7A 3120   0.416   3.809   7.328  0.0409 -1.3300 -0.9551
   43CHL1   H7B 3121   0.512   3.661   7.316 -0.3285 -0.4558  0.6866
   43CHL1    C8 3122   0.627   3.820   7.408  0.4155 -0.4694  0.1153
   43CHL1    H8 3123   0.636   3.931   7.412  0.5196 -0.3246 -2.4983
   43CHL1   C14 3124   0.617   3.752   7.546  0.1420 -0.5639 -0.5952
   43CHL1   H14 3125   0.624   3.642   7.534  1.2136 -0.6503  0.5912
   43CHL1   C15 3126   0.482   3.786   7.622  0.5595 -0.2427 -0.0943
   43CHL1  H15A 3127   0.443   3.887   7.598  0.7287  0.0969  1.0144
   43CHL1  H15B 3128   0.412   3.706   7.590  1.5140 -0.7268 -1.0606
   43CHL1   C16 3129   0.517   3.771   7.769  0.3764  0.0700 -0.1683
   43CHL1  H16A 3130   0.511   3.868   7.822 -2.0341 -0.3044  0.3578
   43CHL1  H16B 3131   0.445   3.704   7.822  0.8403 -1.9431 -1.9329
   43CHL1   C17 3132   0.664   3.726   7.779 -0.2720  0.4083 -0.4874
   43CHL1   H17 3133   0.666   3.617   7.761 -0.9654  0.0197  1.5590
   43CHL1   C13 3134   0.722   3.792   7.654  0.7280 -0.5154 -0.2367
   43CHL1   C18 3135   0.717   3.948   7.671 -0.0494 -0.1752  0.7189
   43CHL1  H18A 3136   0.749   3.996   7.576  2.1589  2.3659  2.5907
   43CHL1  H18B 3137   0.627   3.998   7.711  1.8452  0.7234  4.3325
   43CHL1  H18C 3138   0.803   3.981   7.734  0.7219 -1.7352  0.5213
   43CHL1   C12 3139   0.867   3.750   7.602  0.1791 -0.7372  0.0783
   43CHL1  H12A 3140   0.940   3.782   7.679 -0.6600 -0.8210  0.9386
   43CHL1  H12B 3141   0.872   3.640   7.589  0.5463 -0.7897  0.6334
   43CHL1   C11 3142   0.893   3.807   7.463  0.1342 -0.2900  0.0120
   43CHL1  H11A 3143   0.935   3.909   7.476  2.3988 -1.1630 -0.1457
   43CHL1  H11B 3144   0.978   3.748   7.424  0.6939  0.4247  0.1290
   43CHL1    C9 3145   0.771   3.788   7.358  0.5410  1.3023 -0.6165
   43CHL1    H9 3146   0.765   3.680   7.333 -0.1992  0.5057  2.5031
   43CHL1   C10 3147   0.792   3.861   7.220  0.7680 -0.2295 -0.0214
   43CHL1   C19 3148   0.812   4.012   7.247  0.7122 -0.2020 -0.1405
   43CHL1  H19A 3149   0.901   4.037   7.309  1.7024 -0.1525 -1.5189
   43CHL1  H19B 3150   0.832   4.065   7.151 -1.3769 -1.0410 -1.0903
   43CHL1  H19C 3151   0.717   4.056   7.285  1.4857  2.1737 -0.7854
   43CHL1    C1 3152   0.911   3.793   7.151 -0.0868  0.6137  0.0491
   43CHL1   H1A 3153   1.002   3.817   7.211 -0.4914  0.2347  0.8218
   43CHL1   H1B 3154   0.891   3.685   7.167  1.7861  0.2249 -0.0308
   43CHL1    C2 3155   0.940   3.825   7.004  0.0061 -0.4419  0.6604
   43CHL1   H2A 3156   1.018   3.754   6.969  1.2312  1.2077 -0.1075
   43CHL1   H2B 3157   0.979   3.929   6.998 -2.4660  0.5407  0.6020
   43CHL1   C20 3158   0.737   3.760   7.919  0.0519 -0.5882 -0.4897
   43CHL1   H20 3159   0.767   3.866   7.910 -0.3610 -0.3799  0.4879
   43CHL1   C21 3160   0.859   3.674   7.947  0.7382 -0.1371  0.6036
   43CHL1  H21A 3161   0.827   3.568   7.946 -1.7047  0.5454 -0.1990
   43CHL1  H21B 3162   0.894   3.704   8.048 -1.5625  1.0534  1.1108
   43CHL1  H21C 3163   0.945   3.681   7.877  1.1802 -0.7323  1.0782
   43CHL1   C22 3164   0.639   3.756   8.034  0.1542 -1.2142 -0.6666
   43CHL1  H22A 3165   0.564   3.835   8.011  0.1957 -0.8286  0.4420
   43CHL1  H22B 3166   0.577   3.664   8.028 -0.1403 -1.0202 -0.6506
   43CHL1   C23 3167   0.690   3.789   8.176  0.2213  0.7158  0.8920
   43CHL1  H23A 3168   0.602   3.803   8.242 -0.1893  0.6454  0.3742
   43CHL1  H23B 3169   0.755   3.703   8.202  0.6836  0.5655 -0.6219
   43CHL1   C24 3170   0.775   3.914   8.182  0.1944 -0.0282  0.6544
   43CHL1  H24A 3171   0.868   3.903   8.123  0.6130  2.8815  0.6023
   43CHL1  H24B 3172   0.720   3.996   8.131 -0.5655 -1.0233 -0.1768
   43CHL1   C25 3173   0.815   3.956   8.314  0.0361 -0.0321 -0.0176
   43CHL1   H25 3174   0.731   3.938   8.384 -1.0578  0.8807 -1.0484
   43CHL1   C26 3175   0.934   3.865   8.368  0.1210  0.4959 -0.5110
   43CHL1  H26A 3176   0.979   3.896   8.465  0.6059  2.5760 -1.3353
   43CHL1  H26B 3177   0.899   3.761   8.382 -1.1172  0.8451 -0.8751
   43CHL1  H26C 3178   1.018   3.865   8.295 -0.6683  0.9020 -1.4424
   43CHL1   C27 3179   0.858   4.100   8.320 -0.0905 -0.5552 -0.4886
   43CHL1  H27A 3180   0.773   4.171   8.309  0.5485 -0.0076 -2.2023
   43CHL1  H27B 3181   0.901   4.128   8.419  0.0493 -1.4204 -0.2906
   43CHL1  H27C 3182   0.921   4.125   8.232  1.6269  2.7138  1.4782
   44CHL1    C3 3183   0.688   2.388   6.693 -0.1804 -0.1723 -0.1431
   44CHL1    H3 3184   0.796   2.411   6.699 -0.1766 -0.2504  0.1083
   44CHL1    O3 3185   0.659   2.384   6.554  0.5207 -0.0374 -0.5763
   44CHL1   H3' 3186   0.671   2.475   6.525  0.3369 -0.4666 -2.1276
   44CHL1    C4 3187   0.667   2.252   6.761  0.2406  0.1240  0.6567
   44CHL1   H4A 3188   0.564   2.213   6.747  0.1106 -0.3418  2.5567
   44CHL1   H4B 3189   0.738   2.185   6.708 -0.6780  0.0270 -0.4796
   44CHL1    C5 3190   0.690   2.266   6.912  0.7572  1.0114 -0.3809
   44CHL1    C6 3191   0.761   2.173   6.979  0.3577  0.5087  0.4220
   44CHL1    H6 3192   0.812   2.087   6.933  0.7183  1.2046 -0.5260
   44CHL1    C7 3193   0.772   2.174   7.129  0.2699 -0.4580  0.4149
   44CHL1   H7A 3194   0.750   2.072   7.166 -0.2150 -0.7085 -0.5337
   44CHL1   H7B 3195   0.872   2.195   7.172 -0.9872  0.2968  3.2246
   44CHL1    C8 3196   0.676   2.265   7.200 -0.0050 -0.4280 -0.4643
   44CHL1    H8 3197   0.579   2.213   7.206 -1.0285  1.4060 -0.2732
   44CHL1   C14 3198   0.720   2.293   7.345 -0.2247 -0.1130  0.2031
   44CHL1   H14 3199   0.806   2.362   7.331 -0.1415  0.0515  1.4058
   44CHL1   C15 3200   0.765   2.175   7.434 -0.5053 -0.0365  0.0052
   44CHL1  H15A 3201   0.685   2.100   7.415 -0.7498 -0.0327  0.9500
   44CHL1  H15B 3202   0.865   2.134   7.407 -0.7091 -0.4876 -0.0717
   44CHL1   C16 3203   0.767   2.233   7.570 -0.1595 -0.0647 -0.7089
   44CHL1  H16A 3204   0.703   2.173   7.639  2.1427  0.2105  1.8666
   44CHL1  H16B 3205   0.865   2.224   7.623 -1.3035 -1.8002  1.3013
   44CHL1   C17 3206   0.706   2.379   7.563  0.1708  0.1572 -0.0210
   44CHL1   H17 3207   0.795   2.444   7.550  0.7177 -0.6356 -0.3259
   44CHL1   C13 3208   0.630   2.386   7.425  0.3984  0.1883 -0.1007
   44CHL1   C18 3209   0.494   2.312   7.433 -0.3875 -0.3129  0.6499
   44CHL1  H18A 3210   0.508   2.222   7.497  2.5201  0.1757  0.8338
   44CHL1  H18B 3211   0.416   2.375   7.482 -1.4220  0.6141 -2.0127
   44CHL1  H18C 3212   0.445   2.279   7.339  0.8233 -0.7322  0.1565
   44CHL1   C12 3213   0.600   2.520   7.352  0.1817 -0.5922  0.2831
   44CHL1  H12A 3214   0.521   2.575   7.408  0.8170  0.8132 -0.1468
   44CHL1  H12B 3215   0.689   2.586   7.364  0.2720 -0.4095 -1.2048
   44CHL1   C11 3216   0.558   2.496   7.203  0.3121 -0.1712  0.7851
   44CHL1  H11A 3217   0.456   2.456   7.216  0.9984 -2.9630 -1.5124
   44CHL1  H11B 3218   0.555   2.599   7.161 -0.5224  0.1158  1.5247
   44CHL1    C9 3219   0.654   2.400   7.125  0.6634 -0.3782  0.0774
   44CHL1    H9 3220   0.752   2.452   7.132 -1.0445  3.2801 -0.5563
   44CHL1   C10 3221   0.609   2.383   6.979  0.1073 -0.4969 -0.5187
   44CHL1   C19 3222   0.457   2.356   6.974  0.3601  0.0570 -0.3387
   44CHL1  H19A 3223   0.401   2.449   6.950 -0.1307 -0.3144 -0.6628
   44CHL1  H19B 3224   0.427   2.299   6.883 -1.4266  0.3655  0.0195
   44CHL1  H19C 3225   0.411   2.319   7.068  0.2642  0.4289 -0.2348
   44CHL1    C1 3226   0.639   2.513   6.899  0.3414  0.3862 -0.6388
   44CHL1   H1A 3227   0.572   2.596   6.931  1.4791  0.8897  0.5379
   44CHL1   H1B 3228   0.743   2.545   6.921  0.6603 -0.9270 -0.1541
   44CHL1    C2 3229   0.608   2.505   6.753  0.7697  0.5572  0.1999
   44CHL1   H2A 3230   0.622   2.601   6.698 -2.1319 -0.1519 -1.9791
   44CHL1   H2B 3231   0.502   2.484   6.727  0.1053  2.0926  1.4909
   44CHL1   C20 3232   0.629   2.413   7.691 -0.0962  0.7002  0.7352
   44CHL1   H20 3233   0.547   2.338   7.696  0.8344 -0.5751 -1.4240
   44CHL1   C21 3234   0.575   2.558   7.681  0.5492 -0.3923 -0.3427
   44CHL1  H21A 3235   0.514   2.580   7.771 -2.6521  0.6184 -2.5834
   44CHL1  H21B 3236   0.493   2.550   7.607 -2.3761 -2.9526  2.8418
   44CHL1  H21C 3237   0.661   2.625   7.658  1.9928 -2.4482 -1.1958
   44CHL1   C22 3238   0.708   2.385   7.820 -0.6090 -0.4064 -0.0826
   44CHL1  H22A 3239   0.742   2.280   7.825  2.4064  0.5295  2.2763
   44CHL1  H22B 3240   0.803   2.443   7.818 -0.3036 -0.8989 -1.6285
   44CHL1   C23 3241   0.647   2.412   7.954  0.2498  0.2961 -0.0081
   44CHL1  H23A 3242   0.741   2.426   8.011  0.4278  3.0924 -0.8250
   44CHL1  H23B 3243   0.608   2.516   7.959 -1.2464 -0.1059 -1.9582
   44CHL1   C24 3244   0.532   2.321   8.002  0.2357 -0.0701  0.3248
   44CHL1  H24A 3245   0.448   2.327   7.930 -1.1519 -0.6343  1.8426
   44CHL1  H24B 3246   0.576   2.219   8.001 -1.2897 -0.7611  1.0380
   44CHL1   C25 3247   0.492   2.363   8.137  0.7823 -0.2744 -1.4034
   44CHL1   H25 3248   0.580   2.390   8.200 -0.6237 -0.8566  0.9215
   44CHL1   C26 3249   0.410   2.496   8.141  0.1975  0.1150 -0.2283
   44CHL1  H26A 3250   0.361   2.518   8.239 -1.4393  3.0539 -1.5924
   44CHL1  H26B 3251   0.482   2.580   8.134  1.4393 -0.8816  0.1073
   44CHL1  H26C 3252   0.339   2.503   8.056  0.9255  1.7894 -0.7214
   44CHL1   C27 3253   0.410   2.249   8.199  0.9636  0.0979 -0.0987
   44CHL1  H27A 3254   0.386   2.261   8.307  0.3147 -2.6058  0.1464
   44CHL1  H27B 3255   0.310   2.245   8.150  0.5006 -1.6934  0.8686
   44CHL1  H27C 3256   0.453   2.148   8.188 -1.5460 -1.1790  0.7892
   45CHL1    C3 3257   1.991   0.608   6.859 -0.0305  0.4564  0.6387
   45CHL1    H3 3258   2.020   0.694   6.924 -1.4723  0.9885  0.6201
   45CHL1    O3 3259   1.973   0.635   6.718  0.0399  0.1005  0.1621
   45CHL1   H3' 3260   1.952   0.553   6.673  1.1984  0.3818 -0.9361
   45CHL1    C4 3261   2.106   0.496   6.861  0.8133  0.1371  0.7883
   45CHL1   H4A 3262   2.064   0.413   6.801 -0.9334  0.4435  1.5285
   45CHL1   H4B 3263   2.196   0.537   6.810  1.1689  0.2098  1.4650
   45CHL1    C5 3264   2.127   0.456   7.009  0.9358 -0.0864  0.1309
   45CHL1    C6 3265   2.242   0.483   7.071 -0.0704  0.1109 -0.0177
   45CHL1    H6 3266   2.329   0.532   7.024 -0.2868  1.7219  1.2016
   45CHL1    C7 3267   2.273   0.441   7.219  0.0682  0.1216 -0.0489
   45CHL1   H7A 3268   2.368   0.386   7.229 -1.1097 -1.6990  1.7730
   45CHL1   H7B 3269   2.278   0.534   7.280 -0.4409  0.3031 -0.2726
   45CHL1    C8 3270   2.169   0.350   7.273 -0.3350  0.4550 -0.3033
   45CHL1    H8 3271   2.186   0.249   7.232  0.6761 -0.0704  1.3252
   45CHL1   C14 3272   2.182   0.331   7.429 -0.1922 -0.5969  0.7091
   45CHL1   H14 3273   2.160   0.432   7.471  0.8217 -0.3995  0.7825
   45CHL1   C15 3274   2.319   0.288   7.493  0.5116 -0.3906  0.3063
   45CHL1  H15A 3275   2.378   0.220   7.429  0.6654  1.1158 -1.2284
   45CHL1  H15B 3276   2.385   0.376   7.504 -0.1541  0.1496  0.0988
   45CHL1   C16 3277   2.285   0.229   7.630 -0.2134  0.4950 -0.1345
   45CHL1  H16A 3278   2.312   0.121   7.634  1.1046  0.8093 -0.3185
   45CHL1  H16B 3279   2.339   0.291   7.705  2.3156  0.1961 -1.5971
   45CHL1   C17 3280   2.129   0.236   7.643  0.6210 -0.1636 -0.5176
   45CHL1   H17 3281   2.101   0.333   7.688 -1.0913 -1.3642  1.1563
   45CHL1   C13 3282   2.076   0.240   7.493  0.4002 -0.9823  0.6839
   45CHL1   C18 3283   2.085   0.098   7.441 -0.0378 -0.0852  0.4776
   45CHL1  H18A 3284   2.064   0.097   7.331  0.3344 -1.2716  0.4113
   45CHL1  H18B 3285   2.190   0.065   7.442  0.1688  0.4522  3.3001
   45CHL1  H18C 3286   2.027   0.016   7.488 -1.4376 -0.9863 -2.4981
   45CHL1   C12 3287   1.943   0.309   7.460 -0.0002  0.2317 -0.4583
   45CHL1  H12A 3288   1.861   0.255   7.512  1.1641  0.4751  1.7402
   45CHL1  H12B 3289   1.933   0.413   7.497 -0.8515 -0.5552  1.6520
   45CHL1   C11 3290   1.911   0.324   7.313  0.2470 -0.7242  0.1966
   45CHL1  H11A 3291   1.899   0.223   7.269 -1.3554 -0.7485  0.6347
   45CHL1  H11B 3292   1.811   0.369   7.296 -0.5000 -2.5614 -0.5819
   45CHL1    C9 3293   2.024   0.402   7.240  0.8607 -0.8090  0.8687
   45CHL1    H9 3294   2.025   0.503   7.286  1.8925 -0.7034  0.6315
   45CHL1   C10 3295   2.001   0.407   7.079 -0.1461 -0.2657 -0.2266
   45CHL1   C19 3296   1.958   0.265   7.040  0.3287 -0.2691  0.0812
   45CHL1  H19A 3297   1.852   0.251   7.068  0.4662 -0.2430  0.6243
   45CHL1  H19B 3298   1.965   0.250   6.930 -0.4559  0.1944 -0.0411
   45CHL1  H19C 3299   2.025   0.194   7.093  0.4333  1.3087  2.1942
   45CHL1    C1 3300   1.889   0.513   7.060 -0.0974 -0.1995  0.1784
   45CHL1   H1A 3301   1.795   0.479   7.109 -0.0610 -0.9028 -0.2358
   45CHL1   H1B 3302   1.918   0.607   7.112  1.1405  0.3752 -1.4764
   45CHL1    C2 3303   1.860   0.551   6.915 -0.1448  0.4250 -0.2660
   45CHL1   H2A 3304   1.777   0.623   6.901 -1.1069 -0.6771 -0.3718
   45CHL1   H2B 3305   1.808   0.469   6.861 -1.1904  1.9255 -1.6252
   45CHL1   C20 3306   2.069   0.134   7.739 -0.0047 -0.4979  0.0201
   45CHL1   H20 3307   2.116   0.035   7.725  2.3831  0.7203 -1.1947
   45CHL1   C21 3308   1.918   0.121   7.736  0.2982 -0.6390  0.1938
   45CHL1  H21A 3309   1.885   0.028   7.788 -0.6588  0.0276  0.8072
   45CHL1  H21B 3310   1.891   0.079   7.637  5.3339 -1.0330 -1.2877
   45CHL1  H21C 3311   1.851   0.204   7.768  2.3474  1.7436 -1.3844
   45CHL1   C22 3312   2.130   0.160   7.877  0.1265  0.3958  0.7524
   45CHL1  H22A 3313   2.240   0.140   7.881  0.0113 -0.2112  1.0981
   45CHL1  H22B 3314   2.124   0.266   7.907  2.9962  0.5904  0.9649
   45CHL1   C23 3315   2.059   0.082   7.984 -0.6355 -0.1874 -0.0535
   45CHL1  H23A 3316   1.963   0.127   8.015  0.8462  1.9452  1.7767
   45CHL1  H23B 3317   2.043  -0.021   7.945  0.5071 -0.6042  0.5279
   45CHL1   C24 3318   2.145   0.079   8.113  0.1638  0.4250 -0.4093
   45CHL1  H24A 3319   2.227   0.005   8.101 -0.6737 -0.9338  1.6794
   45CHL1  H24B 3320   2.177   0.184   8.128 -2.4147  1.1407  0.6105
   45CHL1   C25 3321   2.073   0.033   8.232  0.1819  0.7800  0.0475
   45CHL1   H25 3322   1.987   0.103   8.245 -0.0571  0.4422  0.3207
   45CHL1   C26 3323   2.029  -0.115   8.228  0.1941 -0.1872 -0.1679
   45CHL1  H26A 3324   1.956  -0.140   8.149  1.6642 -1.3341 -1.2270
   45CHL1  H26B 3325   2.125  -0.172   8.225  1.3821  1.6818  0.4676
   45CHL1  H26C 3326   1.975  -0.136   8.323 -0.0530  4.3540  0.9112
   45CHL1   C27 3327   2.157   0.047   8.358 -0.3445  0.1054  0.2106
   45CHL1  H27A 3328   2.100   0.031   8.452  1.9859 -1.4105  1.4665
   45CHL1  H27B 3329   2.244  -0.022   8.363 -0.0605  0.3746 -0.7377
   45CHL1  H27C 3330   2.201   0.149   8.359  0.3502 -0.0964 -2.3300
   46CHL1    C3 3331   1.900   1.795   6.917 -0.8245  0.0589  0.1656
   46CHL1    H3 3332   1.814   1.865   6.904 -0.5421  0.4045  0.1331
   46CHL1    O3 3333   1.919   1.717   6.801  0.4961 -0.0653  0.4032
   46CHL1   H3' 3334   1.995   1.660   6.818 -0.3236 -1.4827 -0.5224
   46CHL1    C4 3335   2.027   1.853   6.961 -0.3229 -0.6238  0.0467
   46CHL1   H4A 3336   2.104   1.773   6.955  0.8500  0.4116  0.8554
   46CHL1   H4B 3337   2.065   1.934   6.895  0.2057 -1.5001 -0.7523
   46CHL1    C5 3338   2.023   1.903   7.104 -0.3421 -0.1352  0.5396
   46CHL1    C6 3339   2.055   2.037   7.120 -0.2512  0.7079  0.3508
   46CHL1    H6 3340   2.074   2.100   7.031  2.6719 -0.7177 -0.1497
   46CHL1    C7 3341   2.050   2.090   7.258  1.0858 -0.7707 -0.5637
   46CHL1   H7A 3342   2.127   2.167   7.277 -0.7358  1.4847 -1.7840
   46CHL1   H7B 3343   1.955   2.146   7.250  1.2769 -0.6050 -1.9245
   46CHL1    C8 3344   2.050   1.980   7.373  0.1737  0.4029 -0.1714
   46CHL1    H8 3345   2.150   1.934   7.387 -0.7627 -1.3135  1.1788
   46CHL1   C14 3346   2.009   2.044   7.506  0.3218  0.2694 -0.3211
   46CHL1   H14 3347   1.910   2.093   7.489 -1.1369 -2.0698  0.7868
   46CHL1   C15 3348   2.085   2.168   7.559  0.7620 -0.1432 -0.3279
   46CHL1  H15A 3349   2.190   2.141   7.534  0.1554 -3.2473  0.0083
   46CHL1  H15B 3350   2.054   2.265   7.517 -0.9955 -0.8868 -0.8420
   46CHL1   C16 3351   2.054   2.165   7.711 -0.2505 -0.0287  0.3535
   46CHL1  H16A 3352   2.155   2.162   7.758  0.0097  1.7987  0.0005
   46CHL1  H16B 3353   2.019   2.267   7.740 -1.0188  0.0015 -0.6282
   46CHL1   C17 3354   1.968   2.048   7.739 -0.6545 -0.0611 -0.4682
   46CHL1   H17 3355   1.862   2.076   7.723 -1.2057 -1.2309  0.9351
   46CHL1   C13 3356   2.000   1.950   7.624  0.3195  0.5345 -0.2731
   46CHL1   C18 3357   2.138   1.885   7.645  0.2230 -0.2565 -0.0740
   46CHL1  H18A 3358   2.160   1.807   7.569  1.8059 -0.2623  0.3589
   46CHL1  H18B 3359   2.227   1.951   7.645 -0.0838  0.1622  0.1621
   46CHL1  H18C 3360   2.148   1.828   7.740  1.2302  1.1170  0.6719
   46CHL1   C12 3361   1.891   1.847   7.594 -0.3430 -0.1907  0.0044
   46CHL1  H12A 3362   1.894   1.762   7.665 -0.2419  0.3424  0.6470
   46CHL1  H12B 3363   1.794   1.902   7.604 -0.1605  0.1456 -0.0708
   46CHL1   C11 3364   1.916   1.784   7.455 -0.3593  0.2721 -0.4696
   46CHL1  H11A 3365   2.007   1.721   7.466  1.0822  2.5714  1.5416
   46CHL1  H11B 3366   1.825   1.721   7.443 -2.4185  2.2838  2.8938
   46CHL1    C9 3367   1.946   1.878   7.339  0.0652  0.0529 -0.0414
   46CHL1    H9 3368   1.852   1.936   7.324  1.0118  2.3686  2.1045
   46CHL1   C10 3369   1.978   1.803   7.204 -0.3699 -0.4964  0.0980
   46CHL1   C19 3370   2.101   1.707   7.224 -0.9162 -0.7571  0.4131
   46CHL1  H19A 3371   2.182   1.760   7.280 -1.5947  0.6968  0.0564
   46CHL1  H19B 3372   2.070   1.619   7.284 -2.3234 -1.1467 -0.8284
   46CHL1  H19C 3373   2.132   1.658   7.129  0.0054 -1.6121  1.1308
   46CHL1    C1 3374   1.861   1.718   7.161 -0.3347 -0.2357 -1.3026
   46CHL1   H1A 3375   1.851   1.627   7.223  0.6975 -0.0199 -0.8088
   46CHL1   H1B 3376   1.772   1.781   7.184  1.3358  1.6491  0.4289
   46CHL1    C2 3377   1.857   1.680   7.015 -0.6368 -0.3598 -0.1247
   46CHL1   H2A 3378   1.763   1.625   6.992 -1.7037  1.3018  0.1061
   46CHL1   H2B 3379   1.943   1.609   7.008 -0.4315 -0.5846  3.1930
   46CHL1   C20 3380   1.990   1.997   7.886 -0.3889  0.0133  0.2775
   46CHL1   H20 3381   2.099   1.982   7.896 -0.6879 -1.2755  1.9983
   46CHL1   C21 3382   1.926   1.871   7.919 -0.2254  0.1870  0.0631
   46CHL1  H21A 3383   1.925   1.852   8.028  2.5062 -2.8622 -0.2724
   46CHL1  H21B 3384   1.981   1.792   7.864 -1.7007  0.2552 -1.6041
   46CHL1  H21C 3385   1.823   1.866   7.879 -0.5088 -0.3047  0.8255
   46CHL1   C22 3386   1.961   2.108   7.991 -0.0339 -0.2294  0.2888
   46CHL1  H22A 3387   2.007   2.204   7.958  1.3847 -0.2771  2.0007
   46CHL1  H22B 3388   1.853   2.116   8.017 -0.5105 -2.7744 -0.5879
   46CHL1   C23 3389   2.026   2.076   8.128  0.2717  0.1232 -0.3773
   46CHL1  H23A 3390   1.986   1.985   8.178 -0.6068  1.5775  1.7198
   46CHL1  H23B 3391   2.133   2.048   8.117  0.4585 -0.9962  2.9206
   46CHL1   C24 3392   2.007   2.185   8.236  0.7783  0.2704 -0.3044
   46CHL1  H24A 3393   2.086   2.262   8.224  1.0614 -0.1012 -0.8181
   46CHL1  H24B 3394   1.909   2.237   8.223 -0.6455 -1.9232  0.9690
   46CHL1   C25 3395   2.010   2.136   8.381 -0.0111  0.0852  0.0460
   46CHL1   H25 3396   1.938   2.052   8.394 -0.3473  0.2219 -0.8626
   46CHL1   C26 3397   2.149   2.089   8.419  0.6258  0.3258 -0.6225
   46CHL1  H26A 3398   2.214   2.179   8.411 -0.6893  1.3613 -0.1008
   46CHL1  H26B 3399   2.153   2.076   8.529 -1.0409 -0.6838 -0.6461
   46CHL1  H26C 3400   2.181   1.994   8.371 -0.5967 -0.8173  0.7753
   46CHL1   C27 3401   1.987   2.255   8.465  0.4831 -0.8193  0.5978
   46CHL1  H27A 3402   2.004   2.238   8.573  0.4002 -0.2733  0.7005
   46CHL1  H27B 3403   2.054   2.338   8.434 -1.0177 -0.6619 -2.6653
   46CHL1  H27C 3404   1.882   2.294   8.459  0.6184 -0.6520 -2.1558
   47CHL1    C3 3405   0.916   1.900   6.704 -0.1983 -0.5101  0.7345
   47CHL1    H3 3406   0.885   2.001   6.738 -1.0342  0.7302 -3.1735
   47CHL1    O3 3407   0.933   1.925   6.568  0.0681 -0.1330 -0.3173
   47CHL1   H3' 3408   1.017   1.968   6.558 -0.2726  0.4576 -0.6577
   47CHL1    C4 3409   1.052   1.862   6.772  0.3877 -0.4763 -0.7022
   47CHL1   H4A 3410   1.101   1.769   6.736 -1.9455 -1.5107 -1.3285
   47CHL1   H4B 3411   1.131   1.939   6.755 -1.1534  1.4146  0.3105
   47CHL1    C5 3412   1.037   1.852   6.921  0.0838  0.1006  0.7295
   47CHL1    C6 3413   1.109   1.937   7.003  0.5758  0.4742 -0.2249
   47CHL1    H6 3414   1.167   2.020   6.960  0.4258 -0.7120 -2.9144
   47CHL1    C7 3415   1.087   1.932   7.147 -0.1037  0.4757 -0.4460
   47CHL1   H7A 3416   1.189   1.941   7.190 -0.1457 -1.2705  0.1028
   47CHL1   H7B 3417   1.017   2.007   7.189 -2.3777 -0.4430 -2.3932
   47CHL1    C8 3418   1.028   1.799   7.200 -0.0630  0.8756  0.0069
   47CHL1    H8 3419   1.104   1.719   7.189 -0.9411  0.0483 -0.1237
   47CHL1   C14 3420   1.004   1.802   7.354  0.0638 -0.4279  0.6263
   47CHL1   H14 3421   0.931   1.885   7.365  1.1463  0.4814  1.1572
   47CHL1   C15 3422   1.127   1.826   7.435  0.5507 -0.2000 -0.2861
   47CHL1  H15A 3423   1.213   1.764   7.402  0.8224 -0.7212  1.3299
   47CHL1  H15B 3424   1.181   1.923   7.439  0.4284 -0.1471  0.0998
   47CHL1   C16 3425   1.075   1.789   7.580 -0.0459 -0.4682 -0.1127
   47CHL1  H16A 3426   1.140   1.714   7.630 -0.8029  0.6067  2.6697
   47CHL1  H16B 3427   1.061   1.874   7.650 -0.7270  0.9001 -1.8421
   47CHL1   C17 3428   0.932   1.721   7.560  0.0157  0.2839 -0.2060
   47CHL1   H17 3429   0.850   1.795   7.562  1.2060  1.6252  0.7952
   47CHL1   C13 3430   0.932   1.682   7.404 -0.0501 -0.4475 -0.4842
   47CHL1   C18 3431   1.024   1.552   7.390  0.2561 -0.4284 -0.0772
   47CHL1  H18A 3432   1.037   1.539   7.280 -0.0685  1.7164 -0.4083
   47CHL1  H18B 3433   1.118   1.565   7.447  0.5090  1.2060 -0.8122
   47CHL1  H18C 3434   0.971   1.459   7.420 -2.5031  0.8969 -0.5338
   47CHL1   C12 3435   0.800   1.666   7.339 -0.6540  0.0019  0.7808
   47CHL1  H12A 3436   0.764   1.568   7.378 -0.4093 -0.0947  0.7635
   47CHL1  H12B 3437   0.718   1.736   7.364 -0.4049  0.8617 -0.6886
   47CHL1   C11 3438   0.815   1.646   7.179 -0.3061  0.2999 -0.0651
   47CHL1  H11A 3439   0.864   1.547   7.166 -0.6275 -0.1842  2.0451
   47CHL1  H11B 3440   0.718   1.632   7.127  0.2673  0.6050 -1.2369
   47CHL1    C9 3441   0.899   1.762   7.124  0.4826 -0.1491 -0.0656
   47CHL1    H9 3442   0.832   1.845   7.155 -1.2266 -2.3469  2.5903
   47CHL1   C10 3443   0.927   1.753   6.972 -0.3482 -0.2866 -0.0119
   47CHL1   C19 3444   0.973   1.612   6.945 -0.5238  0.9841 -0.2132
   47CHL1  H19A 3445   0.889   1.540   6.961 -0.3507  0.6926 -0.5832
   47CHL1  H19B 3446   0.999   1.595   6.838  1.0135 -0.3801  0.3321
   47CHL1  H19C 3447   1.057   1.573   7.005 -2.2307  0.1455  1.7386
   47CHL1    C1 3448   0.801   1.783   6.894 -0.3568 -0.6297  0.3881
   47CHL1   H1A 3449   0.724   1.710   6.926 -0.2774 -0.9764 -0.1887
   47CHL1   H1B 3450   0.765   1.885   6.921 -0.2583  0.0316 -1.7365
   47CHL1    C2 3451   0.816   1.791   6.741  0.0648 -0.5745 -0.0902
   47CHL1   H2A 3452   0.718   1.820   6.697 -0.8043 -2.2889  0.5885
   47CHL1   H2B 3453   0.845   1.691   6.701 -1.3566 -1.3402  0.6975
   47CHL1   C20 3454   0.899   1.613   7.667 -0.0945 -0.6324  0.4214
   47CHL1   H20 3455   0.957   1.524   7.636  0.0757 -0.3850  0.0244
   47CHL1   C21 3456   0.744   1.613   7.671 -0.3179  0.2799 -0.0447
   47CHL1  H21A 3457   0.700   1.605   7.569  1.4510  3.6226 -1.2437
   47CHL1  H21B 3458   0.697   1.711   7.696 -1.0048  0.4574 -1.8674
   47CHL1  H21C 3459   0.689   1.538   7.732 -1.3824  0.8275 -0.2976
   47CHL1   C22 3460   0.944   1.652   7.809  0.4377  0.9910 -0.2939
   47CHL1  H22A 3461   1.051   1.684   7.805  0.3047  1.6630  1.0342
   47CHL1  H22B 3462   0.888   1.743   7.840  1.3887  0.8001  2.1928
   47CHL1   C23 3463   0.934   1.533   7.904  0.4984  0.1391 -0.3154
   47CHL1  H23A 3464   0.826   1.508   7.906  0.2033  1.0166  3.3429
   47CHL1  H23B 3465   0.998   1.445   7.881 -0.6416 -0.1433 -2.6752
   47CHL1   C24 3466   0.973   1.577   8.051  0.0612 -0.0717  0.2070
   47CHL1  H24A 3467   1.074   1.622   8.049 -0.0381  0.1345 -0.2953
   47CHL1  H24B 3468   0.897   1.653   8.078  0.5777  1.0260 -1.3212
   47CHL1   C25 3469   0.963   1.458   8.146  0.0164 -0.4251  0.0730
   47CHL1   H25 3470   1.033   1.380   8.110 -1.7805 -1.4370 -1.4110
   47CHL1   C26 3471   1.026   1.504   8.278 -0.1742  0.0122 -0.0565
   47CHL1  H26A 3472   0.972   1.590   8.323 -2.7891 -1.2181 -0.6441
   47CHL1  H26B 3473   1.015   1.415   8.344  0.4302 -1.1216 -1.4057
   47CHL1  H26C 3474   1.132   1.537   8.270 -0.8745  3.7597  3.1159
   47CHL1   C27 3475   0.822   1.414   8.182  0.1116  0.1281  0.3809
   47CHL1  H27A 3476   0.755   1.499   8.207 -2.8534 -1.3530 -1.9183
   47CHL1  H27B 3477   0.773   1.356   8.101 -1.2262 -3.3523  3.4457
   47CHL1  H27C 3478   0.821   1.334   8.259  0.1891  0.0114  0.2608
   48CHL1    C3 3479   4.454   4.671   6.448  0.6969  0.0578 -0.3154
   48CHL1    H3 3480   4.376   4.747   6.468 -0.3507 -1.2943  0.9456
   48CHL1    O3 3481   4.462   4.642   6.310  0.1210  0.3625  0.0911
   48CHL1   H3' 3482   4.496   4.721   6.267  0.1250 -0.6769 -1.9146
   48CHL1    C4 3483   4.596   4.714   6.486 -0.6993 -0.6096 -0.6744
   48CHL1   H4A 3484   4.671   4.639   6.455  1.7899  0.3726  2.4001
   48CHL1   H4B 3485   4.637   4.801   6.431 -0.6636 -0.7883 -0.9302
   48CHL1    C5 3486   4.598   4.741   6.632 -0.6305 -0.3263  0.1205
   48CHL1    C6 3487   4.639   4.864   6.671 -0.3457  0.4593 -0.2597
   48CHL1    H6 3488   4.673   4.937   6.596  2.2082 -1.0839 -0.7253
   48CHL1    C7 3489   4.644   4.905   6.819  0.3840 -0.0745  0.5132
   48CHL1   H7A 3490   4.735   4.964   6.846  0.4631 -0.3734  0.9157
   48CHL1   H7B 3491   4.558   4.972   6.840  0.0835 -0.2846 -0.0449
   48CHL1    C8 3492   4.637   4.781   6.915  0.3465  0.4247 -0.5564
   48CHL1    H8 3493   4.730   4.721   6.904 -0.7569 -1.0849 -2.1935
   48CHL1   C14 3494   4.621   4.817   7.062 -0.0821 -0.6853  0.3067
   48CHL1   H14 3495   4.535   4.887   7.063  0.9661  0.8153 -2.7518
   48CHL1   C15 3496   4.741   4.903   7.118 -0.0825 -0.1484 -0.1295
   48CHL1  H15A 3497   4.830   4.839   7.103 -0.0008 -0.0394 -0.1123
   48CHL1  H15B 3498   4.753   5.005   7.075 -2.8732  0.2641 -0.1115
   48CHL1   C16 3499   4.712   4.898   7.269 -0.3176 -0.0549 -0.3597
   48CHL1  H16A 3500   4.810   4.890   7.321 -0.4260 -1.1850 -0.2994
   48CHL1  H16B 3501   4.657   4.992   7.292  1.8417  0.6005  2.8225
   48CHL1   C17 3502   4.604   4.784   7.291 -0.7664 -0.1105 -0.0047
   48CHL1   H17 3503   4.504   4.830   7.285 -0.6800 -0.0528 -1.3072
   48CHL1   C13 3504   4.608   4.697   7.157  0.3544 -0.5967  0.0982
   48CHL1   C18 3505   4.731   4.599   7.155 -0.0788 -0.3527 -0.2722
   48CHL1  H18A 3506   4.824   4.652   7.184 -1.4297  2.7817 -1.3336
   48CHL1  H18B 3507   4.728   4.509   7.221  2.7781 -0.9823 -0.8764
   48CHL1  H18C 3508   4.747   4.559   7.053 -1.3916 -1.5859 -0.0339
   48CHL1   C12 3509   4.473   4.633   7.114 -0.0356 -0.0736 -0.4256
   48CHL1  H12A 3510   4.439   4.552   7.182  1.5890  0.6858  1.4218
   48CHL1  H12B 3511   4.393   4.710   7.124 -1.3139 -1.5858  2.1204
   48CHL1   C11 3512   4.483   4.581   6.979 -0.1570 -1.1578 -0.3272
   48CHL1  H11A 3513   4.553   4.495   6.976 -0.9747 -1.8021 -1.7524
   48CHL1  H11B 3514   4.381   4.545   6.951 -1.1141  0.9714  0.2268
   48CHL1    C9 3515   4.523   4.682   6.870 -0.3273 -0.1037 -0.3439
   48CHL1    H9 3516   4.433   4.746   6.856 -1.2781 -1.7028 -1.8444
   48CHL1   C10 3517   4.542   4.627   6.722 -0.1505 -0.0407 -0.0495
   48CHL1   C19 3518   4.656   4.521   6.710  0.3178  0.4050  0.1080
   48CHL1  H19A 3519   4.662   4.477   6.608  1.4405  0.3630  0.1826
   48CHL1  H19B 3520   4.756   4.555   6.743  0.5084 -0.3317  0.3151
   48CHL1  H19C 3521   4.622   4.444   6.783  0.2794 -1.6727 -1.9982
   48CHL1    C1 3522   4.406   4.569   6.669  0.3356  1.1422 -0.0214
   48CHL1   H1A 3523   4.369   4.483   6.730  0.4225 -0.2392 -1.8304
   48CHL1   H1B 3524   4.329   4.648   6.672 -0.7382  0.1219  0.1226
   48CHL1    C2 3525   4.405   4.538   6.517  0.4601  0.2273 -0.5745
   48CHL1   H2A 3526   4.300   4.514   6.489  0.3835 -0.3570  0.1839
   48CHL1   H2B 3527   4.471   4.451   6.495 -1.3959 -1.5897  0.5798
   48CHL1   C20 3528   4.619   4.707   7.425  0.6003 -0.1501 -0.1358
   48CHL1   H20 3529   4.577   4.606   7.405  0.0085  0.6397 -3.3520
   48CHL1   C21 3530   4.523   4.781   7.528 -0.4124  0.0422  0.5886
   48CHL1  H21A 3531   4.418   4.775   7.493 -0.5504  1.1893  0.7673
   48CHL1  H21B 3532   4.561   4.886   7.535  3.8780 -1.0524 -2.3355
   48CHL1  H21C 3533   4.523   4.739   7.631  1.6131  0.9675  1.0193
   48CHL1   C22 3534   4.764   4.705   7.489  0.2154 -0.1669 -0.3642
   48CHL1  H22A 3535   4.844   4.679   7.416  1.3105  1.9211  0.0281
   48CHL1  H22B 3536   4.797   4.806   7.521 -1.9023  0.2208  0.7577
   48CHL1   C23 3537   4.779   4.616   7.610 -0.2388  0.0330  0.4685
   48CHL1  H23A 3538   4.693   4.629   7.679  1.4820 -0.1479  2.7750
   48CHL1  H23B 3539   4.782   4.510   7.578 -0.8271  0.2714 -0.4009
   48CHL1   C24 3540   4.901   4.639   7.701  0.2532  0.3206  0.3689
   48CHL1  H24A 3541   4.996   4.602   7.656  0.0284  2.2267 -1.8841
   48CHL1  H24B 3542   4.899   4.750   7.713 -2.2426  0.2196  1.4473
   48CHL1   C25 3543   4.877   4.576   7.839 -0.1014 -0.0845 -0.8497
   48CHL1   H25 3544   4.770   4.588   7.866  0.5156 -0.3048  2.0390
   48CHL1   C26 3545   4.899   4.425   7.842 -0.3934 -0.1195  0.2476
   48CHL1  H26A 3546   5.006   4.398   7.827 -0.4123  0.5701 -1.2567
   48CHL1  H26B 3547   4.845   4.375   7.925 -0.9407 -0.1865 -0.1464
   48CHL1  H26C 3548   4.863   4.368   7.754  1.9035 -1.7204  0.2370
   48CHL1   C27 3549   4.939   4.649   7.961  0.0300 -0.4113  0.0688
   48CHL1  H27A 3550   5.050   4.644   7.967  0.0119 -0.7304  0.1563
   48CHL1  H27B 3551   4.903   4.751   7.987 -0.7841 -1.3020  2.8696
   48CHL1  H27C 3552   4.897   4.593   8.048 -0.3839 -0.3098 -0.0632
   49CHL1    C3 3553   4.118   5.014   6.814  0.4104  0.2807  0.4082
   49CHL1    H3 3554   4.026   4.953   6.823  1.2754 -1.5694 -2.1021
   49CHL1    O3 3555   4.145   5.010   6.671 -1.1759  0.0153 -0.3323
   49CHL1   H3' 3556   4.134   4.915   6.659 -2.6336 -0.7318  4.6419
   49CHL1    C4 3557   4.111   5.163   6.866  0.1205  0.8509  0.0408
   49CHL1   H4A 3558   4.207   5.215   6.849  0.3028  1.5505  2.7452
   49CHL1   H4B 3559   4.037   5.207   6.796 -1.6201  0.8284  1.7478
   49CHL1    C5 3560   4.078   5.177   7.010  0.3652 -0.0397 -0.0839
   49CHL1    C6 3561   3.971   5.239   7.052  0.0089  0.1753 -0.0800
   49CHL1    H6 3562   3.912   5.299   6.981 -0.2187  0.5925  0.4592
   49CHL1    C7 3563   3.930   5.239   7.197  0.4114  0.1104  0.4475
   49CHL1   H7A 3564   3.897   5.345   7.210  0.2070  0.0792  0.1778
   49CHL1   H7B 3565   3.854   5.158   7.199 -0.7246  1.0141 -2.0912
   49CHL1    C8 3566   4.035   5.206   7.306 -0.5818  0.6900  0.8126
   49CHL1    H8 3567   4.091   5.302   7.319 -2.9395  2.1216  0.9280
   49CHL1   C14 3568   3.975   5.172   7.441  0.0771 -0.1079  0.5151
   49CHL1   H14 3569   3.915   5.082   7.417 -1.6259  1.4404 -1.4612
   49CHL1   C15 3570   3.871   5.270   7.508  0.7452  0.7050 -0.1916
   49CHL1  H15A 3571   3.907   5.372   7.481  0.7495 -0.0928 -3.6789
   49CHL1  H15B 3572   3.770   5.264   7.464 -0.4938 -0.3196  2.5654
   49CHL1   C16 3573   3.887   5.234   7.658 -0.2498  0.5597  0.7583
   49CHL1  H16A 3574   3.914   5.333   7.701  1.7513  1.6098 -2.5409
   49CHL1  H16B 3575   3.803   5.188   7.713  0.5599  0.7274  2.1869
   49CHL1   C17 3576   4.001   5.128   7.664 -0.7949 -0.4272  0.5950
   49CHL1   H17 3577   3.938   5.036   7.664 -1.9411  0.3535  0.2585
   49CHL1   C13 3578   4.079   5.143   7.541 -0.1744 -0.1852  0.4663
   49CHL1   C18 3579   4.174   5.265   7.548  0.0122 -0.0169 -0.2230
   49CHL1  H18A 3580   4.242   5.250   7.635 -1.0500 -0.5213  0.5453
   49CHL1  H18B 3581   4.227   5.275   7.451  0.0221 -1.8346 -0.4360
   49CHL1  H18C 3582   4.123   5.363   7.559 -1.0405 -0.5774  0.0284
   49CHL1   C12 3583   4.154   5.013   7.496  0.7232 -0.2522  0.0194
   49CHL1  H12A 3584   4.232   4.989   7.571 -0.9231  0.4892  2.0556
   49CHL1  H12B 3585   4.073   4.938   7.486 -1.0839  1.5765  0.1987
   49CHL1   C11 3586   4.215   5.031   7.345  0.9852  0.8576 -0.7259
   49CHL1  H11A 3587   4.298   5.102   7.364  0.4903  1.0873  0.6325
   49CHL1  H11B 3588   4.268   4.933   7.331 -1.1383 -0.4085 -0.3309
   49CHL1    C9 3589   4.115   5.086   7.249  0.7150 -0.5573 -0.3807
   49CHL1    H9 3590   4.035   5.009   7.251  0.0827  0.0800 -0.6232
   49CHL1   C10 3591   4.159   5.097   7.103 -0.2665  0.0916 -0.2313
   49CHL1   C19 3592   4.287   5.179   7.100  0.5812  0.5899  0.3889
   49CHL1  H19A 3593   4.359   5.104   7.141  0.2106  0.0483  0.0571
   49CHL1  H19B 3594   4.331   5.219   7.006  1.6803 -1.5730 -0.1079
   49CHL1  H19C 3595   4.284   5.269   7.164 -1.3199  2.0460 -1.6216
   49CHL1    C1 3596   4.178   4.951   7.048  0.5911  0.5228  0.4414
   49CHL1   H1A 3597   4.239   4.885   7.114  1.0488  1.3155  0.8274
   49CHL1   H1B 3598   4.076   4.908   7.042 -0.0440  1.7404  1.8123
   49CHL1    C2 3599   4.221   4.936   6.901 -0.1965 -0.4251  0.6870
   49CHL1   H2A 3600   4.226   4.830   6.869 -0.6172 -0.6473  1.3342
   49CHL1   H2B 3601   4.320   4.981   6.878 -0.4682  0.5082  1.3042
   49CHL1   C20 3602   4.084   5.128   7.796 -0.0825 -0.0879 -0.4525
   49CHL1   H20 3603   4.188   5.093   7.780 -0.5279 -1.5567 -0.2700
   49CHL1   C21 3604   4.022   5.016   7.884 -0.0400 -0.2626  0.3840
   49CHL1  H21A 3605   3.997   4.919   7.836 -0.5326 -0.7748  1.6337
   49CHL1  H21B 3606   3.925   5.043   7.930 -0.3457 -0.7414  0.0334
   49CHL1  H21C 3607   4.092   5.003   7.969  1.0432 -0.8490 -0.5795
   49CHL1   C22 3608   4.098   5.261   7.871  0.0904  0.1083 -0.2119
   49CHL1  H22A 3609   4.148   5.333   7.802  1.1843 -0.3179  0.1164
   49CHL1  H22B 3610   3.998   5.301   7.899 -0.7813 -1.0732 -1.4667
   49CHL1   C23 3611   4.182   5.252   8.005 -0.4185  0.0781 -0.1022
   49CHL1  H23A 3612   4.119   5.215   8.088 -1.4828  1.5523 -0.2158
   49CHL1  H23B 3613   4.281   5.201   7.993  1.2770  3.2166 -0.6005
   49CHL1   C24 3614   4.223   5.390   8.062  0.1193 -0.3359  0.1236
   49CHL1  H24A 3615   4.303   5.424   7.993 -0.5566 -1.8999 -1.5328
   49CHL1  H24B 3616   4.132   5.453   8.048  1.8667  2.1380 -0.8729
   49CHL1   C25 3617   4.262   5.398   8.209  0.6843  0.6638 -0.2428
   49CHL1   H25 3618   4.179   5.339   8.255  1.5942 -1.1494 -0.8456
   49CHL1   C26 3619   4.388   5.321   8.237 -0.2966  0.2917 -0.3597
   49CHL1  H26A 3620   4.402   5.317   8.347 -1.1857  1.0722 -0.2057
   49CHL1  H26B 3621   4.383   5.214   8.208 -1.6836  0.2678 -0.0912
   49CHL1  H26C 3622   4.474   5.373   8.189  0.0742 -0.0124 -0.0271
   49CHL1   C27 3623   4.270   5.535   8.272 -0.2081  0.6764 -0.6989
   49CHL1  H27A 3624   4.276   5.536   8.383 -0.3719  2.1100 -0.6900
   49CHL1  H27B 3625   4.362   5.589   8.241  0.8839 -1.1944 -0.8701
   49CHL1  H27C 3626   4.179   5.582   8.231 -1.7751 -0.2765  1.4974
   50CHL1    C3 3627   3.521   6.698   6.920  0.0361 -0.8297  1.1870
   50CHL1    H3 3628   3.457   6.614   6.886  1.1335  0.0364 -3.7984
   50CHL1    O3 3629   3.550   6.762   6.793 -0.8240 -0.1285 -0.0858
   50CHL1   H3' 3630   3.579   6.850   6.817  0.3089 -0.6017  0.3335
   50CHL1    C4 3631   3.441   6.790   7.014  1.0346 -0.9626  1.2932
   50CHL1   H4A 3632   3.491   6.889   7.008  0.0031 -0.5145 -0.6135
   50CHL1   H4B 3633   3.347   6.810   6.958  1.8966 -0.6012 -0.0759
   50CHL1    C5 3634   3.406   6.735   7.149 -0.4591 -0.1477 -0.3678
   50CHL1    C6 3635   3.279   6.720   7.189 -0.6621  0.3403  0.0698
   50CHL1    H6 3636   3.201   6.750   7.117 -0.5491 -4.3617 -2.3538
   50CHL1    C7 3637   3.237   6.670   7.326 -0.3356 -1.1326  0.1692
   50CHL1   H7A 3638   3.159   6.735   7.371 -1.0265 -0.7142 -1.5684
   50CHL1   H7B 3639   3.194   6.567   7.320 -1.2416 -0.7730  0.2992
   50CHL1    C8 3640   3.364   6.690   7.420 -0.5540  0.4857  0.3827
   50CHL1    H8 3641   3.376   6.799   7.440  0.7211  0.5662 -0.6807
   50CHL1   C14 3642   3.331   6.614   7.552 -0.9704  0.1983  0.4348
   50CHL1   H14 3643   3.319   6.507   7.523  1.3181 -0.3058  1.1569
   50CHL1   C15 3644   3.208   6.668   7.621  0.3266  0.8683 -0.4056
   50CHL1  H15A 3645   3.191   6.778   7.618  1.0189  0.9669 -2.4450
   50CHL1  H15B 3646   3.122   6.619   7.570  0.3191  0.8618 -0.3867
   50CHL1   C16 3647   3.227   6.609   7.768 -0.5885  0.3347  0.5952
   50CHL1  H16A 3648   3.225   6.700   7.831  0.7167 -1.2039  2.9949
   50CHL1  H16B 3649   3.140   6.544   7.793  0.6755 -1.6358  0.0762
   50CHL1   C17 3650   3.369   6.541   7.774 -0.3314 -0.3826  0.0781
   50CHL1   H17 3651   3.352   6.438   7.736 -0.9288 -0.8419  1.5407
   50CHL1   C13 3652   3.442   6.615   7.656  0.4464  0.0685 -0.3072
   50CHL1   C18 3653   3.486   6.751   7.718 -0.3076 -0.2432  0.1565
   50CHL1  H18A 3654   3.573   6.739   7.786  0.1736  1.4050 -0.1420
   50CHL1  H18B 3655   3.516   6.821   7.638  1.0340 -1.9162 -0.8792
   50CHL1  H18C 3656   3.404   6.807   7.768 -1.1616 -1.6239  0.3731
   50CHL1   C12 3657   3.551   6.532   7.594 -0.4666  0.8927 -0.4757
   50CHL1  H12A 3658   3.637   6.518   7.662 -0.7971  1.3863  0.0546
   50CHL1  H12B 3659   3.517   6.432   7.561  1.7061 -0.3139  0.7223
   50CHL1   C11 3660   3.602   6.596   7.471 -0.5467  0.2498  0.0186
   50CHL1  H11A 3661   3.662   6.687   7.495  1.1875 -0.9335  0.3833
   50CHL1  H11B 3662   3.695   6.549   7.432  1.4293  3.1789  0.8289
   50CHL1    C9 3663   3.496   6.624   7.363  0.3713  0.2844  0.3253
   50CHL1    H9 3664   3.467   6.520   7.339 -1.2825  0.8082 -0.0930
   50CHL1   C10 3665   3.533   6.688   7.229 -0.1272 -1.1226 -0.1778
   50CHL1   C19 3666   3.604   6.816   7.272  0.0740 -0.0879 -0.0794
   50CHL1  H19A 3667   3.641   6.880   7.189  0.9500  0.2057  0.5285
   50CHL1  H19B 3668   3.547   6.886   7.336  1.3948  1.2973 -0.3719
   50CHL1  H19C 3669   3.695   6.788   7.330  1.1276  1.5309 -0.8607
   50CHL1    C1 3670   3.618   6.601   7.135 -0.1441  0.5704 -1.0189
   50CHL1   H1A 3671   3.720   6.581   7.176  0.1433  0.4225 -1.7901
   50CHL1   H1B 3672   3.564   6.504   7.125 -0.1582  0.0740  2.6648
   50CHL1    C2 3673   3.649   6.646   6.998  0.3882 -0.5418  0.4775
   50CHL1   H2A 3674   3.703   6.569   6.939 -0.4642 -0.5957 -0.2535
   50CHL1   H2B 3675   3.718   6.733   6.997 -0.1397 -0.0762 -2.2191
   50CHL1   C20 3676   3.429   6.531   7.915 -0.3360 -0.0989  0.2985
   50CHL1   H20 3677   3.450   6.636   7.947  0.6963  0.0742 -0.8537
   50CHL1   C21 3678   3.554   6.436   7.916  0.0046  0.3915 -0.1797
   50CHL1  H21A 3679   3.565   6.398   8.020  0.6519  0.0590 -0.3649
   50CHL1  H21B 3680   3.645   6.491   7.883 -0.4347  2.5776  1.9336
   50CHL1  H21C 3681   3.534   6.352   7.847  0.0055  0.3168 -0.0905
   50CHL1   C22 3682   3.319   6.464   8.014 -0.7022 -0.4623  0.3352
   50CHL1  H22A 3683   3.376   6.440   8.106  0.1108 -2.0324 -0.5442
   50CHL1  H22B 3684   3.242   6.540   8.042 -0.0719 -0.3568  1.9141
   50CHL1   C23 3685   3.253   6.334   7.973 -0.1968  0.0510  0.4791
   50CHL1  H23A 3686   3.184   6.348   7.887  1.6507  0.4390 -0.9970
   50CHL1  H23B 3687   3.331   6.262   7.940  2.6136  2.4535  1.4265
   50CHL1   C24 3688   3.190   6.268   8.102  0.5753  0.6880 -0.1600
   50CHL1  H24A 3689   3.263   6.254   8.185  0.9763  2.6872 -0.1355
   50CHL1  H24B 3690   3.109   6.329   8.146  0.6458  0.6828 -0.0232
   50CHL1   C25 3691   3.124   6.128   8.071  1.0306  0.5264 -0.2782
   50CHL1   H25 3692   3.208   6.060   8.045  0.2208 -0.0844 -1.4313
   50CHL1   C26 3693   3.061   6.069   8.204 -0.1390 -0.7195 -0.4657
   50CHL1  H26A 3694   3.038   5.964   8.178 -3.5075 -0.1189 -0.4418
   50CHL1  H26B 3695   3.128   6.074   8.292 -1.5891  1.4597  0.6317
   50CHL1  H26C 3696   2.966   6.122   8.230 -0.4569 -1.2622 -0.5145
   50CHL1   C27 3697   3.025   6.124   7.945  0.0571  0.0472  0.1490
   50CHL1  H27A 3698   2.978   6.025   7.929  1.5243 -0.3746 -1.8967
   50CHL1  H27B 3699   2.948   6.204   7.949  1.4391  1.5323 -1.2030
   50CHL1  H27C 3700   3.088   6.141   7.855 -1.5018 -0.2489 -1.0333
   51CHL1    C3 3701   4.071   5.664   6.828  0.7657  0.0208  0.6433
   51CHL1    H3 3702   3.972   5.710   6.847  0.8734  0.0550  1.1403
   51CHL1    O3 3703   4.073   5.613   6.698 -0.4256  0.0855  0.0203
   51CHL1   H3' 3704   4.161   5.579   6.680 -1.1143  0.1609 -4.5841
   51CHL1    C4 3705   4.180   5.778   6.843 -0.1560  0.3358 -0.7424
   51CHL1   H4A 3706   4.280   5.733   6.826 -0.9335 -2.2781  0.9539
   51CHL1   H4B 3707   4.158   5.856   6.767  3.4912  1.9897 -0.3211
   51CHL1    C5 3708   4.199   5.822   6.989  0.8272  0.0406 -0.5963
   51CHL1    C6 3709   4.169   5.944   7.026 -0.5591 -0.2748 -0.6006
   51CHL1    H6 3710   4.137   6.017   6.950  0.3577  0.1259 -0.6132
   51CHL1    C7 3711   4.175   5.993   7.171  0.8445  0.0569 -0.2493
   51CHL1   H7A 3712   4.224   6.092   7.181  2.1810 -0.6159  0.1962
   51CHL1   H7B 3713   4.078   6.004   7.223 -0.0649 -0.5722 -1.7531
   51CHL1    C8 3714   4.259   5.893   7.260 -0.4481  0.0378 -0.0375
   51CHL1    H8 3715   4.367   5.905   7.238  0.2691 -1.0199  2.4558
   51CHL1   C14 3716   4.237   5.929   7.405 -0.0461 -0.0437  0.3693
   51CHL1   H14 3717   4.130   5.907   7.429  0.3004 -1.0776  1.0228
   51CHL1   C15 3718   4.250   6.076   7.451  0.4038 -0.2367  0.1346
   51CHL1  H15A 3719   4.337   6.137   7.418  0.0977  0.3099  0.3188
   51CHL1  H15B 3720   4.159   6.135   7.426  0.3252 -0.4121  0.0077
   51CHL1   C16 3721   4.270   6.063   7.605  0.5880  0.2355 -0.5172
   51CHL1  H16A 3722   4.369   6.095   7.643 -0.6193  1.0406  2.2122
   51CHL1  H16B 3723   4.199   6.123   7.667  1.2192 -1.0404  1.5522
   51CHL1   C17 3724   4.268   5.906   7.638  0.4965 -0.3927 -0.4784
   51CHL1   H17 3725   4.164   5.872   7.651  0.6261 -0.5007  0.3290
   51CHL1   C13 3726   4.310   5.843   7.504  0.1368  0.5208  0.1688
   51CHL1   C18 3727   4.465   5.846   7.491  0.1617  0.5008  0.7098
   51CHL1  H18A 3728   4.512   5.945   7.504  0.7782  0.2255  0.6125
   51CHL1  H18B 3729   4.509   5.791   7.576  1.8009  0.8519  0.1232
   51CHL1  H18C 3730   4.495   5.808   7.391  0.1961  0.7786  0.6153
   51CHL1   C12 3731   4.260   5.692   7.482  0.1659  0.4423  0.4761
   51CHL1  H12A 3732   4.316   5.626   7.551 -1.1171  0.7494  1.8463
   51CHL1  H12B 3733   4.150   5.697   7.499  0.3851  1.1778  1.7644
   51CHL1   C11 3734   4.277   5.646   7.339 -0.1797 -0.1185  0.3911
   51CHL1  H11A 3735   4.384   5.630   7.314 -0.1157  1.6576 -0.6181
   51CHL1  H11B 3736   4.223   5.549   7.342 -0.4874  0.0137 -0.5255
   51CHL1    C9 3737   4.209   5.744   7.239  0.5887 -0.1098  0.5352
   51CHL1    H9 3738   4.099   5.750   7.250  0.4548  1.0240 -1.1782
   51CHL1   C10 3739   4.226   5.708   7.090  0.2255 -0.4533  0.0879
   51CHL1   C19 3740   4.378   5.670   7.067 -0.4233 -0.0855 -0.3353
   51CHL1  H19A 3741   4.436   5.758   7.102  1.8468 -2.0565  1.1249
   51CHL1  H19B 3742   4.397   5.574   7.119  0.7171 -0.0859 -0.7159
   51CHL1  H19C 3743   4.398   5.651   6.959 -1.5041 -2.9720 -0.0980
   51CHL1    C1 3744   4.131   5.593   7.058  0.3283 -0.8828 -0.1409
   51CHL1   H1A 3745   4.174   5.504   7.110  1.3828  0.7631  1.9607
   51CHL1   H1B 3746   4.032   5.613   7.104  0.2510 -1.9715  0.1964
   51CHL1    C2 3747   4.114   5.547   6.914 -0.3179 -0.1203 -0.1045
   51CHL1   H2A 3748   4.040   5.464   6.918  0.8364 -1.1836 -0.1295
   51CHL1   H2B 3749   4.205   5.496   6.875  0.1695  0.4461  0.2874
   51CHL1   C20 3750   4.338   5.877   7.776 -0.2305  0.6032 -0.2762
   51CHL1   H20 3751   4.448   5.888   7.762  0.0292 -1.8840 -0.5832
   51CHL1   C21 3752   4.311   5.731   7.813  0.5482  0.5282 -0.7258
   51CHL1  H21A 3753   4.337   5.704   7.917 -0.9080 -0.6367 -0.6268
   51CHL1  H21B 3754   4.374   5.659   7.755  1.9435 -0.5391  1.9379
   51CHL1  H21C 3755   4.205   5.707   7.791 -0.2035  3.5322 -0.6879
   51CHL1   C22 3756   4.290   5.973   7.887  0.7791 -0.7444  0.3293
   51CHL1  H22A 3757   4.326   6.077   7.871 -0.6424  0.2871  3.2185
   51CHL1  H22B 3758   4.179   5.979   7.883  0.8886  2.3593 -0.5157
   51CHL1   C23 3759   4.336   5.941   8.032  0.4510  0.9328  0.7840
   51CHL1  H23A 3760   4.303   5.841   8.065 -0.6749  0.9346 -0.2477
   51CHL1  H23B 3761   4.447   5.942   8.028  0.5031 -0.6996  1.2680
   51CHL1   C24 3762   4.287   6.036   8.140  0.2485 -0.0885  0.8909
   51CHL1  H24A 3763   4.283   6.138   8.096 -1.2217 -0.1974  0.6977
   51CHL1  H24B 3764   4.184   6.002   8.166  0.4169 -2.3659 -1.0645
   51CHL1   C25 3765   4.365   6.053   8.273  0.0331 -0.1059 -0.2949
   51CHL1   H25 3766   4.295   6.129   8.313  0.5866 -0.1237  0.7280
   51CHL1   C26 3767   4.378   5.926   8.354  0.4692 -0.2152 -0.4471
   51CHL1  H26A 3768   4.434   5.962   8.443 -1.1677  1.4280 -0.0210
   51CHL1  H26B 3769   4.279   5.903   8.398 -0.7236 -0.0696 -2.9269
   51CHL1  H26C 3770   4.424   5.837   8.306  1.4597 -0.6735  1.2494
   51CHL1   C27 3771   4.501   6.122   8.244  0.0476  0.7016  0.0490
   51CHL1  H27A 3772   4.564   6.057   8.180  0.7471 -0.0959  1.5128
   51CHL1  H27B 3773   4.477   6.215   8.187  0.7655 -0.4535 -2.2593
   51CHL1  H27C 3774   4.565   6.133   8.334  1.4392  1.4549 -0.9964
   52CHL1    C3 3775   5.352   1.761   6.945 -0.5021 -0.5273 -0.2016
   52CHL1    H3 3776   5.269   1.831   6.968  0.9188  1.0667  0.3036
   52CHL1    O3 3777   5.369   1.769   6.806 -0.3953 -0.6413  0.3913
   52CHL1   H3' 3778   5.458   1.801   6.789 -0.8293  0.2742 -0.2748
   52CHL1    C4 3779   5.477   1.798   7.025 -0.0581 -0.6038  0.1947
   52CHL1   H4A 3780   5.559   1.741   6.976 -0.0295  0.6115 -1.2464
   52CHL1   H4B 3781   5.496   1.905   7.003 -0.2789 -0.5161  0.4264
   52CHL1    C5 3782   5.455   1.776   7.175 -0.5812  0.7820 -0.1606
   52CHL1    C6 3783   5.467   1.877   7.264  0.0570 -0.7311  0.7760
   52CHL1    H6 3784   5.496   1.968   7.211 -1.5475 -0.9389 -0.5302
   52CHL1    C7 3785   5.447   1.862   7.412 -0.0175 -0.5175  0.0087
   52CHL1   H7A 3786   5.528   1.916   7.465 -1.6626 -0.8227  3.0758
   52CHL1   H7B 3787   5.351   1.909   7.441 -1.4739 -1.3492 -2.9988
   52CHL1    C8 3788   5.443   1.719   7.463  0.5080  0.5934  0.0971
   52CHL1    H8 3789   5.548   1.684   7.460  1.0965  2.3540 -2.1306
   52CHL1   C14 3790   5.397   1.717   7.606  0.1447  0.5450 -0.6853
   52CHL1   H14 3791   5.287   1.736   7.607 -0.0034 -0.2070  1.0386
   52CHL1   C15 3792   5.458   1.819   7.708 -0.5537 -0.7527  0.8314
   52CHL1  H15A 3793   5.566   1.833   7.684 -0.4909 -0.3286  1.3511
   52CHL1  H15B 3794   5.397   1.912   7.706 -1.8348 -1.5926  0.3340
   52CHL1   C16 3795   5.436   1.750   7.847 -0.0987 -0.6219  0.2449
   52CHL1  H16A 3796   5.538   1.738   7.888 -0.0528 -0.3275  0.2165
   52CHL1  H16B 3797   5.378   1.815   7.916  0.0795 -1.6637  1.4249
   52CHL1   C17 3798   5.363   1.615   7.816 -0.8679 -0.0354 -0.0114
   52CHL1   H17 3799   5.254   1.636   7.822 -1.3772 -1.6964 -2.2334
   52CHL1   C13 3800   5.408   1.582   7.671  0.1547 -0.2012  0.3889
   52CHL1   C18 3801   5.553   1.528   7.684 -0.2742  0.1171  0.2565
   52CHL1  H18A 3802   5.554   1.423   7.719  2.5034  0.0386  0.1680
   52CHL1  H18B 3803   5.587   1.528   7.579  0.4731  2.5177  0.4226
   52CHL1  H18C 3804   5.625   1.593   7.739 -0.6666  1.6540 -0.9639
   52CHL1   C12 3805   5.315   1.487   7.587 -0.2078  0.0130  0.1389
   52CHL1  H12A 3806   5.337   1.387   7.630  1.6648  0.4275  0.2411
   52CHL1  H12B 3807   5.210   1.517   7.606 -0.0812  0.2140  0.5359
   52CHL1   C11 3808   5.348   1.486   7.438  0.1517 -0.3362 -0.3413
   52CHL1  H11A 3809   5.440   1.424   7.441  0.5813  0.3283  0.3836
   52CHL1  H11B 3810   5.268   1.437   7.377 -0.3741  2.3293 -1.9228
   52CHL1    C9 3811   5.356   1.628   7.376 -0.0641 -0.0699 -0.3036
   52CHL1    H9 3812   5.251   1.663   7.370  0.2792  1.0836 -0.0400
   52CHL1   C10 3813   5.407   1.631   7.229 -0.0902  0.0773  0.2898
   52CHL1   C19 3814   5.528   1.538   7.209 -0.2248 -0.3740  0.6173
   52CHL1  H19A 3815   5.611   1.547   7.281 -0.6119  0.2965  0.9936
   52CHL1  H19B 3816   5.499   1.431   7.212  2.0040 -1.0105  0.7696
   52CHL1  H19C 3817   5.577   1.552   7.110 -0.0224  0.8719  0.8791
   52CHL1    C1 3818   5.292   1.599   7.133 -0.2320 -0.2211 -0.5392
   52CHL1   H1A 3819   5.268   1.493   7.157 -0.9920 -0.2957 -1.5397
   52CHL1   H1B 3820   5.200   1.659   7.150  0.0486 -0.0427  0.3545
   52CHL1    C2 3821   5.322   1.623   6.980  0.7243  0.4275 -0.6703
   52CHL1   H2A 3822   5.227   1.595   6.929 -1.4823  1.0682  2.8211
   52CHL1   H2B 3823   5.404   1.553   6.952  0.7070  1.5180 -3.9252
   52CHL1   C20 3824   5.368   1.504   7.924  1.0174 -0.0359 -0.2895
   52CHL1   H20 3825   5.461   1.445   7.914 -0.3925 -2.4253 -0.0971
   52CHL1   C21 3826   5.247   1.403   7.907  0.6628  0.0575 -0.3333
   52CHL1  H21A 3827   5.152   1.462   7.914  0.9517  0.4656  0.2801
   52CHL1  H21B 3828   5.239   1.327   7.988 -2.6231  0.3830 -0.2020
   52CHL1  H21C 3829   5.247   1.350   7.809  0.6687  2.0836 -1.4831
   52CHL1   C22 3830   5.370   1.565   8.067 -0.4119  0.0377 -0.3995
   52CHL1  H22A 3831   5.448   1.643   8.072 -1.7361  1.3934 -0.0406
   52CHL1  H22B 3832   5.278   1.618   8.102  1.2532  3.2151 -0.4601
   52CHL1   C23 3833   5.417   1.456   8.167 -0.3666  0.6452 -0.2394
   52CHL1  H23A 3834   5.336   1.381   8.182  0.0368  0.0640 -0.8954
   52CHL1  H23B 3835   5.510   1.408   8.130 -0.3884  0.2270  0.2312
   52CHL1   C24 3836   5.467   1.507   8.307  0.4751  0.3040 -0.1235
   52CHL1  H24A 3837   5.531   1.597   8.296 -0.4085  1.4531  3.1130
   52CHL1  H24B 3838   5.382   1.538   8.372  0.6123 -0.1623  0.2868
   52CHL1   C25 3839   5.549   1.398   8.388 -0.5772 -0.3250 -0.4635
   52CHL1   H25 3840   5.479   1.312   8.388 -1.1382  0.1107 -1.6084
   52CHL1   C26 3841   5.686   1.364   8.325 -0.0466 -0.0062  0.1265
   52CHL1  H26A 3842   5.666   1.322   8.224  1.0645 -0.2134 -0.0169
   52CHL1  H26B 3843   5.751   1.452   8.308 -0.5776  0.2542 -0.5907
   52CHL1  H26C 3844   5.739   1.278   8.372 -2.6466 -0.5473  2.3334
   52CHL1   C27 3845   5.560   1.443   8.540  0.5182  0.4784  0.5903
   52CHL1  H27A 3846   5.588   1.550   8.555  2.2141  0.2172 -0.4195
   52CHL1  H27B 3847   5.456   1.434   8.579 -0.0508 -1.4165 -1.1888
   52CHL1  H27C 3848   5.627   1.371   8.591 -1.0293 -1.4580  0.0001
   53CHL1    C3 3849   2.712   3.088   7.080 -0.2093  0.0661  0.0700
   53CHL1    H3 3850   2.804   3.137   7.117  1.8254 -1.1220 -3.0085
   53CHL1    O3 3851   2.713   3.095   6.938 -0.1778  0.2270 -0.0532
   53CHL1   H3' 3852   2.722   3.003   6.909  0.5258  1.3963 -4.2725
   53CHL1    C4 3853   2.717   2.939   7.125 -0.2897  0.0600 -0.2030
   53CHL1   H4A 3854   2.632   2.877   7.087  0.3154  0.7849 -3.0289
   53CHL1   H4B 3855   2.806   2.887   7.083 -0.8678 -3.1450  2.1233
   53CHL1    C5 3856   2.718   2.928   7.279 -0.2946  0.2121 -0.4120
   53CHL1    C6 3857   2.817   2.853   7.338  0.5152  0.2650 -0.4605
   53CHL1    H6 3858   2.892   2.795   7.282  0.5451  0.1543 -0.3057
   53CHL1    C7 3859   2.816   2.843   7.489  0.0189  0.2332 -0.4539
   53CHL1   H7A 3860   2.839   2.739   7.519 -1.3072  0.2135  0.5971
   53CHL1   H7B 3861   2.899   2.904   7.530 -0.4824  0.6246 -0.0144
   53CHL1    C8 3862   2.689   2.893   7.566  0.1595  0.2083  0.7009
   53CHL1    H8 3863   2.618   2.810   7.547  2.0055 -1.5019  1.0676
   53CHL1   C14 3864   2.718   2.910   7.716  0.3095 -0.1192  0.0339
   53CHL1   H14 3865   2.794   2.989   7.735 -0.5613  0.0823  3.4018
   53CHL1   C15 3866   2.788   2.795   7.794 -0.2436  0.1920  0.4834
   53CHL1  H15A 3867   2.755   2.690   7.780  0.0042  0.1325  0.3460
   53CHL1  H15B 3868   2.897   2.794   7.776 -0.1266  1.0926  1.0663
   53CHL1   C16 3869   2.764   2.835   7.942  0.3325 -0.1286 -0.2090
   53CHL1  H16A 3870   2.701   2.758   7.992  1.0467  0.3309  1.4582
   53CHL1  H16B 3871   2.853   2.863   8.002 -1.0370  0.9886  1.3921
   53CHL1   C17 3872   2.666   2.955   7.937  0.5840  0.1074  0.2054
   53CHL1   H17 3873   2.728   3.046   7.928  2.0587 -0.8507  0.2909
   53CHL1   C13 3874   2.601   2.957   7.798  0.8565 -0.0352  1.0274
   53CHL1   C18 3875   2.479   2.864   7.784  0.3318  0.5928  0.0144
   53CHL1  H18A 3876   2.383   2.906   7.821 -2.1697 -4.1840 -0.2021
   53CHL1  H18B 3877   2.449   2.842   7.679  0.1829  0.3628  0.1023
   53CHL1  H18C 3878   2.493   2.767   7.837  0.8035  0.7351  0.1511
   53CHL1   C12 3879   2.562   3.089   7.737 -0.0323 -0.1521  0.3830
   53CHL1  H12A 3880   2.485   3.139   7.799  1.0683  3.4832 -0.9381
   53CHL1  H12B 3881   2.655   3.148   7.743  0.2775 -0.6203  0.2235
   53CHL1   C11 3882   2.522   3.089   7.590  0.2615 -0.0909  0.1862
   53CHL1  H11A 3883   2.424   3.044   7.561 -0.1453  1.5368 -1.1436
   53CHL1  H11B 3884   2.511   3.194   7.556 -2.3535 -0.5080 -0.4971
   53CHL1    C9 3885   2.635   3.025   7.508  0.0125  0.6615  0.7224
   53CHL1    H9 3886   2.718   3.097   7.524 -0.6439  1.1542  2.0581
   53CHL1   C10 3887   2.608   3.014   7.356 -0.5818  0.0870  0.1872
   53CHL1   C19 3888   2.475   2.930   7.329 -0.2433  0.0158 -0.5539
   53CHL1  H19A 3889   2.471   2.845   7.400 -1.2246 -1.3366 -2.1495
   53CHL1  H19B 3890   2.393   3.000   7.356 -0.7705 -0.6546 -0.4052
   53CHL1  H19C 3891   2.467   2.886   7.227 -0.2962  1.2445 -1.0959
   53CHL1    C1 3892   2.596   3.163   7.290 -0.4728  0.3814 -0.5594
   53CHL1   H1A 3893   2.505   3.207   7.337 -0.6203 -0.2216 -0.2669
   53CHL1   H1B 3894   2.679   3.231   7.320 -0.5075  0.2795 -0.2292
   53CHL1    C2 3895   2.589   3.162   7.134 -0.2974 -0.9896 -0.1099
   53CHL1   H2A 3896   2.593   3.263   7.089  1.4754 -1.6387 -1.4886
   53CHL1   H2B 3897   2.494   3.110   7.107 -1.5402  1.5769 -1.0898
   53CHL1   C20 3898   2.580   2.967   8.059 -0.6584 -0.7641  0.0447
   53CHL1   H20 3899   2.527   2.869   8.056 -0.0468 -1.1066  0.2572
   53CHL1   C21 3900   2.471   3.078   8.053  0.3158  0.4540  0.2266
   53CHL1  H21A 3901   2.398   3.044   7.977  0.6180 -0.1652  0.2113
   53CHL1  H21B 3902   2.522   3.172   8.023  0.9596  0.4316  1.1866
   53CHL1  H21C 3903   2.430   3.099   8.155  0.6106  0.2756  0.3823
   53CHL1   C22 3904   2.655   2.977   8.190 -0.4120  0.0208 -0.1956
   53CHL1  H22A 3905   2.745   2.911   8.187 -0.2963  0.1641 -2.7910
   53CHL1  H22B 3906   2.683   3.084   8.200 -3.8473  1.3889 -2.9328
   53CHL1   C23 3907   2.567   2.934   8.308 -0.6708  0.3800 -1.3076
   53CHL1  H23A 3908   2.481   3.002   8.325 -0.0606  0.8274  0.1218
   53CHL1  H23B 3909   2.525   2.833   8.288 -0.8791  0.0967  0.4062
   53CHL1   C24 3910   2.661   2.929   8.426  0.6561  0.6594 -0.2362
   53CHL1  H24A 3911   2.736   2.848   8.412 -0.5894 -0.4897 -0.4188
   53CHL1  H24B 3912   2.724   3.020   8.435 -0.9065  1.7483  0.0861
   53CHL1   C25 3913   2.593   2.894   8.560 -0.4893 -0.4978 -0.2857
   53CHL1   H25 3914   2.510   2.967   8.569  0.7322  0.9668 -0.4023
   53CHL1   C26 3915   2.549   2.751   8.566 -0.7644  0.0253  0.1024
   53CHL1  H26A 3916   2.501   2.739   8.665 -0.8918  1.4531  0.2336
   53CHL1  H26B 3917   2.479   2.720   8.486 -0.1851  0.9836 -0.8178
   53CHL1  H26C 3918   2.643   2.692   8.574 -0.6105  0.5350  2.8701
   53CHL1   C27 3919   2.685   2.911   8.682 -0.5756 -0.2186 -0.7694
   53CHL1  H27A 3920   2.742   3.002   8.655 -1.4210 -0.0570 -2.1403
   53CHL1  H27B 3921   2.625   2.916   8.776  0.9203  0.8068  0.1751
   53CHL1  H27C 3922   2.748   2.820   8.690  1.1127  0.9881  0.5470
   54CHL1    C3 3923   3.075   4.638   7.022 -0.7465 -0.9265 -0.1069
   54CHL1    H3 3924   3.186   4.640   7.027 -0.5812  1.7681 -2.2927
   54CHL1    O3 3925   3.055   4.654   6.881 -0.1592 -0.5345  0.7137
   54CHL1   H3' 3926   3.113   4.728   6.863  0.0009 -1.1419 -1.4740
   54CHL1    C4 3927   3.011   4.512   7.073  0.2591  0.1962 -0.0323
   54CHL1   H4A 3928   2.902   4.518   7.053 -0.2660  0.2599  2.5551
   54CHL1   H4B 3929   3.040   4.419   7.019  1.6840 -0.6313  2.0185
   54CHL1    C5 3930   3.048   4.494   7.217  0.4857 -0.4647  0.0342
   54CHL1    C6 3931   3.112   4.389   7.263 -0.3481 -0.1820 -0.2421
   54CHL1    H6 3932   3.149   4.319   7.188 -1.5011 -0.8024 -0.2425
   54CHL1    C7 3933   3.139   4.350   7.407  0.9285 -0.1238  0.9652
   54CHL1   H7A 3934   3.120   4.240   7.408  0.0714 -0.0510 -1.4000
   54CHL1   H7B 3935   3.247   4.366   7.424  0.8011  1.4295  0.4989
   54CHL1    C8 3936   3.056   4.431   7.506 -0.3066 -0.3302  0.7349
   54CHL1    H8 3937   2.948   4.402   7.508 -0.2798 -0.4129  0.9646
   54CHL1   C14 3938   3.108   4.423   7.650 -0.0304 -0.4250 -0.3548
   54CHL1   H14 3939   3.211   4.461   7.637 -0.2922  1.5465  2.3423
   54CHL1   C15 3940   3.113   4.285   7.717 -0.1922  0.4324 -1.0248
   54CHL1  H15A 3941   3.013   4.238   7.707 -0.0873 -0.0151 -0.0447
   54CHL1  H15B 3942   3.186   4.232   7.652 -0.2395  0.3867 -1.0411
   54CHL1   C16 3943   3.139   4.313   7.858  0.1118  0.0215 -0.8895
   54CHL1  H16A 3944   3.069   4.254   7.921  0.6323  0.8331  0.4898
   54CHL1  H16B 3945   3.241   4.277   7.884  0.6456  0.8108 -1.7877
   54CHL1   C17 3946   3.123   4.465   7.880  0.0720 -0.1740  0.4921
   54CHL1   H17 3947   3.224   4.511   7.874 -0.4134  0.8121 -0.4182
   54CHL1   C13 3948   3.048   4.510   7.755  0.5337 -0.1663  0.6047
   54CHL1   C18 3949   2.895   4.475   7.781  0.1504  0.0784 -0.6124
   54CHL1  H18A 3950   2.847   4.461   7.681 -0.0429 -0.2328 -0.4772
   54CHL1  H18B 3951   2.870   4.389   7.847 -0.5882  1.7453  1.4069
   54CHL1  H18C 3952   2.840   4.563   7.822  1.2654 -0.1769  1.5433
   54CHL1   C12 3953   3.067   4.653   7.705 -0.9469 -0.1400 -1.0561
   54CHL1  H12A 3954   3.028   4.732   7.773  0.5869  0.1152 -0.4254
   54CHL1  H12B 3955   3.172   4.679   7.682 -0.6739 -2.2316 -2.3686
   54CHL1   C11 3956   2.999   4.668   7.569 -0.7426  0.2945 -0.8477
   54CHL1  H11A 3957   2.890   4.647   7.569 -0.2791 -2.8664 -3.0585
   54CHL1  H11B 3958   3.021   4.773   7.539 -0.9028  1.0054  1.3627
   54CHL1    C9 3959   3.060   4.578   7.459  0.1569 -0.8867  0.4961
   54CHL1    H9 3960   3.167   4.607   7.450  0.0313  0.0517  1.6812
   54CHL1   C10 3961   3.010   4.608   7.313  0.1108 -0.2410  0.3668
   54CHL1   C19 3962   2.856   4.610   7.316  0.5310 -0.1277  0.5860
   54CHL1  H19A 3963   2.824   4.512   7.358 -0.2073 -0.4672 -0.7135
   54CHL1  H19B 3964   2.812   4.690   7.379 -2.2880  0.1616 -1.5553
   54CHL1  H19C 3965   2.813   4.627   7.215  2.5003  0.5962 -0.1840
   54CHL1    C1 3966   3.059   4.745   7.252 -0.0355 -0.3073  0.2656
   54CHL1   H1A 3967   3.016   4.827   7.315  1.7531 -2.0780  4.1126
   54CHL1   H1B 3968   3.166   4.766   7.274 -0.0998  0.8900 -0.4329
   54CHL1    C2 3969   3.028   4.762   7.100 -0.1558 -0.0437  0.1582
   54CHL1   H2A 3970   3.075   4.857   7.068 -2.5224  1.2815  0.3475
   54CHL1   H2B 3971   2.919   4.773   7.083 -0.6768 -1.5771  2.1114
   54CHL1   C20 3972   3.051   4.496   8.016 -0.1734 -0.4178 -0.0024
   54CHL1   H20 3973   2.950   4.450   8.024 -0.6357  0.5881  0.2286
   54CHL1   C21 3974   3.024   4.650   8.042  0.1491 -0.3822 -0.4250
   54CHL1  H21A 3975   2.992   4.674   8.145  1.1640 -1.3329  0.1310
   54CHL1  H21B 3976   2.947   4.687   7.970 -2.8873 -1.4989  2.0416
   54CHL1  H21C 3977   3.125   4.696   8.031  1.7645 -2.8852  2.4099
   54CHL1   C22 3978   3.134   4.439   8.139  0.7102 -0.0338  0.2575
   54CHL1  H22A 3979   3.121   4.329   8.128 -0.1504  0.1790 -1.1519
   54CHL1  H22B 3980   3.240   4.462   8.117  0.8786 -0.5306  0.5201
   54CHL1   C23 3981   3.102   4.494   8.281 -0.9264  0.9105  0.8221
   54CHL1  H23A 3982   3.139   4.599   8.291 -0.7212  0.8888  0.2935
   54CHL1  H23B 3983   2.993   4.510   8.292 -1.6940 -2.1911 -1.2214
   54CHL1   C24 3984   3.168   4.425   8.402  0.7516  0.3865  0.7046
   54CHL1  H24A 3985   3.184   4.317   8.382 -1.0697  0.1212  0.5350
   54CHL1  H24B 3986   3.273   4.450   8.427  1.3742 -0.7739 -0.5819
   54CHL1   C25 3987   3.073   4.424   8.525  0.0270 -0.6041 -0.0005
   54CHL1   H25 3988   2.971   4.402   8.488  0.1769 -0.1522 -0.7057
   54CHL1   C26 3989   3.137   4.337   8.632 -0.9419 -0.4491  0.2155
   54CHL1  H26A 3990   3.091   4.373   8.726  1.0181  1.1171  0.6433
   54CHL1  H26B 3991   3.127   4.227   8.622  0.4458 -0.5992  0.2746
   54CHL1  H26C 3992   3.240   4.375   8.647 -1.8472  2.0983  0.3579
   54CHL1   C27 3993   3.065   4.567   8.584  0.1925 -0.5433 -0.3642
   54CHL1  H27A 3994   2.988   4.581   8.663  0.0319  0.8064 -0.7402
   54CHL1  H27B 3995   3.161   4.599   8.629 -0.4139 -0.2163  0.7176
   54CHL1  H27C 3996   3.050   4.639   8.500 -0.1430 -2.2280 -1.8165
   55CHL1    C3 3997   1.056   6.641   6.962  0.2705  0.3150 -1.3030
   55CHL1    H3 3998   1.113   6.736   6.948  3.0017 -0.8949  0.6827
   55CHL1    O3 3999   0.999   6.613   6.834 -0.2019  0.1644 -0.0822
   55CHL1   H3' 4000   0.928   6.678   6.836  1.2515  1.8203  0.5172
   55CHL1    C4 4001   1.139   6.514   6.999 -0.0193  0.2139  0.5680
   55CHL1   H4A 4002   1.071   6.425   6.998  3.5838 -2.8335  2.2155
   55CHL1   H4B 4003   1.207   6.501   6.912  1.5024  0.0008  1.7565
   55CHL1    C5 4004   1.211   6.534   7.129 -0.0930 -0.8270 -0.5721
   55CHL1    C6 4005   1.343   6.539   7.141 -0.6377 -0.7435 -0.3092
   55CHL1    H6 4006   1.413   6.516   7.059  2.0236  1.2019  1.2267
   55CHL1    C7 4007   1.419   6.550   7.272 -0.6274  0.5285  0.3144
   55CHL1   H7A 4008   1.477   6.458   7.296  0.9162  1.3013 -0.3040
   55CHL1   H7B 4009   1.488   6.637   7.261 -0.0702  0.3248  1.9451
   55CHL1    C8 4010   1.317   6.547   7.389  0.0162 -0.3066 -0.4260
   55CHL1    H8 4011   1.280   6.444   7.409 -0.3311 -0.3160 -1.0869
   55CHL1   C14 4012   1.390   6.590   7.513  0.3825  0.0562  1.1316
   55CHL1   H14 4013   1.401   6.700   7.500  0.8773 -0.1784 -0.6843
   55CHL1   C15 4014   1.533   6.539   7.540  0.5820 -0.2203 -0.6004
   55CHL1  H15A 4015   1.540   6.429   7.522 -0.2907 -0.1340 -1.5756
   55CHL1  H15B 4016   1.613   6.591   7.483  0.7651 -1.3455 -1.4210
   55CHL1   C16 4017   1.550   6.572   7.689 -0.1029 -0.0972  0.5010
   55CHL1  H16A 4018   1.580   6.477   7.738 -0.5385 -1.6702 -2.0949
   55CHL1  H16B 4019   1.633   6.642   7.709 -0.4575  1.5092 -2.9768
   55CHL1   C17 4020   1.413   6.625   7.748 -0.0070  0.1948  0.2945
   55CHL1   H17 4021   1.415   6.736   7.744  1.8909  0.1728 -0.7370
   55CHL1   C13 4022   1.312   6.573   7.642  0.3614 -0.0076  0.3403
   55CHL1   C18 4023   1.276   6.425   7.671 -0.2011 -0.2911 -0.4192
   55CHL1  H18A 4024   1.193   6.420   7.745 -0.1960  0.3954 -0.3669
   55CHL1  H18B 4025   1.237   6.378   7.579 -0.4706 -0.9679  0.0303
   55CHL1  H18C 4026   1.363   6.363   7.703 -0.0468  1.2661  2.5654
   55CHL1   C12 4027   1.184   6.660   7.622  0.3639  0.6304  0.0467
   55CHL1  H12A 4028   1.116   6.628   7.704  0.1929 -2.0963 -1.0432
   55CHL1  H12B 4029   1.213   6.767   7.617 -0.2438  0.7387 -1.8601
   55CHL1   C11 4030   1.107   6.622   7.498  0.4843 -0.2994 -0.2801
   55CHL1  H11A 4031   1.057   6.525   7.517  1.7630 -1.1918 -1.2595
   55CHL1  H11B 4032   1.024   6.695   7.485 -1.2058 -2.1717 -0.4112
   55CHL1    C9 4033   1.195   6.628   7.365 -0.3316 -0.0999 -0.6849
   55CHL1    H9 4034   1.223   6.733   7.344 -1.1907  0.3870  0.5627
   55CHL1   C10 4035   1.119   6.573   7.238  0.1391  0.4431  0.2130
   55CHL1   C19 4036   1.046   6.443   7.283  0.1663 -0.1086 -0.5200
   55CHL1  H19A 4037   0.995   6.401   7.193  1.3138 -1.8159 -0.4274
   55CHL1  H19B 4038   1.108   6.357   7.316  0.8519  1.2039  1.8204
   55CHL1  H19C 4039   0.967   6.463   7.358  1.1726 -1.0239  0.8478
   55CHL1    C1 4040   1.017   6.678   7.207 -0.2019  0.0575  0.0867
   55CHL1   H1A 4041   0.941   6.683   7.287 -0.1748 -2.8868  0.3854
   55CHL1   H1B 4042   1.071   6.775   7.206  1.7625 -0.9845  0.4550
   55CHL1    C2 4043   0.946   6.658   7.065  0.0329  0.1821  0.0469
   55CHL1   H2A 4044   0.876   6.741   7.041  0.1062  0.5294  0.9780
   55CHL1   H2B 4045   0.900   6.558   7.078  0.7793 -0.0011  1.4972
   55CHL1   C20 4046   1.388   6.590   7.894 -0.2450 -0.0621  0.1079
   55CHL1   H20 4047   1.361   6.482   7.894 -1.6317  0.1838 -2.8045
   55CHL1   C21 4048   1.268   6.675   7.951 -0.3954  0.1925 -0.1249
   55CHL1  H21A 4049   1.291   6.782   7.933  1.2893 -0.1588 -0.1799
   55CHL1  H21B 4050   1.270   6.675   8.062 -0.3210  0.9496 -0.1172
   55CHL1  H21C 4051   1.172   6.635   7.911  0.9769 -2.1373 -1.2690
   55CHL1   C22 4052   1.512   6.606   7.991  0.5440 -0.9894 -0.3704
   55CHL1  H22A 4053   1.478   6.586   8.095  0.4181  3.5470  0.6607
   55CHL1  H22B 4054   1.591   6.533   7.964 -0.1926 -2.2063  0.6509
   55CHL1   C23 4055   1.557   6.756   8.003  0.1530  0.7500 -1.0497
   55CHL1  H23A 4056   1.574   6.804   7.904  0.3617  1.2925 -0.7527
   55CHL1  H23B 4057   1.473   6.816   8.043  0.6800 -0.0917  1.4901
   55CHL1   C24 4058   1.686   6.772   8.088  0.2559  0.3314  0.1095
   55CHL1  H24A 4059   1.685   6.688   8.160 -1.1713  0.9423  0.8442
   55CHL1  H24B 4060   1.769   6.781   8.015 -0.4388  0.7966 -0.6413
   55CHL1   C25 4061   1.689   6.899   8.175  0.6752 -0.6259  0.1505
   55CHL1   H25 4062   1.785   6.907   8.229  0.2287 -0.2044  0.8932
   55CHL1   C26 4063   1.676   7.024   8.080 -0.3937  0.2421 -0.0859
   55CHL1  H26A 4064   1.665   7.111   8.148 -0.5872 -0.3091  0.5949
   55CHL1  H26B 4065   1.764   7.038   8.014 -0.6484  0.0263 -0.4761
   55CHL1  H26C 4066   1.590   7.026   8.010 -0.0746  2.1693 -0.4700
   55CHL1   C27 4067   1.574   6.897   8.282 -0.4397 -0.2012 -0.1774
   55CHL1  H27A 4068   1.600   6.809   8.346  0.2296  1.0566  1.3432
   55CHL1  H27B 4069   1.585   6.987   8.346  1.9655  0.2776 -1.1635
   55CHL1  H27C 4070   1.474   6.891   8.235 -1.4559  1.7159  1.5835
   56CHL1    C3 4071   2.095   4.715   6.909 -0.8168  0.1220  0.1512
   56CHL1    H3 4072   2.155   4.622   6.901  1.8488  1.7707 -0.2424
   56CHL1    O3 4073   2.063   4.743   6.773 -0.3645 -0.5125  0.1742
   56CHL1   H3' 4074   1.983   4.700   6.742 -1.1725  1.1702 -0.2374
   56CHL1    C4 4075   1.966   4.702   6.989 -0.0811 -0.7028 -0.2902
   56CHL1   H4A 4076   1.906   4.795   6.981 -3.1266 -2.3711  1.0568
   56CHL1   H4B 4077   1.907   4.620   6.941 -1.3912  0.4180 -0.6540
   56CHL1    C5 4078   1.988   4.694   7.134 -0.2993  0.4198  0.0680
   56CHL1    C6 4079   1.924   4.603   7.210  0.8994  0.2675  0.2018
   56CHL1    H6 4080   1.848   4.538   7.165  0.4467 -0.5925  2.0733
   56CHL1    C7 4081   1.926   4.599   7.360 -0.1448  0.4754  0.2584
   56CHL1   H7A 4082   1.824   4.575   7.398 -1.4256  1.4326 -2.3025
   56CHL1   H7B 4083   2.005   4.525   7.380 -0.0709  1.1038  2.5061
   56CHL1    C8 4084   1.983   4.725   7.430 -0.7633  0.3450  0.4672
   56CHL1    H8 4085   1.902   4.800   7.444 -0.8622  0.1161  1.1781
   56CHL1   C14 4086   2.035   4.690   7.571 -0.0445 -0.0857 -0.5076
   56CHL1   H14 4087   2.107   4.606   7.559  1.7793  1.4736 -0.8379
   56CHL1   C15 4088   1.930   4.630   7.665 -0.7882  0.3682  0.8640
   56CHL1  H15A 4089   1.828   4.673   7.651 -1.8467 -1.2781  2.9436
   56CHL1  H15B 4090   1.907   4.521   7.656 -0.7635  0.3059  1.5017
   56CHL1   C16 4091   1.996   4.658   7.806 -0.9568 -0.2118 -0.4450
   56CHL1  H16A 4092   1.919   4.714   7.864 -1.9642 -0.4273 -1.5255
   56CHL1  H16B 4093   2.021   4.561   7.854 -0.1517 -0.0755 -0.5865
   56CHL1   C17 4094   2.130   4.740   7.782  0.2231 -0.2456 -0.6710
   56CHL1   H17 4095   2.210   4.665   7.767 -2.2153 -3.1558 -0.2643
   56CHL1   C13 4096   2.109   4.806   7.646  0.1896  0.2451 -0.5128
   56CHL1   C18 4097   2.014   4.930   7.658  0.2353 -0.1969  0.2317
   56CHL1  H18A 4098   1.934   4.910   7.732 -1.6503 -0.7425 -1.8592
   56CHL1  H18B 4099   2.075   5.020   7.684  2.1364 -1.2822 -0.2849
   56CHL1  H18C 4100   1.958   4.967   7.570  0.1194 -0.8904  0.0113
   56CHL1   C12 4101   2.228   4.856   7.561  0.2155 -0.1729 -0.4162
   56CHL1  H12A 4102   2.253   4.962   7.585  1.6662 -0.1066 -2.0374
   56CHL1  H12B 4103   2.305   4.777   7.566  0.1062 -0.2783 -0.4102
   56CHL1   C11 4104   2.182   4.891   7.418  0.2029 -0.5221  0.8786
   56CHL1  H11A 4105   2.110   4.975   7.428 -1.0871 -1.5078  0.1739
   56CHL1  H11B 4106   2.273   4.920   7.362  0.0660 -1.1266  0.3376
   56CHL1    C9 4107   2.110   4.780   7.346  0.6442  0.6016 -0.6271
   56CHL1    H9 4108   2.176   4.691   7.348  0.8191  0.7397 -0.2796
   56CHL1   C10 4109   2.071   4.806   7.195  0.7169 -0.1204  0.3409
   56CHL1   C19 4110   1.981   4.939   7.183 -0.2675  0.2970 -0.1400
   56CHL1  H19A 4111   1.981   4.981   7.080 -1.9689  0.4207 -0.1206
   56CHL1  H19B 4112   1.875   4.917   7.205 -0.7960  1.8857 -0.9833
   56CHL1  H19C 4113   2.009   5.017   7.257  0.4487 -0.1087  0.0312
   56CHL1    C1 4114   2.195   4.815   7.108  0.0521  0.1110 -0.5909
   56CHL1   H1A 4115   2.243   4.906   7.150 -0.3919  0.4539 -0.8062
   56CHL1   H1B 4116   2.264   4.730   7.127  1.0655  0.8834 -0.7308
   56CHL1    C2 4117   2.178   4.829   6.960 -0.2729  0.1450  0.4158
   56CHL1   H2A 4118   2.276   4.818   6.909 -2.4213 -1.3122 -3.9080
   56CHL1   H2B 4119   2.133   4.927   6.933 -2.3698 -0.8132  0.2161
   56CHL1   C20 4120   2.150   4.828   7.907 -0.0990  0.0067  0.0172
   56CHL1   H20 4121   2.062   4.895   7.907  0.9766  1.4730  0.7562
   56CHL1   C21 4122   2.290   4.909   7.898  0.4881  0.3857 -0.2552
   56CHL1  H21A 4123   2.318   4.940   8.001  0.7835 -0.4225 -0.0879
   56CHL1  H21B 4124   2.287   4.995   7.827  0.5273  0.3606 -0.2867
   56CHL1  H21C 4125   2.362   4.836   7.857 -2.8447 -2.2700 -1.8777
   56CHL1   C22 4126   2.151   4.742   8.039 -0.4141  0.0080  0.3983
   56CHL1  H22A 4127   2.080   4.657   8.032  0.6335 -0.7620 -3.0478
   56CHL1  H22B 4128   2.250   4.691   8.040 -0.4922 -0.1397  0.8559
   56CHL1   C23 4129   2.132   4.832   8.164  0.1127  0.4626  0.2245
   56CHL1  H23A 4130   2.194   4.789   8.246  0.5093  0.4449 -0.0798
   56CHL1  H23B 4131   2.169   4.936   8.144 -1.6856  0.9313 -0.8306
   56CHL1   C24 4132   1.993   4.827   8.215  0.1695 -0.0526  0.4318
   56CHL1  H24A 4133   1.907   4.847   8.147 -1.0239 -0.3516  1.7984
   56CHL1  H24B 4134   1.970   4.722   8.244 -3.3919  0.2987 -0.6057
   56CHL1   C25 4135   1.973   4.912   8.345  0.1558  0.2012 -0.4309
   56CHL1   H25 4136   2.061   4.898   8.411  0.4719 -2.4165 -1.2585
   56CHL1   C26 4137   1.945   5.055   8.308  0.0662  0.0180 -0.4134
   56CHL1  H26A 4138   1.931   5.124   8.393  1.8591  0.1016 -0.1286
   56CHL1  H26B 4139   1.852   5.067   8.249 -0.6122  0.8924  0.8039
   56CHL1  H26C 4140   2.026   5.102   8.247 -1.6405  1.2987 -1.7861
   56CHL1   C27 4141   1.857   4.863   8.427 -0.4911  0.1313  0.3691
   56CHL1  H27A 4142   1.882   4.760   8.461  0.4735  0.1012 -0.3937
   56CHL1  H27B 4143   1.841   4.922   8.520 -0.9408 -0.4083  0.6433
   56CHL1  H27C 4144   1.764   4.845   8.368 -0.0313  0.4803 -0.4846
   57SAPC     N 4145   1.152   0.544  10.965  0.1119  0.3048 -0.4285
   57SAPC   C12 4146   1.192   0.689  10.932  0.9022 -0.0816 -0.4304
   57SAPC  H12A 4147   1.127   0.763  10.976  1.5396  0.0730  0.2527
   57SAPC  H12B 4148   1.178   0.690  10.825  0.7629 -0.1312 -0.4137
   57SAPC   C13 4149   1.157   0.519  11.109  0.0223  0.3123 -0.0218
   57SAPC  H13A 4150   1.259   0.524  11.144 -0.0700 -2.7837  1.0071
   57SAPC  H13B 4151   1.107   0.601  11.158  0.8026  1.6294 -1.3536
   57SAPC  H13C 4152   1.127   0.421  11.144  0.7922  0.0003 -0.2225
   57SAPC   C14 4153   1.013   0.520  10.919 -0.5731  1.0861 -0.5600
   57SAPC  H14A 4154   0.989   0.415  10.924 -0.4839  1.0664 -0.5354
   57SAPC  H14B 4155   0.943   0.578  10.977  0.6995  0.7959  1.3680
   57SAPC  H14C 4156   1.007   0.538  10.813 -0.3931 -0.8880 -0.9432
   57SAPC   C15 4157   1.244   0.446  10.906 -0.1811  0.4607 -0.2281
   57SAPC  H15A 4158   1.214   0.440  10.802 -0.1260 -0.2807 -0.2086
   57SAPC  H15B 4159   1.342   0.491  10.899  1.0185 -1.2501  3.2990
   57SAPC  H15C 4160   1.237   0.351  10.957 -1.1480  1.3477  1.3313
   57SAPC   C11 4161   1.335   0.747  10.952 -0.5173  0.3595  0.6666
   57SAPC  H11A 4162   1.354   0.733  11.061  2.1826 -2.3905 -0.0203
   57SAPC  H11B 4163   1.339   0.857  10.933  1.1103  0.1885 -0.1644
   57SAPC     P 4164   1.455   0.724  10.722  0.0373 -0.5453  0.0143
   57SAPC   O13 4165   1.480   0.867  10.713 -0.1764  0.0292  0.5560
   57SAPC   O14 4166   1.568   0.636  10.678  0.8156 -0.3368 -0.0821
   57SAPC   O12 4167   1.426   0.678  10.865  0.0066  0.5828 -0.3409
   57SAPC   O11 4168   1.326   0.686  10.641  0.6670  0.1638  0.0664
   57SAPC    C1 4169   1.218   0.780  10.625  0.3703 -0.2276  0.6542
   57SAPC    HA 4170   1.119   0.733  10.640  0.6756 -1.4948 -1.0188
   57SAPC    HB 4171   1.213   0.861  10.701 -0.3184 -0.0880  0.4590
   57SAPC    C2 4172   1.200   0.844  10.479  0.0811  0.7245 -0.0640
   57SAPC    HS 4173   1.096   0.882  10.471 -0.3338 -0.6857 -2.3898
   57SAPC   O21 4174   1.225   0.745  10.380  0.1712 -0.3677  0.3965
   57SAPC   C21 4175   1.142   0.649  10.362 -0.2491 -0.6756 -0.5543
   57SAPC   O22 4176   1.037   0.638  10.420 -0.0629 -0.1109 -0.2388
   57SAPC   C22 4177   1.189   0.561  10.252 -0.3683 -0.1795  0.5466
   57SAPC   H2R 4178   1.298   0.570  10.233 -0.5866  0.3187 -0.5398
   57SAPC   H2S 4179   1.170   0.460  10.294 -0.5538 -0.7328 -0.8140
   57SAPC    C3 4180   1.307   0.952  10.454  0.1482 -0.0586  0.4868
   57SAPC    HX 4181   1.404   0.900  10.473  0.2310 -0.6365 -1.3569
   57SAPC    HY 4182   1.291   1.028  10.533  1.5806  0.1716  0.5807
   57SAPC   O31 4183   1.295   1.011  10.318 -0.3217  0.5234  0.4100
   57SAPC   C31 4184   1.409   1.032  10.259  0.5294 -0.8109 -0.4841
   57SAPC   O32 4185   1.520   1.005  10.295 -0.3203 -0.0577 -0.1271
   57SAPC   C32 4186   1.375   1.105  10.136 -0.3193 -0.2159  0.8507
   57SAPC   H2X 4187   1.296   1.182  10.149 -0.9831  0.1398 -3.5659
   57SAPC   H2Y 4188   1.319   1.033  10.072  1.5491 -0.5994 -0.4161
   57SAPC   C23 4189   1.098   0.578  10.125  0.3445 -0.1224  0.4890
   57SAPC   H3R 4190   0.992   0.570  10.157  0.3941 -1.5797  0.3472
   57SAPC   H3S 4191   1.111   0.488  10.061  2.1193  0.6410 -0.2984
   57SAPC   C24 4192   1.127   0.705  10.047  0.2880  0.1120  0.1437
   57SAPC   H4R 4193   1.235   0.707  10.022 -0.1569 -1.0102 -2.2093
   57SAPC   H4S 4194   1.103   0.802  10.097  4.1051  0.3582  1.8437
   57SAPC   C25 4195   1.039   0.709   9.923 -0.8345 -0.9186  0.3216
   57SAPC   H5R 4196   0.943   0.656   9.909 -1.6571  1.1576 -3.1874
   57SAPC   C26 4197   1.085   0.767   9.808  0.5835  0.3509  0.1071
   57SAPC   H6R 4198   1.012   0.759   9.726  0.3858 -1.2101  0.4054
   57SAPC   C27 4199   1.210   0.850   9.795 -0.0944  0.2632  0.8103
   57SAPC   H7R 4200   1.292   0.796   9.848  1.4413  0.2729 -1.4047
   57SAPC   H7S 4201   1.220   0.954   9.833  0.4976  1.4248 -2.2479
   57SAPC   C28 4202   1.252   0.852   9.651 -0.4606  0.2055 -0.0236
   57SAPC   H8R 4203   1.181   0.810   9.578 -1.7507  1.9947  0.1303
   57SAPC   C29 4204   1.370   0.892   9.600  0.1499 -0.6264  0.6718
   57SAPC   H9R 4205   1.381   0.890   9.491 -0.6470 -2.2426  0.5963
   57SAPC  C210 4206   1.486   0.936   9.687  0.4657 -0.0586  0.6270
   57SAPC  H10R 4207   1.478   0.877   9.781 -0.6502 -0.0053  0.5760
   57SAPC  H10S 4208   1.494   1.044   9.713  1.3242 -0.2686  1.2866
   57SAPC  C211 4209   1.622   0.898   9.629  0.4724 -0.2982 -0.2841
   57SAPC  H11R 4210   1.623   0.850   9.530  1.1200 -2.5206  0.7437
   57SAPC  C212 4211   1.735   0.894   9.700  0.0960  0.2305  0.2935
   57SAPC  H12R 4212   1.826   0.853   9.654  0.0588 -0.5765  0.9230
   57SAPC  C213 4213   1.759   0.935   9.844  0.3607 -0.0357 -0.0261
   57SAPC  H13R 4214   1.798   0.853   9.909  0.6955 -0.0714 -0.2674
   57SAPC  H13S 4215   1.661   0.961   9.888  0.5786  1.2925 -0.2827
   57SAPC  C214 4216   1.854   1.052   9.840  0.2308  0.0830 -0.0779
   57SAPC  H14R 4217   1.870   1.086   9.737 -1.8833 -0.6003 -0.6840
   57SAPC  C215 4218   1.915   1.104   9.950 -0.0278 -0.0038  0.2435
   57SAPC  H15R 4219   1.973   1.195   9.926  0.1485 -0.7664 -2.5935
   57SAPC  C216 4220   1.907   1.054  10.093 -0.7989 -0.8505  0.3717
   57SAPC  H16R 4221   1.819   0.990  10.115 -0.6819 -0.3422  2.4588
   57SAPC  H16S 4222   1.897   1.136  10.166 -1.8207 -1.4005  0.8775
   57SAPC  C217 4223   2.040   0.985  10.134 -0.6487 -0.2298 -0.7826
   57SAPC  H17R 4224   2.126   1.041  10.090  0.7567 -1.1460  0.6737
   57SAPC  H17S 4225   2.042   0.877  10.109  0.7014 -0.2957 -0.4952
   57SAPC  C218 4226   2.061   0.983  10.283 -0.0322  0.1479  0.2572
   57SAPC  H18R 4227   1.980   0.927  10.335 -0.4320  0.8954  0.4593
   57SAPC  H18S 4228   2.056   1.089  10.319 -0.8934  0.1159  0.2613
   57SAPC  C219 4229   2.189   0.915  10.338  0.1731  0.0130 -0.1750
   57SAPC  H19R 4230   2.167   0.923  10.447 -0.6630 -0.6356 -0.2843
   57SAPC  H19S 4231   2.280   0.976  10.323 -0.2452  0.8943  0.7678
   57SAPC  C220 4232   2.223   0.771  10.301 -0.1489 -0.2150  0.1040
   57SAPC  H20R 4233   2.218   0.760  10.191  0.2784  0.9902 -0.0436
   57SAPC  H20S 4234   2.161   0.695  10.355 -1.1178 -1.4241 -2.5567
   57SAPC  H20T 4235   2.327   0.749  10.331 -0.1976  1.0325  1.2807
   57SAPC   C33 4236   1.495   1.172  10.062  0.7924 -0.8181  0.2290
   57SAPC   H3X 4237   1.568   1.108  10.009  1.7181 -0.6910  1.3130
   57SAPC   H3Y 4238   1.564   1.218  10.136  0.0719  0.2059  0.3007
   57SAPC   C34 4239   1.438   1.274   9.955  0.1254  0.0266  0.5837
   57SAPC   H4X 4240   1.387   1.354  10.013  1.2088  1.9137 -0.9351
   57SAPC   H4Y 4241   1.358   1.233   9.890 -0.7336  0.0678  1.5836
   57SAPC   C35 4242   1.556   1.341   9.873  0.6636 -0.2680 -0.3043
   57SAPC   H5X 4243   1.623   1.267   9.824  0.2383 -2.3783  2.0912
   57SAPC   H5Y 4244   1.618   1.391   9.950 -3.3067  2.1281  1.6664
   57SAPC   C36 4245   1.502   1.445   9.769  0.7399 -0.4946  0.2739
   57SAPC   H6X 4246   1.459   1.527   9.830 -0.6298 -1.3935  0.5617
   57SAPC   H6Y 4247   1.426   1.397   9.704  1.4691  0.7452 -1.5715
   57SAPC   C37 4248   1.616   1.494   9.680 -0.9311 -0.0836  0.6574
   57SAPC   H7X 4249   1.668   1.400   9.653 -0.3642  0.7100 -1.1584
   57SAPC   H7Y 4250   1.687   1.558   9.738 -0.8326 -0.7249  1.2634
   57SAPC   C38 4251   1.570   1.550   9.548 -0.2296  0.5395 -0.3282
   57SAPC   H8X 4252   1.609   1.654   9.548  2.0568 -0.1760  2.3553
   57SAPC   H8Y 4253   1.460   1.555   9.532 -0.4920 -0.9180  0.8477
   57SAPC   C39 4254   1.634   1.493   9.417  0.3226  0.3528 -0.3714
   57SAPC   H9X 4255   1.631   1.382   9.409 -0.1300  0.4853 -3.1813
   57SAPC   H9Y 4256   1.741   1.518   9.427  0.7587 -1.3462 -0.5143
   57SAPC  C310 4257   1.575   1.560   9.291 -0.1412 -0.5249 -0.3513
   57SAPC  H10X 4258   1.567   1.670   9.280 -0.8595 -0.7616 -2.7606
   57SAPC  H10Y 4259   1.471   1.528   9.270 -0.4877  0.7032 -0.5550
   57SAPC  C311 4260   1.663   1.527   9.164  0.5126 -0.2725  0.8525
   57SAPC  H11X 4261   1.692   1.420   9.163 -0.5958 -0.5801 -0.1430
   57SAPC  H11Y 4262   1.759   1.582   9.164  0.7978 -0.7438  2.1034
   57SAPC  C312 4263   1.589   1.553   9.029 -0.2658  0.6386  0.1710
   57SAPC  H12X 4264   1.671   1.568   8.955 -0.7884 -1.3884 -0.8846
   57SAPC  H12Y 4265   1.528   1.646   9.029  1.8039  2.0773  0.1390
   57SAPC  C313 4266   1.524   1.425   8.967 -0.5874 -0.1483  0.1346
   57SAPC  H13X 4267   1.600   1.346   8.988  1.3574  1.6912  0.3848
   57SAPC  H13Y 4268   1.510   1.441   8.858  0.2494 -0.9841 -0.1185
   57SAPC  C314 4269   1.388   1.391   9.027 -0.2004  0.5764  0.4364
   57SAPC  H14X 4270   1.394   1.391   9.138 -0.0189  1.3423  0.4359
   57SAPC  H14Y 4271   1.364   1.288   8.995  2.7684  0.0099 -0.2626
   57SAPC  C315 4272   1.271   1.483   8.986  0.8444 -0.4770 -0.3464
   57SAPC  H15X 4273   1.270   1.508   8.877 -2.1862  0.7548 -0.1486
   57SAPC  H15Y 4274   1.295   1.578   9.039  0.5383 -0.2889 -0.5389
   57SAPC  C316 4275   1.135   1.436   9.028 -0.4809 -0.1250  0.2993
   57SAPC  H16X 4276   1.122   1.449   9.138  0.8749 -0.9587  0.5823
   57SAPC  H16Y 4277   1.113   1.332   8.997  0.6125 -0.1597 -0.3891
   57SAPC  C317 4278   1.019   1.534   8.977  0.4791 -0.2577 -0.4110
   57SAPC  H17X 4279   1.013   1.529   8.866  1.8486  0.6908 -0.5608
   57SAPC  H17Y 4280   1.030   1.639   9.014  0.0194 -0.9427  1.7947
   57SAPC  C318 4281   0.888   1.481   9.045  0.1977 -0.7890  0.4916
   57SAPC  H18X 4282   0.799   1.538   9.011 -0.0040 -0.9475  0.7494
   57SAPC  H18Y 4283   0.896   1.500   9.154  1.2077  2.0625  0.0161
   57SAPC  H18Z 4284   0.880   1.371   9.032 -1.1188 -0.4062 -3.2430
   58SAPC     N 4285   3.791   5.392  10.665 -0.5666 -0.3397  0.1117
   58SAPC   C12 4286   3.649   5.354  10.649 -0.4481 -0.3082  0.6686
   58SAPC  H12A 4287   3.609   5.416  10.570  1.3268  2.0334  1.4932
   58SAPC  H12B 4288   3.594   5.393  10.733 -0.8992 -1.0639  0.7323
   58SAPC   C13 4289   3.802   5.535  10.647  0.3187  0.1701  0.6256
   58SAPC  H13A 4290   3.779   5.558  10.544 -3.8002 -1.5875  0.9395
   58SAPC  H13B 4291   3.736   5.588  10.715  1.8215 -0.8735  3.0331
   58SAPC  H13C 4292   3.902   5.566  10.675 -0.5704  2.4072  1.5302
   58SAPC   C14 4293   3.847   5.354  10.796 -0.0244  0.2925  0.5327
   58SAPC  H14A 4294   3.786   5.392  10.877  0.3603  3.0668 -0.3723
   58SAPC  H14B 4295   3.839   5.246  10.794 -1.5098  0.3403 -2.6242
   58SAPC  H14C 4296   3.951   5.384  10.796 -0.0593  0.4132  0.1414
   58SAPC   C15 4297   3.867   5.329  10.544 -0.5878 -0.7805 -0.1764
   58SAPC  H15A 4298   3.819   5.357  10.451  1.5047  1.4506 -0.6827
   58SAPC  H15B 4299   3.966   5.371  10.554 -0.6986 -0.7770  1.0493
   58SAPC  H15C 4300   3.864   5.221  10.546  1.0163 -0.8481  2.0716
   58SAPC   C11 4301   3.615   5.208  10.628  0.3806  0.0709 -0.0629
   58SAPC  H11A 4302   3.650   5.164  10.532 -3.2065 -0.8481 -1.1001
   58SAPC  H11B 4303   3.504   5.210  10.623  0.3910  2.0854 -0.4621
   58SAPC     P 4304   3.640   4.967  10.760 -0.1277  0.1957  0.4371
   58SAPC   O13 4305   3.777   4.908  10.767 -0.3234 -0.2885 -0.1523
   58SAPC   O14 4306   3.551   4.935  10.875 -0.1204 -0.3067  0.4085
   58SAPC   O12 4307   3.648   5.129  10.742  0.0670  0.3174 -0.0669
   58SAPC   O11 4308   3.576   4.915  10.631  0.2340  0.4201  0.2257
   58SAPC    C1 4309   3.434   4.914  10.603  0.3758  0.8141  0.3567
   58SAPC    HA 4310   3.384   4.825  10.646 -1.2856  1.1762 -0.7287
   58SAPC    HB 4311   3.391   5.013  10.629 -0.5610  0.4364  0.2506
   58SAPC    C2 4312   3.411   4.906  10.452  0.1240 -0.1929  0.0377
   58SAPC    HS 4313   3.309   4.945  10.433 -0.7125 -2.1562  0.2905
   58SAPC   O21 4314   3.432   4.774  10.407 -0.3950  0.4066  0.5138
   58SAPC   C21 4315   3.327   4.695  10.396 -0.5441 -0.2606  0.4978
   58SAPC   O22 4316   3.214   4.731  10.407  0.0946 -0.5812 -0.4734
   58SAPC   C22 4317   3.365   4.557  10.354 -0.1293  0.0013 -0.3571
   58SAPC   H2R 4318   3.472   4.540  10.331 -0.3799 -2.7893  0.1387
   58SAPC   H2S 4319   3.331   4.490  10.436 -1.9022  0.3257 -0.7746
   58SAPC    C3 4320   3.521   4.998  10.370  0.3799  0.0967  0.0282
   58SAPC    HX 4321   3.621   4.951  10.386  1.0217  1.2696 -0.4616
   58SAPC    HY 4322   3.521   5.101  10.412  1.5859  0.7096 -1.3785
   58SAPC   O31 4323   3.497   4.993  10.232  0.0153  0.3939  0.0292
   58SAPC   C31 4324   3.555   5.082  10.154 -0.4207  0.7135  0.0614
   58SAPC   O32 4325   3.621   5.176  10.190 -0.0414 -0.4317 -0.1435
   58SAPC   C32 4326   3.531   5.046  10.010  0.0301 -0.3387  0.9620
   58SAPC   H2X 4327   3.420   5.052  10.004 -0.0053 -1.0558  0.9042
   58SAPC   H2Y 4328   3.564   4.943   9.987  1.2064  0.1236  0.5122
   58SAPC   C23 4329   3.277   4.519  10.237 -0.4845 -0.2693  0.3968
   58SAPC   H3R 4330   3.306   4.584  10.151 -0.2577  1.2020  1.5546
   58SAPC   H3S 4331   3.167   4.528  10.252 -0.6310  1.3427 -1.2801
   58SAPC   C24 4332   3.293   4.373  10.175 -0.6917 -0.0720  0.0058
   58SAPC   H4R 4333   3.228   4.359  10.087  1.1195 -0.6362 -1.3009
   58SAPC   H4S 4334   3.273   4.315  10.268  0.6921  0.7250  0.8332
   58SAPC   C25 4335   3.433   4.352  10.134  0.2450  0.7290  0.0449
   58SAPC   H5R 4336   3.505   4.321  10.212  1.4579 -0.1482 -1.3706
   58SAPC   C26 4337   3.480   4.368  10.008 -0.0012 -0.3274 -0.5087
   58SAPC   H6R 4338   3.584   4.334   9.995  0.0071 -0.7501  0.5661
   58SAPC   C27 4339   3.404   4.400   9.880 -0.4872  0.0615  0.1867
   58SAPC   H7R 4340   3.473   4.470   9.829 -0.5005  0.7838  1.1476
   58SAPC   H7S 4341   3.311   4.458   9.899 -0.8661 -0.2874 -0.5458
   58SAPC   C28 4342   3.368   4.269   9.805 -0.2583 -0.1600 -0.1945
   58SAPC   H8R 4343   3.330   4.196   9.877 -2.4414  0.9052 -0.1951
   58SAPC   C29 4344   3.385   4.241   9.674  0.1913 -0.0405  0.1968
   58SAPC   H9R 4345   3.358   4.138   9.648 -1.3322 -0.7526  3.8650
   58SAPC  C210 4346   3.437   4.331   9.565  0.5533  0.0915  0.4227
   58SAPC  H10R 4347   3.440   4.439   9.593  1.7312  0.3549 -0.6404
   58SAPC  H10S 4348   3.362   4.322   9.484  1.3962 -1.8084 -0.1899
   58SAPC  C211 4349   3.573   4.287   9.506 -0.0875 -0.7925  0.6040
   58SAPC  H11R 4350   3.659   4.292   9.575  1.4477  0.8772 -1.3063
   58SAPC  C212 4351   3.610   4.266   9.379  0.1633 -0.3743  0.5775
   58SAPC  H12R 4352   3.714   4.236   9.358  0.5910  1.0940  0.4216
   58SAPC  C213 4353   3.530   4.283   9.256  0.2903 -0.3987  0.1057
   58SAPC  H13R 4354   3.446   4.211   9.268 -0.4671  0.8134  2.7778
   58SAPC  H13S 4355   3.593   4.239   9.176 -1.1833  1.4776 -2.2178
   58SAPC  C214 4356   3.471   4.420   9.212 -0.3259 -0.2536 -0.1015
   58SAPC  H14R 4357   3.440   4.477   9.301 -0.8176 -0.7608  0.0583
   58SAPC  C215 4358   3.470   4.472   9.090 -0.8073  0.4805 -0.2328
   58SAPC  H15R 4359   3.418   4.567   9.075  0.0560  0.9119 -0.5383
   58SAPC  C216 4360   3.529   4.401   8.965 -0.6919 -0.7198  0.1995
   58SAPC  H16R 4361   3.487   4.305   8.927  1.0522 -1.3714 -0.1859
   58SAPC  H16S 4362   3.639   4.389   8.976  0.1843  3.6823 -1.4028
   58SAPC  C217 4363   3.517   4.486   8.841 -0.6973  0.3233 -0.2708
   58SAPC  H17R 4364   3.437   4.562   8.851 -0.8022  0.6675 -2.9278
   58SAPC  H17S 4365   3.486   4.412   8.764  0.2143  0.0942 -0.4418
   58SAPC  C218 4366   3.646   4.533   8.771  0.0489  0.2014  0.0888
   58SAPC  H18R 4367   3.708   4.445   8.743 -1.7286 -0.4805 -1.9607
   58SAPC  H18S 4368   3.692   4.592   8.854 -0.1004 -0.7344  0.8540
   58SAPC  C219 4369   3.617   4.617   8.647  0.5324 -0.1972 -0.4490
   58SAPC  H19R 4370   3.713   4.635   8.595  0.7822 -0.3694 -0.0515
   58SAPC  H19S 4371   3.569   4.711   8.680 -1.9757 -1.8547  0.9831
   58SAPC  C220 4372   3.525   4.552   8.549 -0.4961 -0.1732  0.1063
   58SAPC  H20R 4373   3.420   4.566   8.583  0.3639  2.9299  1.8388
   58SAPC  H20S 4374   3.544   4.443   8.536 -0.5315 -0.0547 -1.1017
   58SAPC  H20T 4375   3.553   4.600   8.452  2.3446 -1.8313  0.0068
   58SAPC   C33 4376   3.586   5.155   9.912  0.1767 -0.1682 -0.8558
   58SAPC   H3X 4377   3.694   5.165   9.936  0.5511 -2.4798 -1.3340
   58SAPC   H3Y 4378   3.537   5.253   9.933 -0.2501 -0.0442 -2.2893
   58SAPC   C34 4379   3.566   5.113   9.765 -0.2035 -0.0389  0.0406
   58SAPC   H4X 4380   3.461   5.133   9.735 -0.9327 -1.7717  1.2535
   58SAPC   H4Y 4381   3.594   5.006   9.756  0.0403  0.0065  0.2489
   58SAPC   C35 4382   3.650   5.190   9.663  0.0477  0.6682  0.0360
   58SAPC   H5X 4383   3.758   5.190   9.690 -0.1089  1.2623  0.6980
   58SAPC   H5Y 4384   3.608   5.293   9.654  0.2238  0.7208 -0.1968
   58SAPC   C36 4385   3.644   5.136   9.516 -0.2926 -0.2288 -0.6191
   58SAPC   H6X 4386   3.541   5.110   9.484  0.2620 -2.5877 -0.7035
   58SAPC   H6Y 4387   3.705   5.044   9.503  0.9319  0.0852  2.1448
   58SAPC   C37 4388   3.713   5.243   9.428 -0.4296  0.3900  0.3198
   58SAPC   H7X 4389   3.816   5.262   9.464 -2.0662  3.7670  4.1296
   58SAPC   H7Y 4390   3.658   5.336   9.456 -0.9656 -0.0523  0.7590
   58SAPC   C38 4391   3.701   5.226   9.270 -0.6895  0.3077 -0.8111
   58SAPC   H8X 4392   3.772   5.153   9.226 -0.9900 -1.2479  1.1459
   58SAPC   H8Y 4393   3.719   5.327   9.227 -3.6699  0.4072 -2.1012
   58SAPC   C39 4394   3.549   5.198   9.229 -0.3276 -0.2752 -0.7420
   58SAPC   H9X 4395   3.488   5.277   9.278 -0.3058 -0.4706 -0.3913
   58SAPC   H9Y 4396   3.525   5.109   9.292  0.5351 -0.3317 -0.4838
   58SAPC  C310 4397   3.509   5.199   9.091 -0.2123  0.1269 -0.4154
   58SAPC  H10X 4398   3.547   5.288   9.036  0.4270 -2.1632 -4.0677
   58SAPC  H10Y 4399   3.401   5.196   9.065 -0.1235 -1.4352 -0.7302
   58SAPC  C311 4400   3.561   5.066   9.017  0.1940  0.6132  0.1869
   58SAPC  H11X 4401   3.521   4.974   9.064 -0.3443  0.0119 -1.3604
   58SAPC  H11Y 4402   3.671   5.055   9.021  0.1538  0.0489 -0.0763
   58SAPC  C312 4403   3.526   5.064   8.868 -0.3567 -0.0994 -0.0589
   58SAPC  H12X 4404   3.416   5.056   8.858 -0.3271  0.4330 -0.8631
   58SAPC  H12Y 4405   3.577   4.969   8.840  1.5834  0.2689  1.9530
   58SAPC  C313 4406   3.598   5.179   8.788  0.2058  0.8829 -0.3914
   58SAPC  H13X 4407   3.708   5.167   8.790  0.1203 -0.4095  2.5443
   58SAPC  H13Y 4408   3.567   5.279   8.828  1.2856  1.2878 -0.5380
   58SAPC  C314 4409   3.554   5.195   8.644  0.3122 -0.2858  0.7586
   58SAPC  H14X 4410   3.444   5.203   8.628  0.4073 -1.7866 -0.9502
   58SAPC  H14Y 4411   3.580   5.100   8.593 -1.0992 -0.4087  0.2114
   58SAPC  C315 4412   3.613   5.313   8.563 -0.0119  0.4356  0.5439
   58SAPC  H15X 4413   3.721   5.304   8.587 -0.1960 -0.6898  1.0008
   58SAPC  H15Y 4414   3.575   5.408   8.608  1.3800  1.2848  0.0016
   58SAPC  C316 4415   3.578   5.293   8.418 -0.4441 -0.4988 -0.6863
   58SAPC  H16X 4416   3.592   5.185   8.398  1.2198 -0.4746  0.2667
   58SAPC  H16Y 4417   3.653   5.349   8.358 -0.6431  0.4272 -0.0859
   58SAPC  C317 4418   3.441   5.344   8.373 -0.9358 -0.0068  0.8009
   58SAPC  H17X 4419   3.430   5.454   8.363 -2.8037 -0.1776  0.6981
   58SAPC  H17Y 4420   3.363   5.315   8.446 -0.9751 -1.1147  0.3281
   58SAPC  C318 4421   3.396   5.280   8.234 -0.5697  0.2760 -0.2190
   58SAPC  H18X 4422   3.403   5.170   8.235 -1.6304  0.2043  0.3475
   58SAPC  H18Y 4423   3.474   5.314   8.162  0.7340  1.9557  1.8516
   58SAPC  H18Z 4424   3.296   5.312   8.197 -1.3076  1.8820  2.8395
   59SAPC     N 4425   3.823   0.726  11.411  0.4126  0.1773  0.1139
   59SAPC   C12 4426   3.935   0.811  11.356 -0.1169  0.6925 -0.2992
   59SAPC  H12A 4427   4.030   0.780  11.398 -1.0101  0.9133  2.0784
   59SAPC  H12B 4428   3.925   0.916  11.383  0.5803  1.3313 -2.3539
   59SAPC   C13 4429   3.797   0.758  11.555  0.2482  0.1925  0.3430
   59SAPC  H13A 4430   3.769   0.861  11.568  0.2100  0.1419  0.6869
   59SAPC  H13B 4431   3.723   0.692  11.598 -0.8279  1.2410  0.1718
   59SAPC  H13C 4432   3.884   0.758  11.619 -0.1058 -0.2914  0.8393
   59SAPC   C14 4433   3.691   0.732  11.335 -0.5949  0.3514 -0.3278
   59SAPC  H14A 4434   3.703   0.714  11.229 -1.3343  2.2983 -0.7883
   59SAPC  H14B 4435   3.613   0.666  11.371 -0.4528 -0.2813 -1.1602
   59SAPC  H14C 4436   3.652   0.833  11.340  2.0920  1.4240  0.5099
   59SAPC   C15 4437   3.858   0.581  11.387 -0.3049 -0.1369  0.1998
   59SAPC  H15A 4438   3.898   0.572  11.287  0.2811  2.2366  0.1642
   59SAPC  H15B 4439   3.931   0.547  11.458 -0.8577  0.4001  1.0378
   59SAPC  H15C 4440   3.771   0.519  11.403 -0.4142 -0.2672 -0.8428
   59SAPC   C11 4441   3.965   0.796  11.206  0.0167  0.3527  0.1970
   59SAPC  H11A 4442   4.009   0.895  11.180  1.1598  0.0742  0.9835
   59SAPC  H11B 4443   3.873   0.783  11.145  1.3306  0.2359 -1.8385
   59SAPC     P 4444   4.206   0.686  11.168 -0.2468 -0.1305 -0.1561
   59SAPC   O13 4445   4.272   0.768  11.270  0.0370  0.2327 -0.2900
   59SAPC   O14 4446   4.250   0.547  11.157 -0.0186 -0.1386  0.4640
   59SAPC   O12 4447   4.047   0.680  11.188  0.1445  0.5501 -0.4341
   59SAPC   O11 4448   4.225   0.760  11.027  0.8234 -0.0485 -0.6193
   59SAPC    C1 4449   4.142   0.718  10.909 -0.0289 -0.0098  0.2416
   59SAPC    HA 4450   4.050   0.665  10.942 -0.2805 -1.0735 -1.9871
   59SAPC    HB 4451   4.104   0.808  10.856  1.8846 -0.2084 -1.6455
   59SAPC    C2 4452   4.216   0.623  10.810  0.0781 -0.7079 -0.0090
   59SAPC    HS 4453   4.292   0.568  10.869  0.1875  0.3466  0.8449
   59SAPC   O21 4454   4.285   0.719  10.720 -0.3602  0.0868  0.3457
   59SAPC   C21 4455   4.407   0.669  10.676 -0.8318 -0.1302  0.6965
   59SAPC   O22 4456   4.461   0.573  10.726 -0.0015 -0.9044 -0.1267
   59SAPC   C22 4457   4.463   0.743  10.549 -0.4242 -0.6156 -0.3155
   59SAPC   H2R 4458   4.382   0.804  10.505  0.3501 -0.4506 -1.5346
   59SAPC   H2S 4459   4.553   0.799  10.583 -0.8120 -0.0981 -0.1264
   59SAPC    C3 4460   4.115   0.525  10.740 -0.1245  0.2367 -0.2002
   59SAPC    HX 4461   4.029   0.575  10.691 -0.4769 -1.6155 -1.5655
   59SAPC    HY 4462   4.081   0.456  10.821  0.7581  0.4749  0.3944
   59SAPC   O31 4463   4.180   0.462  10.627  0.0228 -0.1174  0.8259
   59SAPC   C31 4464   4.245   0.352  10.646  0.3734  0.6385 -0.1312
   59SAPC   O32 4465   4.266   0.296  10.756 -0.1693  0.0044  0.7176
   59SAPC   C32 4466   4.321   0.309  10.516  0.3620  0.5812 -0.4655
   59SAPC   H2X 4467   4.376   0.213  10.530  2.0552  1.6918  0.8531
   59SAPC   H2Y 4468   4.395   0.390  10.497 -1.0701  2.3286  1.0289
   59SAPC   C23 4469   4.496   0.638  10.435  0.5199  0.0978  0.0962
   59SAPC   H3R 4470   4.405   0.588  10.394  1.5637 -0.6467 -1.4237
   59SAPC   H3S 4471   4.566   0.568  10.485 -0.6288  1.0316  3.2555
   59SAPC   C24 4472   4.575   0.705  10.321 -0.3438 -0.7742  0.2798
   59SAPC   H4R 4473   4.670   0.757  10.348 -0.5396  0.5974 -1.4599
   59SAPC   H4S 4474   4.515   0.795  10.296 -0.2676 -0.0641  2.4041
   59SAPC   C25 4475   4.600   0.621  10.197  0.4370  0.0321  0.1641
   59SAPC   H5R 4476   4.637   0.520  10.222 -2.6020 -1.1529  0.2794
   59SAPC   C26 4477   4.580   0.647  10.069 -0.2765 -0.5692 -0.2953
   59SAPC   H6R 4478   4.595   0.564   9.999 -1.3856 -3.4827  2.6654
   59SAPC   C27 4479   4.529   0.770  10.009 -0.2377 -0.0023 -0.4488
   59SAPC   H7R 4480   4.470   0.823  10.086 -0.5076 -0.1755 -0.5343
   59SAPC   H7S 4481   4.451   0.737   9.936  0.1364 -2.3198  0.1275
   59SAPC   C28 4482   4.637   0.859   9.952  0.1760 -0.0524  0.0664
   59SAPC   H8R 4483   4.701   0.908  10.026  0.1823  3.4860 -2.0037
   59SAPC   C29 4484   4.650   0.896   9.823 -0.6563  0.3904  0.2376
   59SAPC   H9R 4485   4.721   0.977   9.802  0.9316 -0.4450  2.0415
   59SAPC  C210 4486   4.571   0.855   9.705 -0.0695  0.4463  0.6982
   59SAPC  H10R 4487   4.489   0.785   9.732 -1.2933  1.5892  0.0681
   59SAPC  H10S 4488   4.643   0.806   9.636  1.5619  1.9053  1.2820
   59SAPC  C211 4489   4.507   0.969   9.629 -0.3822 -0.1081 -0.8545
   59SAPC  H11R 4490   4.447   1.030   9.699  0.5862 -0.0204 -0.0704
   59SAPC  C212 4491   4.507   1.012   9.504  0.7908 -0.0466 -0.1567
   59SAPC  H12R 4492   4.443   1.095   9.471  0.9055 -0.1040 -0.5208
   59SAPC  C213 4493   4.582   0.942   9.397 -0.3308  0.5849  0.8948
   59SAPC  H13R 4494   4.620   0.842   9.428  1.3386  0.7711 -0.3684
   59SAPC  H13S 4495   4.665   1.010   9.367 -0.8850  0.4792 -1.0539
   59SAPC  C214 4496   4.505   0.921   9.271 -0.1782  0.1973  0.5117
   59SAPC  H14R 4497   4.480   0.818   9.242 -1.7029  0.0237  2.2306
   59SAPC  C215 4498   4.463   1.019   9.188  0.3255 -0.4010  0.1406
   59SAPC  H15R 4499   4.407   0.996   9.096  0.1897  0.9055 -0.1320
   59SAPC  C216 4500   4.481   1.172   9.209 -0.0301 -0.1836 -0.6003
   59SAPC  H16R 4501   4.535   1.208   9.299 -0.1240 -0.5583 -0.3925
   59SAPC  H16S 4502   4.375   1.203   9.222 -0.3346 -0.8089 -1.4269
   59SAPC  C217 4503   4.536   1.249   9.095 -0.3616  0.6545  0.2787
   59SAPC  H17R 4504   4.485   1.347   9.089 -1.0320  0.2273 -2.8078
   59SAPC  H17S 4505   4.504   1.196   9.003  0.6854  0.9204 -0.2458
   59SAPC  C218 4506   4.693   1.255   9.095  0.4980  0.6490  0.3535
   59SAPC  H18R 4507   4.723   1.150   9.076 -3.0232 -0.7172  1.4226
   59SAPC  H18S 4508   4.728   1.297   9.192 -2.7814  0.2541  1.8606
   59SAPC  C219 4509   4.731   1.352   8.981  0.1491  0.4455 -0.1040
   59SAPC  H19R 4510   4.670   1.442   9.003  1.2675  0.8174  1.6614
   59SAPC  H19S 4511   4.678   1.308   8.893 -0.1110 -5.2214  2.4491
   59SAPC  C220 4512   4.873   1.370   8.962  0.6001  0.0813 -0.0364
   59SAPC  H20R 4513   4.914   1.268   8.951 -0.8371 -0.7053  1.4887
   59SAPC  H20S 4514   4.930   1.411   9.048  0.7603 -2.1583  0.9779
   59SAPC  H20T 4515   4.894   1.422   8.866 -1.1474  0.3559 -0.3105
   59SAPC   C33 4516   4.229   0.307  10.386 -0.6803 -0.4699  0.2774
   59SAPC   H3X 4517   4.190   0.409  10.366  2.3366  0.4733 -1.3640
   59SAPC   H3Y 4518   4.141   0.243  10.408  0.8541 -2.5317  0.6548
   59SAPC   C34 4519   4.299   0.261  10.259 -0.5378  0.2688  0.3586
   59SAPC   H4X 4520   4.352   0.164  10.271 -0.3819  0.2799 -0.2112
   59SAPC   H4Y 4521   4.379   0.336  10.242 -0.3570  0.3085  1.2850
   59SAPC   C35 4522   4.210   0.258  10.141  0.1510  0.1786 -0.3695
   59SAPC   H5X 4523   4.151   0.352  10.140 -0.8595 -0.4227  0.1837
   59SAPC   H5Y 4524   4.129   0.182  10.151  0.4016 -0.1579 -0.8877
   59SAPC   C36 4525   4.277   0.217  10.008  0.3380 -0.0512 -0.3575
   59SAPC   H6X 4526   4.334   0.123  10.024  0.2429 -0.5836 -2.7885
   59SAPC   H6Y 4527   4.349   0.293   9.970  1.7316 -0.0408  2.0656
   59SAPC   C37 4528   4.184   0.203   9.887  0.1586 -1.2499 -0.2144
   59SAPC   H7X 4529   4.139   0.296   9.849  1.1548  1.0786  3.6819
   59SAPC   H7Y 4530   4.089   0.161   9.928 -0.1359 -1.0981 -0.7463
   59SAPC   C38 4531   4.260   0.141   9.773 -0.1645  0.6497  0.1817
   59SAPC   H8X 4532   4.312   0.048   9.805 -2.5263 -0.0865  2.2389
   59SAPC   H8Y 4533   4.340   0.209   9.738 -0.0501 -0.0445 -0.9465
   59SAPC   C39 4534   4.166   0.108   9.653 -0.3929 -0.4271  0.0351
   59SAPC   H9X 4535   4.099   0.196   9.649  1.0557  0.6781 -1.2357
   59SAPC   H9Y 4536   4.094   0.026   9.673  1.1638 -2.0202 -0.5888
   59SAPC  C310 4537   4.235   0.095   9.515  0.8437 -0.4771  0.2047
   59SAPC  H10X 4538   4.306   0.010   9.525  1.4899 -0.1623 -1.4462
   59SAPC  H10Y 4539   4.292   0.188   9.494  1.8024 -0.8931  0.8761
   59SAPC  C311 4540   4.133   0.082   9.399 -0.5073  0.3862  0.2922
   59SAPC  H11X 4541   4.079   0.178   9.413  0.9324  1.3592 -0.5689
   59SAPC  H11Y 4542   4.075  -0.013   9.406 -0.0548  0.1629  1.1323
   59SAPC  C312 4543   4.195   0.102   9.261 -0.4104 -0.3433  0.6440
   59SAPC  H12X 4544   4.280   0.034   9.237 -2.2020 -2.6872  0.6083
   59SAPC  H12Y 4545   4.235   0.205   9.251 -1.3953 -0.0443 -0.5043
   59SAPC  C313 4546   4.093   0.087   9.151 -0.0881  0.9813  0.4031
   59SAPC  H13X 4547   4.030   0.177   9.168  0.4584  1.1475  1.6779
   59SAPC  H13Y 4548   4.026  -0.000   9.169  1.2798 -0.3184 -0.6018
   59SAPC  C314 4549   4.139   0.086   9.009  0.3755 -0.9287 -0.5074
   59SAPC  H14X 4550   4.078   0.169   8.968 -0.6220  1.7381  5.3994
   59SAPC  H14Y 4551   4.110  -0.006   8.954 -1.4589  0.2293 -1.5555
   59SAPC  C315 4552   4.286   0.117   8.989  0.6464  0.5638  0.9629
   59SAPC  H15X 4553   4.348   0.040   9.040  1.9550  0.6874 -0.3734
   59SAPC  H15Y 4554   4.313   0.214   9.036  2.5730  2.5160 -3.5754
   59SAPC  C316 4555   4.326   0.121   8.836  0.1684 -0.1783  0.7069
   59SAPC  H16X 4556   4.432   0.152   8.830  0.4701 -1.2830 -3.9803
   59SAPC  H16Y 4557   4.260   0.198   8.791  0.6201 -0.6909 -0.9109
   59SAPC  C317 4558   4.313  -0.007   8.756 -0.3771  0.3642 -0.3669
   59SAPC  H17X 4559   4.207  -0.038   8.764 -0.2113 -0.7421 -1.9439
   59SAPC  H17Y 4560   4.371  -0.087   8.808  0.3349  1.7482  1.0845
   59SAPC  C318 4561   4.358   0.016   8.609 -0.1408  0.2791 -0.4320
   59SAPC  H18X 4562   4.408   0.115   8.602 -1.4220  1.0339  0.6508
   59SAPC  H18Y 4563   4.260   0.015   8.556 -1.3914  0.2060  1.7614
   59SAPC  H18Z 4564   4.428  -0.060   8.568  0.1317 -0.3153  1.0653
   60SAPC     N 4565   6.742   5.705  10.606  0.2437  0.1869  0.4448
   60SAPC   C12 4566   6.738   5.854  10.573 -0.2741 -0.0204 -0.0372
   60SAPC  H12A 4567   6.825   5.885  10.517  0.1339 -0.8233  0.1378
   60SAPC  H12B 4568   6.751   5.902  10.669  0.9948  3.0698 -1.5979
   60SAPC   C13 4569   6.615   5.662  10.680 -0.8736  0.1486 -0.2191
   60SAPC  H13A 4570   6.614   5.694  10.783  0.9693 -0.3844  0.0007
   60SAPC  H13B 4571   6.529   5.695  10.624  0.0477  3.1657 -0.0072
   60SAPC  H13C 4572   6.608   5.554  10.688  1.2436 -0.1268 -1.3006
   60SAPC   C14 4573   6.753   5.622  10.481 -0.0943  0.4737 -0.1572
   60SAPC  H14A 4574   6.660   5.627  10.425  0.2217  0.7237 -0.6727
   60SAPC  H14B 4575   6.843   5.646  10.426 -0.4891  0.2227 -0.9289
   60SAPC  H14C 4576   6.745   5.516  10.501 -1.7825 -0.0026 -2.8263
   60SAPC   C15 4577   6.860   5.672  10.678  0.1165 -0.6219  0.3721
   60SAPC  H15A 4578   6.852   5.689  10.785  0.4148 -2.5631  0.7552
   60SAPC  H15B 4579   6.879   5.565  10.678 -0.3567 -0.7071  0.4083
   60SAPC  H15C 4580   6.943   5.731  10.643 -1.1510  0.4109 -0.9575
   60SAPC   C11 4581   6.612   5.927  10.501  0.3979  0.6115  0.9256
   60SAPC  H11A 4582   6.599   5.880  10.401  0.7211 -0.3696  1.3298
   60SAPC  H11B 4583   6.655   6.028  10.481  0.3645  0.3686 -0.5393
   60SAPC     P 4584   6.463   6.000  10.698  0.2051  0.0083 -0.1651
   60SAPC   O13 4585   6.357   5.928  10.775 -0.9099 -0.1588  0.2356
   60SAPC   O14 4586   6.590   6.019  10.770  0.1389 -0.1478 -0.2505
   60SAPC   O12 4587   6.486   5.915  10.565 -0.1869 -0.6945 -0.0713
   60SAPC   O11 4588   6.411   6.142  10.646  0.2683 -0.8345  0.6600
   60SAPC    C1 4589   6.282   6.175  10.582 -0.1414 -0.1117  0.6615
   60SAPC    HA 4590   6.229   6.081  10.552  0.5939 -1.5578  3.5438
   60SAPC    HB 4591   6.215   6.228  10.652 -0.1131 -1.6512  1.9226
   60SAPC    C2 4592   6.294   6.259  10.461 -0.3994  0.1858  0.1740
   60SAPC    HS 4593   6.199   6.267  10.405 -0.2351 -2.3968 -0.6021
   60SAPC   O21 4594   6.383   6.187  10.367 -0.1778  0.2528 -0.1186
   60SAPC   C21 4595   6.362   6.185  10.241 -0.0764  0.1586  0.2350
   60SAPC   O22 4596   6.259   6.221  10.179 -0.6325  0.0679 -0.2251
   60SAPC   C22 4597   6.480   6.117  10.176 -0.1151  0.5146  0.7152
   60SAPC   H2R 4598   6.537   6.198  10.126 -1.8450  1.2404 -0.1589
   60SAPC   H2S 4599   6.552   6.073  10.249  0.0668 -0.7112 -0.1707
   60SAPC    C3 4600   6.330   6.407  10.488  0.4299 -0.9073 -0.2397
   60SAPC    HX 4601   6.424   6.394  10.546 -0.0021 -0.5177  0.5640
   60SAPC    HY 4602   6.253   6.446  10.558  0.4329 -4.6248  2.1067
   60SAPC   O31 4603   6.352   6.481  10.371  0.2624 -0.3407 -0.0391
   60SAPC   C31 4604   6.240   6.537  10.323 -0.6428  0.3928  0.6757
   60SAPC   O32 4605   6.140   6.563  10.387 -0.2019  0.3990 -0.4573
   60SAPC   C32 4606   6.261   6.551  10.171  0.8470 -0.1229  0.2053
   60SAPC   H2X 4607   6.337   6.472  10.152  1.5560 -0.4041  3.6657
   60SAPC   H2Y 4608   6.283   6.657  10.150 -1.0911  0.2324 -0.2898
   60SAPC   C23 4609   6.448   6.005  10.078  0.3490 -0.1166 -0.2469
   60SAPC   H3R 4610   6.380   6.037   9.996 -2.0767  0.9274  2.0365
   60SAPC   H3S 4611   6.395   5.931  10.143 -0.1370  1.1540  0.8588
   60SAPC   C24 4612   6.569   5.933  10.023  0.1348 -0.2353  0.5367
   60SAPC   H4R 4613   6.522   5.841   9.982 -0.9898 -0.5233  2.3304
   60SAPC   H4S 4614   6.634   5.897  10.106 -0.6236 -0.2213  1.1566
   60SAPC   C25 4615   6.657   6.011   9.927  0.3250 -0.8459  0.2891
   60SAPC   H5R 4616   6.704   6.104   9.963 -1.8710 -0.3466  2.1193
   60SAPC   C26 4617   6.674   5.997   9.792  0.4443 -0.1676  0.2013
   60SAPC   H6R 4618   6.745   6.060   9.737  0.8044 -1.0063 -0.3285
   60SAPC   C27 4619   6.603   5.889   9.703 -0.5943  0.1182  0.1403
   60SAPC   H7R 4620   6.537   5.952   9.640 -2.0344 -0.6359  0.8265
   60SAPC   H7S 4621   6.541   5.820   9.764  1.5850  0.3868  2.8607
   60SAPC   C28 4622   6.701   5.811   9.622 -0.7621 -0.2460 -1.2598
   60SAPC   H8R 4623   6.770   5.750   9.683  0.5311  1.3818 -1.0427
   60SAPC   C29 4624   6.723   5.821   9.487 -0.0246 -0.0431  0.1044
   60SAPC   H9R 4625   6.799   5.756   9.441 -1.2745 -1.5974  0.1521
   60SAPC  C210 4626   6.661   5.921   9.394 -0.6223  0.3459 -0.1572
   60SAPC  H10R 4627   6.716   6.017   9.386 -1.5337  0.8536 -0.5806
   60SAPC  H10S 4628   6.566   5.962   9.436 -0.7800  0.5279 -0.6776
   60SAPC  C211 4629   6.642   5.855   9.260 -0.1866  0.4058  0.3577
   60SAPC  H11R 4630   6.549   5.796   9.255 -1.6081  2.2849  2.3585
   60SAPC  C212 4631   6.722   5.870   9.159  0.2588 -0.3488 -0.5394
   60SAPC  H12R 4632   6.703   5.822   9.062  0.3212 -3.6554  0.9542
   60SAPC  C213 4633   6.859   5.933   9.159 -0.3325 -0.1343  0.8837
   60SAPC  H13R 4634   6.932   5.851   9.143  1.8520  2.0128 -0.9541
   60SAPC  H13S 4635   6.883   5.987   9.253  2.3589 -0.0730  0.2420
   60SAPC  C214 4636   6.879   6.031   9.046 -0.2442  0.0332 -0.0899
   60SAPC  H14R 4637   6.781   6.072   9.017 -0.8281 -1.2569  0.0136
   60SAPC  C215 4638   6.993   6.044   8.974 -0.5831  0.0788  0.1003
   60SAPC  H15R 4639   6.999   6.113   8.889 -1.4515 -0.1589 -0.1658
   60SAPC  C216 4640   7.126   5.972   8.991  0.2693 -0.0262  0.8726
   60SAPC  H16R 4641   7.174   5.937   8.897 -2.3418  0.3180 -0.6668
   60SAPC  H16S 4642   7.115   5.890   9.065  0.2076  1.2598  2.3548
   60SAPC  C217 4643   7.222   6.075   9.055  0.3600 -0.0694  0.2357
   60SAPC  H17R 4644   7.321   6.027   9.072  0.7512  0.4934 -0.3849
   60SAPC  H17S 4645   7.187   6.117   9.152  2.4007  0.9603  0.5824
   60SAPC  C218 4646   7.256   6.185   8.955  0.3371 -0.3382  0.2452
   60SAPC  H18R 4647   7.178   6.264   8.943 -1.2932 -1.4989  2.5007
   60SAPC  H18S 4648   7.252   6.137   8.855  0.1919  1.4662 -0.6523
   60SAPC  C219 4649   7.394   6.240   8.979  0.8483 -0.0619 -1.2880
   60SAPC  H19R 4650   7.419   6.293   8.884  0.5614  2.3946 -0.0686
   60SAPC  H19S 4651   7.472   6.163   8.995  0.2812 -0.1721  1.4800
   60SAPC  C220 4652   7.399   6.340   9.096  0.4488 -0.6442  0.0178
   60SAPC  H20R 4653   7.319   6.413   9.075 -0.9506 -0.4211  4.8774
   60SAPC  H20S 4654   7.499   6.390   9.096  0.8070 -1.3501 -0.0050
   60SAPC  H20T 4655   7.368   6.295   9.193  3.0777 -1.9048  0.3767
   60SAPC   C33 4656   6.141   6.506  10.084 -0.6536 -0.2742  0.6342
   60SAPC   H3X 4657   6.060   6.583  10.090 -0.4733 -0.0059 -0.2393
   60SAPC   H3Y 4658   6.112   6.404  10.118 -0.3294 -0.0279  1.7116
   60SAPC   C34 4659   6.190   6.504   9.939  0.5201  0.3463 -0.6037
   60SAPC   H4X 4660   6.251   6.412   9.926  2.2219  1.1662  0.9783
   60SAPC   H4Y 4661   6.257   6.585   9.904  1.6536 -1.6982 -3.5295
   60SAPC   C35 4662   6.075   6.493   9.844  0.4224 -0.4346  0.2095
   60SAPC   H5X 4663   5.999   6.574   9.845  1.4877  0.5956  1.1617
   60SAPC   H5Y 4664   6.011   6.405   9.868 -0.3392  0.2037  0.5600
   60SAPC   C36 4665   6.123   6.458   9.705 -0.5762  0.3764  0.2657
   60SAPC   H6X 4666   6.153   6.351   9.703 -1.0058  0.1702  2.2507
   60SAPC   H6Y 4667   6.216   6.517   9.687  0.2426 -0.6259  1.0936
   60SAPC   C37 4668   6.028   6.505   9.589  0.0298 -0.6456  0.3567
   60SAPC   H7X 4669   6.005   6.614   9.592  0.3873 -0.5079 -1.1904
   60SAPC   H7Y 4670   5.931   6.453   9.606 -0.4929  0.1513 -0.1186
   60SAPC   C38 4671   6.078   6.466   9.447  0.3003  0.0714 -0.0579
   60SAPC   H8X 4672   6.058   6.357   9.449  0.6575  0.0070  0.0257
   60SAPC   H8Y 4673   6.188   6.473   9.431  0.8131 -0.4433  2.6817
   60SAPC   C39 4674   6.008   6.541   9.334 -0.4731 -0.4104 -0.2907
   60SAPC   H9X 4675   6.043   6.646   9.345 -1.0309 -0.4886  3.3418
   60SAPC   H9Y 4676   5.900   6.540   9.358 -0.3756  1.0848  0.3259
   60SAPC  C310 4677   6.029   6.468   9.205  0.0786  0.7507 -0.2215
   60SAPC  H10X 4678   5.981   6.369   9.220 -2.6784  2.0831  0.5311
   60SAPC  H10Y 4679   6.134   6.448   9.176 -0.9543 -3.3025 -1.7894
   60SAPC  C311 4680   5.952   6.543   9.094 -0.2074 -0.1612  0.0849
   60SAPC  H11X 4681   5.850   6.571   9.127  0.4568 -0.7832  2.8812
   60SAPC  H11Y 4682   5.932   6.471   9.011 -2.1182  1.6313 -1.1132
   60SAPC  C312 4683   6.033   6.654   9.021  1.0150  0.0090 -0.8420
   60SAPC  H12X 4684   6.125   6.607   8.980  1.3547 -1.2644  1.2515
   60SAPC  H12Y 4685   6.059   6.730   9.097 -3.4380  0.3877  0.5928
   60SAPC  C313 4686   5.971   6.725   8.902 -0.2349 -0.3728 -0.3174
   60SAPC  H13X 4687   6.010   6.828   8.888  1.5485 -0.7624  1.3882
   60SAPC  H13Y 4688   5.864   6.746   8.925 -0.2503  0.4135 -1.0538
   60SAPC  C314 4689   5.990   6.651   8.772  0.6006  0.0712 -0.5146
   60SAPC  H14X 4690   5.945   6.551   8.793 -1.8952  1.3715  0.7964
   60SAPC  H14Y 4691   6.098   6.641   8.747  0.3369 -2.7939 -0.8806
   60SAPC  C315 4692   5.917   6.711   8.653 -0.1278  0.1139  0.1307
   60SAPC  H15X 4693   5.814   6.739   8.684  0.2534  3.2748 -1.0446
   60SAPC  H15Y 4694   5.916   6.630   8.578 -0.2727  1.3045 -1.1901
   60SAPC  C316 4695   5.964   6.849   8.596 -0.7119 -0.5106  0.1902
   60SAPC  H16X 4696   6.071   6.835   8.569 -0.4270  0.0640  1.0064
   60SAPC  H16Y 4697   5.964   6.935   8.665 -0.5563  0.5503 -1.0910
   60SAPC  C317 4698   5.872   6.889   8.472 -0.6225  0.0515 -0.0892
   60SAPC  H17X 4699   5.767   6.891   8.507 -0.1259  1.1352  1.4423
   60SAPC  H17Y 4700   5.877   6.806   8.398 -0.0068  0.4528 -0.5126
   60SAPC  C318 4701   5.917   7.021   8.399  0.0702 -0.1488 -1.0094
   60SAPC  H18X 4702   5.933   7.100   8.475  0.4390  0.4891 -1.7350
   60SAPC  H18Y 4703   5.837   7.062   8.334 -0.3988  0.7732  0.1060
   60SAPC  H18Z 4704   6.011   7.005   8.342  0.4786  1.1072 -0.7079
   61SAPC     N 4705   1.440   5.318  11.332 -0.5666  0.4310 -0.0788
   61SAPC   C12 4706   1.486   5.391  11.210 -0.0409  0.3486  1.2449
   61SAPC  H12A 4707   1.593   5.407  11.205  0.2987 -1.9894 -0.8474
   61SAPC  H12B 4708   1.429   5.482  11.199  0.3189  0.5070  0.6468
   61SAPC   C13 4709   1.477   5.407  11.447  0.0315  0.0886  0.1585
   61SAPC  H13A 4710   1.584   5.421  11.457  0.3127  0.3148 -2.4906
   61SAPC  H13B 4711   1.417   5.497  11.450 -0.7434 -0.2841 -2.1630
   61SAPC  H13C 4712   1.442   5.354  11.534 -1.2578  0.6947  0.0383
   61SAPC   C14 4713   1.296   5.308  11.328  0.2477 -0.6211 -0.2671
   61SAPC  H14A 4714   1.247   5.253  11.407 -1.0774 -0.7510 -1.1423
   61SAPC  H14B 4715   1.245   5.403  11.339 -1.2576 -1.6397  2.7705
   61SAPC  H14C 4716   1.269   5.262  11.234  0.7301  0.5832 -1.0191
   61SAPC   C15 4717   1.513   5.184  11.333  0.1222  0.5946  1.1626
   61SAPC  H15A 4718   1.621   5.189  11.320  0.4371 -2.7110  1.5567
   61SAPC  H15B 4719   1.507   5.134  11.428 -1.0331  0.1360  0.8588
   61SAPC  H15C 4720   1.471   5.123  11.254  0.2439  1.0852  0.7106
   61SAPC   C11 4721   1.456   5.310  11.071  0.1143  0.4859  0.0266
   61SAPC  H11A 4722   1.502   5.210  11.081  1.1043  0.8565 -0.6498
   61SAPC  H11B 4723   1.501   5.368  10.987 -2.6801  0.9064 -1.3210
   61SAPC     P 4724   1.225   5.407  10.994 -0.0698  0.2827 -0.4889
   61SAPC   O13 4725   1.094   5.344  11.006  0.6682  0.3476  0.5315
   61SAPC   O14 4726   1.251   5.529  11.078  0.2792 -0.3897 -0.4380
   61SAPC   O12 4727   1.318   5.295  11.051  0.1965  0.3481  0.1876
   61SAPC   O11 4728   1.267   5.432  10.845 -0.1917 -0.2006  0.5202
   61SAPC    C1 4729   1.285   5.330  10.748 -0.3609  0.2086  0.1596
   61SAPC    HA 4730   1.378   5.347  10.690 -1.4653 -0.6263 -1.9490
   61SAPC    HB 4731   1.308   5.232  10.794  2.8607  1.0864  0.6633
   61SAPC    C2 4732   1.156   5.312  10.667 -0.7551  0.2009 -0.0145
   61SAPC    HS 4733   1.072   5.294  10.738 -1.1120  0.0457 -0.4750
   61SAPC   O21 4734   1.177   5.217  10.562 -0.4096  1.0121 -0.1569
   61SAPC   C21 4735   1.155   5.090  10.610 -0.2915 -0.6462 -1.2530
   61SAPC   O22 4736   1.125   5.058  10.723 -0.3668  0.4673 -0.4766
   61SAPC   C22 4737   1.206   4.990  10.503 -0.1661  0.4492 -0.1385
   61SAPC   H2R 4738   1.137   4.993  10.416 -0.3553 -0.1347 -0.0127
   61SAPC   H2S 4739   1.311   5.007  10.470 -0.4026 -0.9107 -1.7207
   61SAPC    C3 4740   1.131   5.444  10.599  0.1019 -0.1465 -0.1761
   61SAPC    HX 4741   1.222   5.470  10.542  0.5979 -0.3046  0.5331
   61SAPC    HY 4742   1.114   5.519  10.679  3.4385 -0.6779  1.2049
   61SAPC   O31 4743   1.021   5.423  10.509  0.2377 -0.3410  0.1956
   61SAPC   C31 4744   0.981   5.522  10.441  0.3008  0.0133  0.0900
   61SAPC   O32 4745   1.027   5.635  10.437 -0.0698 -0.1010  0.1911
   61SAPC   C32 4746   0.860   5.483  10.365  0.5863 -0.5411  0.0509
   61SAPC   H2X 4747   0.772   5.496  10.433 -1.9055  1.8715 -3.3418
   61SAPC   H2Y 4748   0.875   5.377  10.333  1.4011 -1.1199  2.1593
   61SAPC   C23 4749   1.201   4.838  10.531 -0.5600  0.4977  0.9064
   61SAPC   H3R 4750   1.104   4.805  10.574 -1.6211 -0.2681 -1.8270
   61SAPC   H3S 4751   1.287   4.804  10.593 -0.1227  1.1192  0.6509
   61SAPC   C24 4752   1.212   4.763  10.396  0.2691 -0.2822  0.0238
   61SAPC   H4R 4753   1.296   4.808  10.340  0.9659 -2.3760 -0.7093
   61SAPC   H4S 4754   1.124   4.794  10.337  1.1647 -0.3531 -1.3908
   61SAPC   C25 4755   1.224   4.611  10.403 -0.2041  0.8568 -0.1340
   61SAPC   H5R 4756   1.215   4.575  10.507 -0.3460  1.7721  0.1795
   61SAPC   C26 4757   1.214   4.516  10.306 -0.3225 -0.3880 -0.4808
   61SAPC   H6R 4758   1.202   4.416  10.350 -2.2890  0.7674  1.8556
   61SAPC   C27 4759   1.207   4.522  10.155 -0.5763 -0.7498  0.6360
   61SAPC   H7R 4760   1.284   4.450  10.117  0.6402  0.9859 -0.3502
   61SAPC   H7S 4761   1.244   4.625  10.132 -2.4017  0.5400  3.0375
   61SAPC   C28 4762   1.068   4.482  10.110  0.4185 -0.7153 -0.3879
   61SAPC   H8R 4763   1.000   4.434  10.182 -0.3547  2.5141  1.2004
   61SAPC   C29 4764   1.018   4.508   9.986 -0.2675 -0.3624 -0.1694
   61SAPC   H9R 4765   0.912   4.483   9.968 -0.6598  1.5149 -0.6957
   61SAPC  C210 4766   1.098   4.561   9.866  0.6227 -0.0234  0.2009
   61SAPC  H10R 4767   1.201   4.594   9.892  0.6451  0.6510 -0.6657
   61SAPC  H10S 4768   1.043   4.656   9.846 -1.8969 -1.0059  1.9711
   61SAPC  C211 4769   1.105   4.470   9.740  0.6579 -0.5002 -0.1306
   61SAPC  H11R 4770   1.036   4.387   9.758 -3.0741  2.3622  0.0344
   61SAPC  C212 4771   1.161   4.508   9.616  0.2792  0.3595 -0.3506
   61SAPC  H12R 4772   1.146   4.434   9.536  1.6825 -1.1364  0.7178
   61SAPC  C213 4773   1.225   4.640   9.583 -0.4560 -0.5063  0.1635
   61SAPC  H13R 4774   1.326   4.619   9.543 -0.3741 -0.9554  0.6060
   61SAPC  H13S 4775   1.246   4.685   9.682 -1.7727 -3.9079  2.1653
   61SAPC  C214 4776   1.142   4.730   9.487 -0.2940  0.1911  0.1554
   61SAPC  H14R 4777   1.049   4.760   9.536 -0.2015  0.5095  0.1341
   61SAPC  C215 4778   1.186   4.786   9.377  0.1391  0.0939  0.3704
   61SAPC  H15R 4779   1.121   4.850   9.316  1.0566 -0.3553 -1.1448
   61SAPC  C216 4780   1.328   4.751   9.324 -0.3416 -0.3237 -0.4357
   61SAPC  H16R 4781   1.335   4.760   9.214 -0.4462  0.3191 -0.3946
   61SAPC  H16S 4782   1.358   4.645   9.340 -1.0936 -0.5413 -0.4022
   61SAPC  C217 4783   1.435   4.844   9.375 -0.2508 -0.1332 -0.0573
   61SAPC  H17R 4784   1.533   4.814   9.333 -0.1395  0.9241 -0.5817
   61SAPC  H17S 4785   1.454   4.845   9.485 -1.7751  1.8537  0.2533
   61SAPC  C218 4786   1.423   4.992   9.332  0.6486 -0.1923  0.7446
   61SAPC  H18R 4787   1.332   5.043   9.371 -0.1984  1.5781 -3.0225
   61SAPC  H18S 4788   1.392   4.986   9.226  1.1653 -2.0658  0.6727
   61SAPC  C219 4789   1.543   5.086   9.358 -0.1893  0.0014 -0.5134
   61SAPC  H19R 4790   1.515   5.188   9.321 -0.7133  0.4800  1.1126
   61SAPC  H19S 4791   1.633   5.043   9.309 -0.0081 -0.9316  0.5948
   61SAPC  C220 4792   1.588   5.098   9.503  0.5915  0.2935  0.0589
   61SAPC  H20R 4793   1.496   5.120   9.561 -0.4557  0.5734 -1.6334
   61SAPC  H20S 4794   1.668   5.175   9.510  1.2458 -0.3657 -0.0285
   61SAPC  H20T 4795   1.634   5.004   9.540 -0.5083 -0.6421 -0.8680
   61SAPC   C33 4796   0.822   5.580  10.244  0.5705  0.6722  0.7649
   61SAPC   H3X 4797   0.916   5.591  10.185  0.2246 -1.2025 -0.2283
   61SAPC   H3Y 4798   0.778   5.676  10.277 -3.5347 -0.2064 -1.5112
   61SAPC   C34 4799   0.709   5.505  10.178  0.1126 -0.2658 -0.2877
   61SAPC   H4X 4800   0.646   5.580  10.126 -1.0149 -1.1041 -0.1710
   61SAPC   H4Y 4801   0.649   5.451  10.254  0.4950  1.0584  0.9921
   61SAPC   C35 4802   0.759   5.401  10.073  0.0051 -0.1216 -0.0395
   61SAPC   H5X 4803   0.714   5.301  10.090  0.9835 -0.7081 -0.7975
   61SAPC   H5Y 4804   0.865   5.391  10.103  0.3600  3.2357  0.2390
   61SAPC   C36 4805   0.739   5.427   9.922  0.5468 -0.5031  0.9183
   61SAPC   H6X 4806   0.815   5.370   9.866 -1.0303  0.0527 -1.9916
   61SAPC   H6Y 4807   0.745   5.534   9.893  0.2888 -0.6493  0.3016
   61SAPC   C37 4808   0.597   5.388   9.891 -0.0881  0.2992 -0.1358
   61SAPC   H7X 4809   0.525   5.437   9.961 -0.2324 -3.0820  2.3140
   61SAPC   H7Y 4810   0.589   5.278   9.906  0.0628  0.4181  0.8861
   61SAPC   C38 4811   0.561   5.415   9.745 -0.0929  0.0694 -0.3726
   61SAPC   H8X 4812   0.561   5.526   9.735  1.5745  0.3644  2.0596
   61SAPC   H8Y 4813   0.457   5.382   9.722  0.4231 -1.8265 -0.1825
   61SAPC   C39 4814   0.661   5.336   9.644  0.4686 -0.3087  1.0718
   61SAPC   H9X 4815   0.657   5.229   9.674 -2.3232 -0.6992 -0.3692
   61SAPC   H9Y 4816   0.768   5.364   9.651  0.1055  0.7847  3.0805
   61SAPC  C310 4817   0.617   5.353   9.501 -0.5691  0.5683 -0.6257
   61SAPC  H10X 4818   0.650   5.455   9.471 -0.1376  0.6093 -0.0279
   61SAPC  H10Y 4819   0.506   5.365   9.503 -0.5438  0.6668  0.3691
   61SAPC  C311 4820   0.676   5.241   9.411  0.0599  0.2895  0.1445
   61SAPC  H11X 4821   0.622   5.145   9.424  1.0586 -0.1847  0.9404
   61SAPC  H11Y 4822   0.784   5.234   9.433  0.7445  2.3302 -2.1175
   61SAPC  C312 4823   0.677   5.280   9.267  0.1980 -0.1116  0.2882
   61SAPC  H12X 4824   0.748   5.365   9.251  2.1327 -1.6423  0.3139
   61SAPC  H12Y 4825   0.576   5.313   9.236 -1.1699 -1.6245  2.8488
   61SAPC  C313 4826   0.722   5.160   9.174 -0.1483 -0.0256 -0.7531
   61SAPC  H13X 4827   0.651   5.075   9.166  0.3193 -0.3064 -2.3479
   61SAPC  H13Y 4828   0.817   5.112   9.205 -1.4521 -1.1571  1.7621
   61SAPC  C314 4829   0.733   5.204   9.023 -0.2931  0.3818 -0.0767
   61SAPC  H14X 4830   0.796   5.122   8.981  2.0849  1.4099  1.2339
   61SAPC  H14Y 4831   0.785   5.302   9.023  1.2040 -0.3679 -1.2126
   61SAPC  C315 4832   0.601   5.199   8.957 -0.1422 -0.2464  0.3614
   61SAPC  H15X 4833   0.540   5.281   9.001  1.3727  0.5008  1.1548
   61SAPC  H15Y 4834   0.557   5.100   8.982  0.7796 -0.4425  1.2612
   61SAPC  C316 4835   0.611   5.216   8.803 -0.0403  0.4481  0.1793
   61SAPC  H16X 4836   0.685   5.297   8.783 -0.8667  1.0910 -0.3345
   61SAPC  H16Y 4837   0.513   5.243   8.760 -0.5031 -1.0738  0.2360
   61SAPC  C317 4838   0.653   5.081   8.732 -1.0949 -1.0471  0.2323
   61SAPC  H17X 4839   0.577   4.999   8.738 -2.2467 -0.0310 -0.0727
   61SAPC  H17Y 4840   0.745   5.052   8.787  0.0085  0.4199 -0.7892
   61SAPC  C318 4841   0.682   5.112   8.584 -0.4780  0.1817 -0.4179
   61SAPC  H18X 4842   0.698   5.015   8.532  0.8633  0.7927 -1.1852
   61SAPC  H18Y 4843   0.764   5.182   8.559 -0.3865  0.2786  0.1386
   61SAPC  H18Z 4844   0.588   5.147   8.535 -0.9519 -0.1865  0.2121
   62SAPC     N 4845   0.318   4.731  10.490  0.5723 -0.3123  0.1256
   62SAPC   C12 4846   0.443   4.668  10.424  0.4765 -0.1707 -0.3615
   62SAPC  H12A 4847   0.455   4.715  10.327 -0.5127 -0.9927 -0.9012
   62SAPC  H12B 4848   0.423   4.562  10.413 -1.0050  0.1845 -1.3578
   62SAPC   C13 4849   0.192   4.671  10.427 -0.2104 -0.3517 -0.2017
   62SAPC  H13A 4850   0.192   4.673  10.319 -1.2602  1.0828 -0.2120
   62SAPC  H13B 4851   0.180   4.568  10.459 -0.5146 -0.1386  0.4006
   62SAPC  H13C 4852   0.110   4.736  10.454 -0.2514 -0.2519 -0.5665
   62SAPC   C14 4853   0.309   4.711  10.635 -0.4464 -0.1945 -1.1433
   62SAPC  H14A 4854   0.257   4.621  10.665  2.7371 -2.0542 -0.7327
   62SAPC  H14B 4855   0.402   4.715  10.689 -1.3252 -2.1752  0.6364
   62SAPC  H14C 4856   0.238   4.787  10.664 -2.2772 -2.3876  0.5224
   62SAPC   C15 4857   0.306   4.883  10.460 -0.7374 -0.0613 -0.0503
   62SAPC  H15A 4858   0.403   4.928  10.479  0.7700 -2.2347 -2.1174
   62SAPC  H15B 4859   0.289   4.899  10.355 -1.8706  0.7501  0.2398
   62SAPC  H15C 4860   0.232   4.941  10.513 -1.0691  0.9916 -1.6098
   62SAPC   C11 4861   0.579   4.686  10.493 -0.0160 -0.0306 -0.4329
   62SAPC  H11A 4862   0.660   4.636  10.436 -0.2082  0.2369 -0.9500
   62SAPC  H11B 4863   0.570   4.635  10.592  1.5583 -0.6568 -0.5742
   62SAPC     P 4864   0.746   4.860  10.600  0.1671 -0.2032  0.3724
   62SAPC   O13 4865   0.702   4.884  10.740 -0.2605 -0.2099  0.1297
   62SAPC   O14 4866   0.852   4.760  10.584 -0.5668 -0.4934  0.8541
   62SAPC   O12 4867   0.615   4.820  10.515  0.4553 -0.2819 -0.0328
   62SAPC   O11 4868   0.782   5.001  10.535 -0.5348 -0.4545  0.4296
   62SAPC    C1 4869   0.850   5.016  10.410 -0.6206  0.1167 -0.8776
   62SAPC    HA 4870   0.899   5.116  10.418 -0.6399  0.2204 -1.9841
   62SAPC    HB 4871   0.931   4.940  10.402  1.4785  2.3546 -2.2115
   62SAPC    C2 4872   0.762   5.010  10.291  0.3264 -0.1605  1.5839
   62SAPC    HS 4873   0.740   4.904  10.268  1.6876 -0.5945  2.1652
   62SAPC   O21 4874   0.838   5.065  10.177  0.1202  0.6222 -0.2587
   62SAPC   C21 4875   0.910   4.986  10.101 -0.0689  0.2404 -0.7243
   62SAPC   O22 4876   0.926   4.866  10.122 -0.2672  0.5252 -0.7615
   62SAPC   C22 4877   0.951   5.057   9.975  0.1893  0.2506  0.2270
   62SAPC   H2R 4878   0.869   5.052   9.900  0.7331 -0.0574 -0.3596
   62SAPC   H2S 4879   0.978   5.162   9.997  3.8662 -0.8879  1.9250
   62SAPC    C3 4880   0.624   5.078  10.298  0.1338 -0.2600  0.1116
   62SAPC    HX 4881   0.656   5.181  10.322 -0.4786  0.1718 -0.8573
   62SAPC    HY 4882   0.564   5.039  10.382 -1.6383  2.0183 -0.0181
   62SAPC   O31 4883   0.550   5.093  10.176  0.3202 -0.4376  0.0561
   62SAPC   C31 4884   0.480   4.987  10.142  0.5842 -0.2273 -0.1841
   62SAPC   O32 4885   0.487   4.879  10.197  0.2490  0.0556 -0.1222
   62SAPC   C32 4886   0.401   5.027  10.006 -0.7972 -0.2519 -0.0195
   62SAPC   H2X 4887   0.475   5.094   9.957  0.0632 -1.0065  0.2238
   62SAPC   H2Y 4888   0.311   5.081  10.042 -0.2445 -1.1557  3.0238
   62SAPC   C23 4889   1.074   4.988   9.921 -0.8957  0.1681  0.1938
   62SAPC   H3R 4890   1.043   4.893   9.873  0.3945 -0.6946  0.9989
   62SAPC   H3S 4891   1.148   4.981  10.003 -1.1322  0.8895  0.4808
   62SAPC   C24 4892   1.157   5.073   9.818  0.1717 -0.4024 -0.2054
   62SAPC   H4R 4893   1.180   5.168   9.872  2.4045 -1.1661  0.2759
   62SAPC   H4S 4894   1.082   5.109   9.744 -0.5668 -1.3449  0.0667
   62SAPC   C25 4895   1.268   4.999   9.751  0.9857  0.4159 -0.1115
   62SAPC   H5R 4896   1.251   4.939   9.659  1.4229  1.3516 -0.8158
   62SAPC   C26 4897   1.385   4.990   9.805  0.6995 -0.0730  0.4713
   62SAPC   H6R 4898   1.462   4.931   9.754  0.0738 -2.6408  2.2868
   62SAPC   C27 4899   1.424   5.049   9.936 -0.7046  0.1536 -0.6013
   62SAPC   H7R 4900   1.347   5.030  10.014  3.3272 -3.9221  2.9996
   62SAPC   H7S 4901   1.456   5.156   9.933 -1.1856  0.3848  1.0757
   62SAPC   C28 4902   1.544   4.984  10.006 -0.0667 -0.7896 -0.2277
   62SAPC   H8R 4903   1.517   4.896  10.066  1.1981 -0.4101  0.9588
   62SAPC   C29 4904   1.674   5.016   9.979 -0.2664  0.0590 -0.2596
   62SAPC   H9R 4905   1.754   4.965  10.034 -0.4104  0.6569  0.5166
   62SAPC  C210 4906   1.717   5.120   9.884  0.2032 -0.6814 -0.0606
   62SAPC  H10R 4907   1.625   5.168   9.846  0.4302 -0.1040  0.1096
   62SAPC  H10S 4908   1.758   5.064   9.797 -0.5054 -2.9710  1.0175
   62SAPC  C211 4909   1.816   5.215   9.948 -0.5801 -0.5764 -0.2362
   62SAPC  H11R 4910   1.861   5.191  10.046  0.1627  1.9570  0.1134
   62SAPC  C212 4911   1.873   5.314   9.880  0.9542 -0.2825  1.2285
   62SAPC  H12R 4912   1.950   5.384   9.916  2.8876 -0.4347 -2.1917
   62SAPC  C213 4913   1.836   5.355   9.730  0.6676  0.1922 -0.4819
   62SAPC  H13R 4914   1.808   5.461   9.720 -0.7921 -0.3549 -2.8460
   62SAPC  H13S 4915   1.738   5.314   9.698 -0.4131  0.9196  1.7183
   62SAPC  C214 4916   1.953   5.336   9.635  0.0864 -0.0146  0.1787
   62SAPC  H14R 4917   2.046   5.299   9.680 -0.7358  0.7611  2.6904
   62SAPC  C215 4918   1.953   5.363   9.506 -0.0752  0.1152 -0.2349
   62SAPC  H15R 4919   2.046   5.360   9.447 -0.4497  0.4482 -0.8499
   62SAPC  C216 4920   1.836   5.408   9.423 -0.3065 -0.2919  0.2463
   62SAPC  H16R 4921   1.816   5.516   9.431 -3.3400 -0.8624  1.6300
   62SAPC  H16S 4922   1.741   5.366   9.462 -1.2369 -1.4100 -2.8865
   62SAPC  C217 4923   1.827   5.371   9.273  0.6422  0.1321  0.0394
   62SAPC  H17R 4924   1.845   5.262   9.258 -0.1856 -0.5540  3.1697
   62SAPC  H17S 4925   1.907   5.426   9.220 -0.3454  0.0757 -1.5693
   62SAPC  C218 4926   1.698   5.422   9.200  0.1884  0.5948 -0.4111
   62SAPC  H18R 4927   1.686   5.530   9.225  0.3683  0.4822  0.1656
   62SAPC  H18S 4928   1.608   5.372   9.243 -0.5410  1.8612 -0.4129
   62SAPC  C219 4929   1.708   5.407   9.051  0.2032 -0.9261  0.0267
   62SAPC  H19R 4930   1.803   5.450   9.013  0.3320 -0.3669  0.9637
   62SAPC  H19S 4931   1.626   5.473   9.016 -1.1522 -0.7463  3.2306
   62SAPC  C220 4932   1.699   5.260   9.001  0.4766  0.2905 -0.5697
   62SAPC  H20R 4933   1.606   5.210   9.035  1.5860 -0.6299  1.3063
   62SAPC  H20S 4934   1.790   5.203   9.030 -0.0031  0.8130  2.3169
   62SAPC  H20T 4935   1.698   5.260   8.890 -2.1300  1.0600 -0.6018
   62SAPC   C33 4936   0.388   4.909   9.914 -0.3467  0.0891 -0.1520
   62SAPC   H3X 4937   0.351   4.831   9.984 -0.3606 -0.4877 -0.7866
   62SAPC   H3Y 4938   0.484   4.874   9.871 -1.3888 -1.2529 -1.4714
   62SAPC   C34 4939   0.287   4.929   9.802 -0.1325 -0.7956  0.4826
   62SAPC   H4X 4940   0.209   5.004   9.826 -1.3996 -1.1609 -2.1536
   62SAPC   H4Y 4941   0.228   4.835   9.789  0.9006 -1.6217  1.5199
   62SAPC   C35 4942   0.348   4.972   9.672  0.0786  0.4518  0.5761
   62SAPC   H5X 4943   0.415   4.887   9.645 -1.3780 -0.9781  1.2691
   62SAPC   H5Y 4944   0.415   5.058   9.692  0.6166 -0.1316  1.3298
   62SAPC   C36 4945   0.249   4.990   9.556  0.2341  0.0936  1.0728
   62SAPC   H6X 4946   0.166   5.060   9.581  0.3955  0.8328 -0.3375
   62SAPC   H6Y 4947   0.217   4.888   9.526  0.8700  0.2645 -0.2421
   62SAPC   C37 4948   0.334   5.047   9.432  0.3329 -0.1421  0.1861
   62SAPC   H7X 4949   0.424   4.983   9.417  1.3223  1.1808  0.3135
   62SAPC   H7Y 4950   0.351   5.155   9.453 -3.2141  0.4422  0.7341
   62SAPC   C38 4951   0.251   5.037   9.301  0.4659  0.3266 -0.0549
   62SAPC   H8X 4952   0.165   5.107   9.308  0.6129  0.6012 -0.8289
   62SAPC   H8Y 4953   0.210   4.934   9.295  0.0590  0.4976 -0.2689
   62SAPC   C39 4954   0.331   5.045   9.176 -0.5751  0.4113 -0.2472
   62SAPC   H9X 4955   0.414   4.976   9.204  0.4385  2.3616  1.9737
   62SAPC   H9Y 4956   0.379   5.145   9.162  0.8275  0.2247  2.5358
   62SAPC  C310 4957   0.270   4.999   9.039 -0.1424 -0.6893  0.2381
   62SAPC  H10X 4958   0.204   4.911   9.054  0.5812 -1.9979 -3.3655
   62SAPC  H10Y 4959   0.363   4.960   8.992  0.9884  1.0469  0.9292
   62SAPC  C311 4960   0.212   5.108   8.959  0.0756 -0.4688 -0.1047
   62SAPC  H11X 4961   0.279   5.194   8.936 -0.1913 -0.0997  0.4807
   62SAPC  H11Y 4962   0.132   5.151   9.023  0.2451 -0.3000 -0.0056
   62SAPC  C312 4963   0.142   5.053   8.835 -0.2801  0.3701  0.2957
   62SAPC  H12X 4964   0.047   5.010   8.873  0.9024 -0.2263  2.7783
   62SAPC  H12Y 4965   0.194   4.965   8.790 -0.4396  0.6099 -0.3620
   62SAPC  C313 4966   0.102   5.150   8.727 -0.7050 -0.1831  0.4229
   62SAPC  H13X 4967   0.191   5.196   8.680 -0.7636 -1.2576 -0.7824
   62SAPC  H13Y 4968   0.039   5.229   8.774 -2.9722 -0.8444 -1.2959
   62SAPC  C314 4969   0.034   5.081   8.602 -0.1478  0.3388  0.6256
   62SAPC  H14X 4970  -0.069   5.059   8.636  0.0621  0.6075  1.4739
   62SAPC  H14Y 4971   0.080   4.983   8.580 -0.3488  0.1704  0.9478
   62SAPC  C315 4972   0.019   5.167   8.470 -0.4919  0.3727  0.8290
   62SAPC  H15X 4973  -0.056   5.121   8.403 -0.1174 -0.5975  1.0468
   62SAPC  H15Y 4974   0.112   5.147   8.413 -1.2615  1.9021 -1.0832
   62SAPC  C316 4975  -0.007   5.321   8.496 -0.7448  0.4353  0.1838
   62SAPC  H16X 4976   0.082   5.361   8.550  0.0954 -3.5141  2.1132
   62SAPC  H16Y 4977  -0.089   5.331   8.571 -1.1919 -1.6593  0.0642
   62SAPC  C317 4978  -0.029   5.393   8.367 -0.8217 -0.1837 -0.1499
   62SAPC  H17X 4979  -0.030   5.496   8.408  2.9921 -0.4910  1.0714
   62SAPC  H17Y 4980  -0.127   5.364   8.323 -1.3151  2.2633 -0.7931
   62SAPC  C318 4981   0.085   5.368   8.272 -0.5551 -0.0007  0.2718
   62SAPC  H18X 4982   0.086   5.435   8.182  0.1148 -0.6217 -0.1933
   62SAPC  H18Y 4983   0.082   5.266   8.229  2.6401 -0.2677  0.4079
   62SAPC  H18Z 4984   0.187   5.362   8.315 -0.4580 -2.0863 -0.1706
   63SAPC     N 4985   4.278   2.103   6.574 -0.2141 -0.8266 -0.2772
   63SAPC   C12 4986   4.172   2.134   6.666  0.1888  0.0931 -0.0493
   63SAPC  H12A 4987   4.215   2.182   6.753 -1.1518 -0.6919  1.0991
   63SAPC  H12B 4988   4.135   2.037   6.695 -0.3724 -0.0090 -1.0623
   63SAPC   C13 4989   4.358   1.989   6.629 -0.1964  1.2790 -0.1876
   63SAPC  H13A 4990   4.445   1.955   6.575 -1.5254 -1.2462 -0.9240
   63SAPC  H13B 4991   4.357   1.995   6.737 -0.1817 -1.6066  0.0690
   63SAPC  H13C 4992   4.297   1.900   6.617 -0.4756  1.1776  1.6469
   63SAPC   C14 4993   4.216   2.074   6.441  0.9745  0.1960  0.4243
   63SAPC  H14A 4994   4.283   2.030   6.370 -2.0385 -1.4940 -1.6070
   63SAPC  H14B 4995   4.140   1.999   6.458  1.0712 -0.9121 -3.2130
   63SAPC  H14C 4996   4.164   2.160   6.401  1.2016 -0.4118 -1.2419
   63SAPC   C15 4997   4.373   2.213   6.559 -0.1972 -0.8030 -0.5417
   63SAPC  H15A 4998   4.436   2.195   6.473 -3.1607 -2.2639 -2.5927
   63SAPC  H15B 4999   4.315   2.300   6.533 -0.1435 -0.0682  1.6591
   63SAPC  H15C 5000   4.432   2.225   6.648 -0.3280 -0.5571 -0.4868
   63SAPC   C11 5001   4.062   2.218   6.611  0.1176  0.1818  1.1043
   63SAPC  H11A 5002   4.014   2.259   6.702  0.2670  0.2903  1.1358
   63SAPC  H11B 5003   3.985   2.156   6.560 -0.5506  0.4411  1.7863
   63SAPC     P 5004   3.988   2.416   6.462  0.1912 -0.2220 -0.1389
   63SAPC   O13 5005   4.035   2.556   6.458  0.7418  0.4871  0.2126
   63SAPC   O14 5006   3.963   2.360   6.328 -0.0181 -0.0189 -0.0123
   63SAPC   O12 5007   4.096   2.331   6.533  0.1792  0.1253  0.0531
   63SAPC   O11 5008   3.861   2.402   6.563 -0.6289  0.4558  0.0339
   63SAPC    C1 5009   3.806   2.501   6.648 -0.0477 -0.1778 -0.1949
   63SAPC    HA 5010   3.812   2.606   6.613 -2.9304  0.6807  1.5159
   63SAPC    HB 5011   3.697   2.488   6.667  0.1826 -0.6885  0.8583
   63SAPC    C2 5012   3.861   2.501   6.795 -0.0863  0.1519  0.6188
   63SAPC    HS 5013   3.967   2.469   6.790 -0.8105 -2.4234  0.0572
   63SAPC   O21 5014   3.775   2.411   6.867 -0.0475  0.0577  0.1106
   63SAPC   C21 5015   3.828   2.323   6.946  0.9896  0.3045  0.0434
   63SAPC   O22 5016   3.947   2.314   6.974  0.0535 -0.1101  0.8991
   63SAPC   C22 5017   3.716   2.228   6.995  0.0720  0.3420  0.5636
   63SAPC   H2R 5018   3.618   2.281   6.990 -2.5398 -3.8075  1.7109
   63SAPC   H2S 5019   3.707   2.141   6.927 -2.5733  0.2731  0.8943
   63SAPC    C3 5020   3.858   2.640   6.860  0.4149 -0.0458 -0.3652
   63SAPC    HX 5021   3.759   2.690   6.855  1.0682  1.2517 -0.9918
   63SAPC    HY 5022   3.921   2.712   6.803  1.1612 -0.1497  0.3102
   63SAPC   O31 5023   3.893   2.640   6.999 -0.6789 -0.4981  0.3441
   63SAPC   C31 5024   4.027   2.635   7.021  0.7322  0.6872  0.3527
   63SAPC   O32 5025   4.106   2.611   6.935 -0.9058  0.1316  0.2425
   63SAPC   C32 5026   4.058   2.682   7.167  0.1486  0.0971  1.2768
   63SAPC   H2X 5027   3.970   2.692   7.234  1.4930 -2.0964  3.5136
   63SAPC   H2Y 5028   4.113   2.775   7.142  0.7466 -0.7515 -0.7824
   63SAPC   C23 5029   3.733   2.164   7.140  0.7368  0.5578  1.0890
   63SAPC   H3R 5030   3.841   2.146   7.161  1.3493  1.1844 -1.1782
   63SAPC   H3S 5031   3.673   2.071   7.142 -1.1673  1.5237 -2.3223
   63SAPC   C24 5032   3.675   2.254   7.253 -1.6068  0.6213  0.8414
   63SAPC   H4R 5033   3.735   2.347   7.256  0.1205 -0.3852 -0.4149
   63SAPC   H4S 5034   3.708   2.193   7.340 -0.3519  1.3037  0.8644
   63SAPC   C25 5035   3.522   2.271   7.248 -0.6975 -0.2147  0.6440
   63SAPC   H5R 5036   3.484   2.319   7.156  0.5758  0.4666  0.4456
   63SAPC   C26 5037   3.440   2.220   7.341 -0.3152 -0.3009  0.2017
   63SAPC   H6R 5038   3.333   2.229   7.318  0.1050 -0.6852 -2.0685
   63SAPC   C27 5039   3.478   2.136   7.461  0.6473  0.2253  0.0717
   63SAPC   H7R 5040   3.568   2.078   7.430  0.6161  0.9934 -1.5290
   63SAPC   H7S 5041   3.394   2.065   7.474  1.0346 -0.4705 -1.0943
   63SAPC   C28 5042   3.501   2.214   7.584 -0.2893 -0.0131 -0.6415
   63SAPC   H8R 5043   3.448   2.310   7.582  0.1058  0.2970  1.6520
   63SAPC   C29 5044   3.557   2.166   7.702 -0.7079  0.4033 -0.8159
   63SAPC   H9R 5045   3.540   2.237   7.784  0.3794 -0.5252  0.2422
   63SAPC  C210 5046   3.603   2.031   7.750  0.3393  0.4257  0.4797
   63SAPC  H10R 5047   3.708   2.029   7.787  1.2651 -2.0116 -1.9168
   63SAPC  H10S 5048   3.598   1.963   7.663 -2.0783 -1.4354  1.9390
   63SAPC  C211 5049   3.512   1.968   7.851  0.2478 -0.4621 -0.7225
   63SAPC  H11R 5050   3.422   1.912   7.823 -0.4752 -0.4818  1.4879
   63SAPC  C212 5051   3.529   1.979   7.984  0.4180 -0.5491 -0.7782
   63SAPC  H12R 5052   3.456   1.927   8.048  0.7442 -2.6967 -2.0528
   63SAPC  C213 5053   3.642   2.058   8.058 -0.1757  0.1701 -0.3852
   63SAPC  H13R 5054   3.698   2.126   7.990 -1.1401  0.9871 -0.3893
   63SAPC  H13S 5055   3.732   2.004   8.093  1.3984  2.1942 -1.1626
   63SAPC  C214 5056   3.581   2.136   8.174 -0.7426  0.2563 -0.5336
   63SAPC  H14R 5057   3.482   2.179   8.152 -0.7116  2.1896  2.5091
   63SAPC  C215 5058   3.642   2.164   8.303  0.0244  0.5877 -0.0364
   63SAPC  H15R 5059   3.605   2.250   8.361 -2.0756  0.7326 -1.4652
   63SAPC  C216 5060   3.781   2.115   8.334  0.0439 -0.2321  0.0695
   63SAPC  H16R 5061   3.838   2.069   8.250 -1.8767 -1.7834 -0.4628
   63SAPC  H16S 5062   3.771   2.045   8.421  0.7064 -1.2871 -0.6771
   63SAPC  C217 5063   3.853   2.240   8.388  0.0583 -0.2623 -0.1154
   63SAPC  H17R 5064   3.831   2.328   8.325  0.9103 -0.5576 -0.8429
   63SAPC  H17S 5065   3.964   2.236   8.390  0.0472 -0.6377 -0.0937
   63SAPC  C218 5066   3.811   2.261   8.541  0.3692 -0.2225  0.2083
   63SAPC  H18R 5067   3.845   2.167   8.589 -0.0770  0.0308  1.0350
   63SAPC  H18S 5068   3.702   2.276   8.557 -0.2849 -2.3785 -1.6687
   63SAPC  C219 5069   3.886   2.369   8.612 -1.0509  0.1734  0.0368
   63SAPC  H19R 5070   3.889   2.454   8.542 -0.1739  0.4484  0.3875
   63SAPC  H19S 5071   3.992   2.334   8.616 -1.7516 -2.3578 -1.2694
   63SAPC  C220 5072   3.840   2.411   8.752 -0.3464  0.2978  0.8484
   63SAPC  H20R 5073   3.862   2.326   8.821 -1.3986 -1.4755 -0.8810
   63SAPC  H20S 5074   3.732   2.437   8.752 -0.6967 -0.6556 -2.5293
   63SAPC  H20T 5075   3.881   2.511   8.776 -0.9817  0.9774 -0.7743
   63SAPC   C33 5076   4.147   2.581   7.240 -0.0187 -0.6719 -0.0959
   63SAPC   H3X 5077   4.230   2.548   7.174 -0.1657  0.6303 -0.9747
   63SAPC   H3Y 5078   4.083   2.493   7.266 -0.5506 -0.2862 -0.0838
   63SAPC   C34 5079   4.201   2.633   7.381 -0.3351  0.2437  0.9887
   63SAPC   H4X 5080   4.128   2.699   7.432 -0.1358  1.9123 -0.7408
   63SAPC   H4Y 5081   4.279   2.710   7.364 -1.9148  2.1447  1.9639
   63SAPC   C35 5082   4.246   2.516   7.473  0.3686 -0.4475 -1.0143
   63SAPC   H5X 5083   4.294   2.444   7.404 -1.1773  1.8550 -4.8293
   63SAPC   H5Y 5084   4.150   2.484   7.518 -0.0289  1.4232 -0.4282
   63SAPC   C36 5085   4.349   2.565   7.585  0.0886  0.2931 -0.6618
   63SAPC   H6X 5086   4.450   2.575   7.541  0.7457  0.2827  0.7928
   63SAPC   H6Y 5087   4.349   2.478   7.654 -1.5141  0.1963 -0.7537
   63SAPC   C37 5088   4.300   2.692   7.656  0.3169 -0.2213 -1.1061
   63SAPC   H7X 5089   4.191   2.690   7.674  0.3818 -1.3888 -0.7649
   63SAPC   H7Y 5090   4.316   2.783   7.594 -0.1236  2.1399  1.9932
   63SAPC   C38 5091   4.365   2.703   7.794  0.0507  0.0671  0.0810
   63SAPC   H8X 5092   4.379   2.812   7.811  0.7838  0.5729 -3.0805
   63SAPC   H8Y 5093   4.467   2.658   7.788  0.6660  1.5326 -1.2201
   63SAPC   C39 5094   4.308   2.656   7.924 -0.1537  0.5285 -0.4610
   63SAPC   H9X 5095   4.391   2.664   7.998  0.2783 -0.6049 -0.7974
   63SAPC   H9Y 5096   4.284   2.548   7.921  1.9587  0.0255 -2.7465
   63SAPC  C310 5097   4.172   2.723   7.966 -0.3049  0.5045  0.2001
   63SAPC  H10X 5098   4.115   2.737   7.871  1.6735 -1.6297 -1.4337
   63SAPC  H10Y 5099   4.193   2.825   8.004  2.3077 -1.1807  3.8502
   63SAPC  C311 5100   4.099   2.650   8.086 -0.1678 -0.4516 -0.3793
   63SAPC  H11X 5101   4.047   2.731   8.142  2.9439  0.6106  1.1847
   63SAPC  H11Y 5102   4.183   2.621   8.152 -0.2527 -2.0336 -0.9135
   63SAPC  C312 5103   4.002   2.537   8.053 -0.5115  0.1138 -0.4752
   63SAPC  H12X 5104   3.960   2.522   8.155  0.6247  0.3217  0.0323
   63SAPC  H12Y 5105   4.053   2.439   8.043 -0.4133  0.1476 -0.3148
   63SAPC  C313 5106   3.892   2.576   7.959  0.3147 -0.5120  0.0177
   63SAPC  H13X 5107   3.888   2.684   7.935  0.6199 -0.0411  1.9371
   63SAPC  H13Y 5108   3.790   2.560   8.002 -0.9922  2.5454 -1.6888
   63SAPC  C314 5109   3.904   2.497   7.831  0.3718 -0.6394 -0.8719
   63SAPC  H14X 5110   3.879   2.396   7.868 -2.1139  0.3061  0.2260
   63SAPC  H14Y 5111   4.009   2.506   7.795  1.0409 -1.8710  0.6893
   63SAPC  C315 5112   3.808   2.533   7.720 -0.6806  0.0299 -0.3400
   63SAPC  H15X 5113   3.701   2.548   7.746 -1.0585 -3.0653  0.2842
   63SAPC  H15Y 5114   3.793   2.446   7.652 -0.7788  0.4725 -0.9007
   63SAPC  C316 5115   3.868   2.646   7.638 -0.0643 -0.9122 -0.0148
   63SAPC  H16X 5116   3.978   2.640   7.653  0.1071  0.2925 -0.6989
   63SAPC  H16Y 5117   3.842   2.746   7.678  1.1548 -0.4531 -0.3313
   63SAPC  C317 5118   3.846   2.641   7.495  0.7399  0.0696  0.2061
   63SAPC  H17X 5119   3.901   2.564   7.436 -2.5386 -1.4947 -1.0860
   63SAPC  H17Y 5120   3.894   2.731   7.452 -0.5927  0.4502 -0.5610
   63SAPC  C318 5121   3.695   2.631   7.454 -0.3062  0.4109 -0.5588
   63SAPC  H18X 5122   3.649   2.548   7.512  0.7221  1.1615  1.4531
   63SAPC  H18Y 5123   3.680   2.612   7.346  0.4627 -0.8605 -0.4619
   63SAPC  H18Z 5124   3.649   2.726   7.488  2.2218  1.4989  0.0402
   64SAPC     N 5125   0.230   2.678   6.074  0.4047 -0.3766 -0.1452
   64SAPC   C12 5126   0.265   2.668   6.216 -0.0565  0.2747 -0.1911
   64SAPC  H12A 5127   0.289   2.566   6.243 -1.5776  0.0764  0.5135
   64SAPC  H12B 5128   0.178   2.685   6.279  0.3320 -1.4655  0.8789
   64SAPC   C13 5129   0.110   2.595   6.035 -0.0860 -0.2502  0.2084
   64SAPC  H13A 5130   0.016   2.648   6.038  0.1800  0.2656 -0.4625
   64SAPC  H13B 5131   0.127   2.569   5.932 -3.7214  1.4836 -1.0046
   64SAPC  H13C 5132   0.107   2.504   6.095  2.1305  0.5124  1.5865
   64SAPC   C14 5133   0.209   2.822   6.049 -0.2142  0.1744 -0.1432
   64SAPC  H14A 5134   0.175   2.839   5.948 -2.6358  4.6453  1.1453
   64SAPC  H14B 5135   0.132   2.860   6.114 -2.0287  0.4097 -2.3095
   64SAPC  H14C 5136   0.294   2.886   6.068  0.3625 -0.3933 -0.7230
   64SAPC   C15 5137   0.333   2.636   5.977  0.6404 -0.1929 -0.0626
   64SAPC  H15A 5138   0.363   2.532   5.980 -0.8195 -0.7109 -1.6872
   64SAPC  H15B 5139   0.286   2.640   5.880 -1.5970  0.2422  0.9830
   64SAPC  H15C 5140   0.417   2.704   5.971  0.1103  0.3401 -2.0605
   64SAPC   C11 5141   0.382   2.761   6.270 -0.5922 -0.1352  0.1782
   64SAPC  H11A 5142   0.404   2.735   6.375 -0.5599  1.5602  0.6222
   64SAPC  H11B 5143   0.336   2.861   6.283  0.3023  0.0337  2.3123
   64SAPC     P 5144   0.553   2.888   6.129 -0.0906  0.2092  0.1375
   64SAPC   O13 5145   0.627   2.854   6.009  0.4227  0.3638 -0.1940
   64SAPC   O14 5146   0.452   2.992   6.116  0.3272 -0.5143 -0.2917
   64SAPC   O12 5147   0.491   2.754   6.178  0.0719  0.1010  0.2937
   64SAPC   O11 5148   0.650   2.921   6.248  0.4364  0.3413  0.0412
   64SAPC    C1 5149   0.587   3.007   6.348 -0.2893 -0.2544  0.7337
   64SAPC    HA 5150   0.569   3.109   6.307 -0.6388 -0.1953  1.0374
   64SAPC    HB 5151   0.498   2.962   6.397  1.2500 -1.4941  2.5080
   64SAPC    C2 5152   0.699   3.044   6.452 -0.1482  0.3024  0.4995
   64SAPC    HS 5153   0.787   3.080   6.394 -2.0476  3.6407 -0.5602
   64SAPC   O21 5154   0.722   2.923   6.516 -0.5898 -0.1732  0.0304
   64SAPC   C21 5155   0.842   2.867   6.507  0.4936 -0.9836 -0.4792
   64SAPC   O22 5156   0.936   2.895   6.445  0.0292 -0.4028 -0.0061
   64SAPC   C22 5157   0.849   2.740   6.585 -0.4023  0.3165 -1.0580
   64SAPC   H2R 5158   0.805   2.762   6.685  0.1816  3.4738 -1.3816
   64SAPC   H2S 5159   0.794   2.670   6.519 -0.0475  1.3016 -2.4418
   64SAPC    C3 5160   0.655   3.153   6.564 -0.2152  0.3828  0.6889
   64SAPC    HX 5161   0.557   3.115   6.601  1.4432 -2.6215  2.4487
   64SAPC    HY 5162   0.629   3.248   6.514  0.6726  1.4253  2.1284
   64SAPC   O31 5163   0.756   3.179   6.668  0.1499 -0.0540  0.3087
   64SAPC   C31 5164   0.843   3.272   6.640 -0.5458 -0.2866  0.3547
   64SAPC   O32 5165   0.866   3.313   6.525  0.0923  0.0696 -0.7125
   64SAPC   C32 5166   0.911   3.328   6.765 -0.6801 -0.8220 -0.3832
   64SAPC   H2X 5167   0.906   3.252   6.846  0.3785 -1.2092 -0.6626
   64SAPC   H2Y 5168   0.842   3.407   6.799 -1.7496 -1.9647  0.2073
   64SAPC   C23 5169   0.992   2.679   6.605  0.2283 -0.0264 -0.7402
   64SAPC   H3R 5170   1.065   2.702   6.525  0.8782  1.9037  0.3291
   64SAPC   H3S 5171   0.976   2.569   6.604 -0.0028 -0.0242  0.6100
   64SAPC   C24 5172   1.055   2.704   6.746 -0.2218  0.8198  0.8667
   64SAPC   H4R 5173   1.158   2.662   6.758 -0.4397  0.5877  2.0829
   64SAPC   H4S 5174   1.006   2.653   6.831  0.0707 -1.6970 -0.3833
   64SAPC   C25 5175   1.064   2.848   6.770 -0.0556  0.2409  0.3861
   64SAPC   H5R 5176   1.102   2.919   6.695 -1.3757  1.0096  0.3996
   64SAPC   C26 5177   1.020   2.915   6.883 -0.5359  0.1860 -0.2859
   64SAPC   H6R 5178   1.054   3.019   6.893 -0.4514  0.2009 -0.6880
   64SAPC   C27 5179   0.965   2.845   7.003 -1.5066 -0.1340  0.0682
   64SAPC   H7R 5180   1.057   2.809   7.053 -1.5971 -0.6731 -0.1395
   64SAPC   H7S 5181   0.898   2.759   6.983 -2.1762 -0.1487  2.0988
   64SAPC   C28 5182   0.899   2.934   7.101  0.1963  0.3097 -0.4792
   64SAPC   H8R 5183   0.877   3.032   7.057 -0.3878 -0.1672 -1.2806
   64SAPC   C29 5184   0.873   2.909   7.229 -0.4318  0.1912 -0.1032
   64SAPC   H9R 5185   0.811   2.979   7.288 -1.3952  0.1653 -1.0565
   64SAPC  C210 5186   0.917   2.785   7.299  0.6383 -0.2811  0.4930
   64SAPC  H10R 5187   0.942   2.703   7.228 -0.3224 -1.1303  1.1001
   64SAPC  H10S 5188   0.841   2.731   7.359 -0.9339 -1.1221 -2.1183
   64SAPC  C211 5189   1.045   2.814   7.374  0.0898 -0.6257 -0.5937
   64SAPC  H11R 5190   1.129   2.860   7.321  1.4554 -3.0793 -0.7017
   64SAPC  C212 5191   1.066   2.807   7.511  0.4883 -0.3204  1.0106
   64SAPC  H12R 5192   1.161   2.838   7.558  0.5434  0.6824  0.2678
   64SAPC  C213 5193   0.957   2.770   7.612  0.2870  0.6781  0.4506
   64SAPC  H13R 5194   1.000   2.719   7.700 -1.0254 -0.6112  0.3815
   64SAPC  H13S 5195   0.919   2.675   7.569  0.9757  0.0875  1.1199
   64SAPC  C214 5196   0.857   2.874   7.633  0.1375  0.0294  0.3337
   64SAPC  H14R 5197   0.831   2.944   7.553 -0.3623  1.5388  1.7562
   64SAPC  C215 5198   0.808   2.908   7.756 -0.2631 -0.3337  0.7354
   64SAPC  H15R 5199   0.757   3.003   7.774 -2.2777 -1.2120 -0.0629
   64SAPC  C216 5200   0.848   2.846   7.884 -0.4911 -0.7211  0.2239
   64SAPC  H16R 5201   0.954   2.868   7.907 -0.4972 -0.8171  0.3455
   64SAPC  H16S 5202   0.856   2.735   7.878 -2.3854 -0.9379  0.7507
   64SAPC  C217 5203   0.767   2.888   8.005 -0.2897 -0.4139  0.7421
   64SAPC  H17R 5204   0.659   2.871   7.985 -0.7919  2.8536  0.1821
   64SAPC  H17S 5205   0.773   2.996   8.031 -0.4965 -0.6896  2.0302
   64SAPC  C218 5206   0.797   2.805   8.130 -0.0030 -0.2469  0.2417
   64SAPC  H18R 5207   0.902   2.830   8.154  0.1345 -0.1746 -0.4333
   64SAPC  H18S 5208   0.793   2.698   8.101  1.8715  0.0233 -1.1642
   64SAPC  C219 5209   0.699   2.829   8.240 -0.2561  0.6024 -0.0614
   64SAPC  H19R 5210   0.596   2.794   8.217  0.0858 -1.6160  1.4149
   64SAPC  H19S 5211   0.708   2.939   8.252  2.0534  0.3628  1.0099
   64SAPC  C220 5212   0.742   2.766   8.377  0.0450  0.0222 -0.0202
   64SAPC  H20R 5213   0.838   2.815   8.403  0.1222  0.7190 -1.5423
   64SAPC  H20S 5214   0.749   2.655   8.376  1.1317  0.0842 -1.0745
   64SAPC  H20T 5215   0.673   2.797   8.458 -0.5614 -0.7635 -0.2149
   64SAPC   C33 5216   1.053   3.389   6.748 -0.2204 -0.6888  0.6611
   64SAPC   H3X 5217   1.068   3.474   6.678 -0.1956 -1.2010  0.0304
   64SAPC   H3Y 5218   1.125   3.309   6.720 -0.4911 -0.4995 -0.6616
   64SAPC   C34 5219   1.102   3.452   6.879  0.0946 -0.6763  0.5856
   64SAPC   H4X 5220   1.027   3.530   6.902  0.8221 -0.0455  0.8761
   64SAPC   H4Y 5221   1.203   3.496   6.863 -0.2657 -0.4532 -1.2937
   64SAPC   C35 5222   1.112   3.354   6.994 -0.0838  0.3724  0.7454
   64SAPC   H5X 5223   1.185   3.275   6.967  0.7025  0.4912  2.3939
   64SAPC   H5Y 5224   1.008   3.315   7.003 -0.7548  1.5074 -1.4468
   64SAPC   C36 5225   1.145   3.416   7.132  0.2046 -0.1448  0.3327
   64SAPC   H6X 5226   1.075   3.502   7.138 -1.9820 -1.8342  0.3096
   64SAPC   H6Y 5227   1.251   3.447   7.142  1.1070 -2.2289 -1.7785
   64SAPC   C37 5228   1.109   3.334   7.258  0.5334  0.2626 -0.6855
   64SAPC   H7X 5229   1.012   3.284   7.238  0.6870  0.4454 -1.9736
   64SAPC   H7Y 5230   1.097   3.401   7.346  2.0797  0.1614 -0.3641
   64SAPC   C38 5231   1.212   3.230   7.295 -0.3560  1.2456  0.2326
   64SAPC   H8X 5232   1.307   3.284   7.313  0.2029  0.6280 -0.8138
   64SAPC   H8Y 5233   1.229   3.170   7.203  1.1832  0.7382  0.8296
   64SAPC   C39 5234   1.193   3.140   7.419  0.8459 -0.4544 -1.0908
   64SAPC   H9X 5235   1.283   3.080   7.443  0.5850 -0.0754  1.0506
   64SAPC   H9Y 5236   1.097   3.088   7.401  0.2509  0.7596 -1.5418
   64SAPC  C310 5237   1.171   3.231   7.544  0.3142 -0.3087  0.1698
   64SAPC  H10X 5238   1.082   3.296   7.536  0.0844 -0.5099  1.0141
   64SAPC  H10Y 5239   1.262   3.294   7.558 -0.3639  0.8651 -0.6192
   64SAPC  C311 5240   1.158   3.150   7.672  0.4557 -0.1194  0.1220
   64SAPC  H11X 5241   1.253   3.097   7.697 -0.4351 -1.6330  0.4030
   64SAPC  H11Y 5242   1.071   3.082   7.663  0.3317 -0.0440  0.7078
   64SAPC  C312 5243   1.132   3.240   7.796 -0.4994 -0.2930  0.1371
   64SAPC  H12X 5244   1.033   3.287   7.778 -0.7107 -0.5763  0.5319
   64SAPC  H12Y 5245   1.204   3.324   7.808  1.5756 -1.8116 -1.0433
   64SAPC  C313 5246   1.110   3.162   7.928  0.0468  0.1125  0.3391
   64SAPC  H13X 5247   1.190   3.087   7.946 -3.2530 -4.0254 -0.5831
   64SAPC  H13Y 5248   1.021   3.098   7.910  0.5002 -0.6395  0.7232
   64SAPC  C314 5249   1.098   3.258   8.048  0.4911  1.2181  0.8821
   64SAPC  H14X 5250   1.020   3.333   8.025 -0.2569  0.7221  1.7620
   64SAPC  H14Y 5251   1.193   3.309   8.077  0.6345  2.6791 -1.7565
   64SAPC  C315 5252   1.042   3.185   8.167  0.1981 -0.3293  0.3837
   64SAPC  H15X 5253   1.110   3.101   8.192 -0.0295 -1.2836 -1.9060
   64SAPC  H15Y 5254   0.947   3.136   8.137  0.6075  0.3701 -2.3793
   64SAPC  C316 5255   1.001   3.272   8.291  0.3301 -0.0144  0.8304
   64SAPC  H16X 5256   1.091   3.308   8.346  0.3404  1.5227 -0.1433
   64SAPC  H16Y 5257   0.947   3.198   8.353  0.4610  0.4154  1.4632
   64SAPC  C317 5258   0.905   3.382   8.264 -0.8763 -0.0982  0.0431
   64SAPC  H17X 5259   0.822   3.338   8.204  1.6580 -1.6899 -2.5157
   64SAPC  H17Y 5260   0.947   3.463   8.200 -0.6282 -1.6901 -1.9068
   64SAPC  C318 5261   0.851   3.447   8.394  0.6422  0.1642  0.1956
   64SAPC  H18X 5262   0.867   3.386   8.486  0.9227 -1.5604 -0.9455
   64SAPC  H18Y 5263   0.741   3.463   8.395  0.5943  1.0216 -3.4888
   64SAPC  H18Z 5264   0.906   3.543   8.405  0.2911  0.3814  0.0475
   65SAPC     N 5265   0.875   6.428   6.070 -0.0270  0.4122  0.1888
   65SAPC   C12 5266   0.768   6.398   6.183 -0.3681 -0.3679  0.1591
   65SAPC  H12A 5267   0.796   6.453   6.272  0.3672 -0.8055  0.2054
   65SAPC  H12B 5268   0.788   6.297   6.214  1.7865  0.5042  1.9208
   65SAPC   C13 5269   0.933   6.566   6.078  0.1249  0.2986  0.2398
   65SAPC  H13A 5270   0.984   6.585   6.171 -1.5474  1.7737  0.9039
   65SAPC  H13B 5271   0.996   6.582   5.991  1.0741  1.7037  1.1450
   65SAPC  H13C 5272   0.851   6.633   6.059 -0.6397 -1.2289 -2.4578
   65SAPC   C14 5273   0.985   6.334   6.092 -0.3348  0.5985  0.3341
   65SAPC  H14A 5274   0.971   6.247   6.030  1.0463  0.1806  0.5732
   65SAPC  H14B 5275   1.081   6.375   6.063  0.6955 -2.2265 -0.6053
   65SAPC  H14C 5276   0.989   6.303   6.195 -0.4592 -0.7826 -0.0648
   65SAPC   C15 5277   0.817   6.406   5.936 -0.5608 -0.1469  0.0128
   65SAPC  H15A 5278   0.747   6.483   5.906  0.5804  0.4128 -1.3406
   65SAPC  H15B 5279   0.901   6.416   5.869  0.9832 -1.4093  1.6806
   65SAPC  H15C 5280   0.775   6.307   5.933  0.2513 -0.6028  2.2227
   65SAPC   C11 5281   0.615   6.422   6.150 -0.6640 -0.0177  0.0873
   65SAPC  H11A 5282   0.560   6.395   6.242  0.7648  1.2691  1.3675
   65SAPC  H11B 5283   0.580   6.352   6.071  2.1218  0.7255 -1.9550
   65SAPC     P 5284   0.549   6.658   6.220 -0.1943 -0.1625  0.2677
   65SAPC   O13 5285   0.534   6.794   6.157  0.4086  0.3373 -0.2192
   65SAPC   O14 5286   0.428   6.618   6.289  0.1555 -0.0765 -0.3009
   65SAPC   O12 5287   0.583   6.555   6.108 -0.0695  0.6173  0.0566
   65SAPC   O11 5288   0.667   6.654   6.317 -0.5593  0.2907 -0.3839
   65SAPC    C1 5289   0.724   6.762   6.396  0.7709  1.2173 -0.0758
   65SAPC    HA 5290   0.784   6.836   6.338  0.0092  3.0483  1.3775
   65SAPC    HB 5291   0.639   6.813   6.445 -0.2444 -0.2614 -0.2407
   65SAPC    C2 5292   0.824   6.703   6.498  0.5694  1.0252  0.8940
   65SAPC    HS 5293   0.900   6.637   6.452  0.5725  1.2754  0.5353
   65SAPC   O21 5294   0.755   6.617   6.590 -0.4385  0.4633 -0.4111
   65SAPC   C21 5295   0.732   6.493   6.555  0.2374  0.0145 -0.1967
   65SAPC   O22 5296   0.767   6.431   6.460  0.2819 -0.4161  0.2301
   65SAPC   C22 5297   0.643   6.425   6.663  0.4368 -0.7887  0.0319
   65SAPC   H2R 5298   0.544   6.472   6.646  0.8954  0.4588  0.7154
   65SAPC   H2S 5299   0.642   6.321   6.622  1.0112 -0.7495 -0.0936
   65SAPC    C3 5300   0.903   6.816   6.565 -0.3668 -0.6228 -0.0915
   65SAPC    HX 5301   0.955   6.864   6.479 -1.7080 -0.9955 -1.1472
   65SAPC    HY 5302   0.979   6.782   6.638 -0.2586 -0.3562 -0.0776
   65SAPC   O31 5303   0.820   6.920   6.621 -0.7365  0.1211 -0.1782
   65SAPC   C31 5304   0.783   6.901   6.747 -0.0856  0.0732  0.0296
   65SAPC   O32 5305   0.819   6.805   6.813  0.0919 -0.2523 -0.1160
   65SAPC   C32 5306   0.700   7.019   6.801  0.1405 -0.1814 -0.8557
   65SAPC   H2X 5307   0.643   6.984   6.890 -0.3421  2.2823 -0.1192
   65SAPC   H2Y 5308   0.635   7.052   6.717 -2.0614  1.5644  1.3913
   65SAPC   C23 5309   0.691   6.429   6.812 -0.2302  0.0617 -0.2803
   65SAPC   H3R 5310   0.660   6.515   6.875  0.1037 -0.8484  1.1661
   65SAPC   H3S 5311   0.801   6.429   6.796 -0.1858 -1.1266 -0.0883
   65SAPC   C24 5312   0.631   6.302   6.882  0.1746 -0.2677  0.6264
   65SAPC   H4R 5313   0.647   6.291   6.991 -0.3917  0.5075  0.7947
   65SAPC   H4S 5314   0.676   6.210   6.839 -3.0139 -1.1225 -1.2156
   65SAPC   C25 5315   0.486   6.287   6.856  0.4744  0.4696  0.0951
   65SAPC   H5R 5316   0.449   6.256   6.758  2.0472  0.3717 -0.5000
   65SAPC   C26 5317   0.391   6.311   6.952  0.7100  0.3025  0.1320
   65SAPC   H6R 5318   0.286   6.282   6.938  0.5671 -0.3734  2.2813
   65SAPC   C27 5319   0.427   6.346   7.097  0.5535 -0.2898 -0.1545
   65SAPC   H7R 5320   0.343   6.390   7.153  0.8925  2.4200 -1.6008
   65SAPC   H7S 5321   0.503   6.427   7.095  0.5860 -0.1320  2.9281
   65SAPC   C28 5322   0.464   6.212   7.170  0.1868 -0.0443 -0.1634
   65SAPC   H8R 5323   0.414   6.125   7.124  0.7951  0.2302 -1.3722
   65SAPC   C29 5324   0.545   6.194   7.276  0.4588  0.1067  0.3745
   65SAPC   H9R 5325   0.561   6.089   7.306  0.6443  0.0051 -0.0712
   65SAPC  C210 5326   0.620   6.309   7.339 -0.3642  0.0191 -1.0500
   65SAPC  H10R 5327   0.549   6.368   7.402 -0.4969 -2.4001  1.2533
   65SAPC  H10S 5328   0.683   6.371   7.272 -0.5044 -0.5776 -1.7474
   65SAPC  C211 5329   0.719   6.251   7.438 -0.6024  0.4333  0.1311
   65SAPC  H11R 5330   0.786   6.177   7.393 -1.4895 -0.8356  0.8304
   65SAPC  C212 5331   0.730   6.275   7.575  0.6879 -0.4525 -0.0407
   65SAPC  H12R 5332   0.815   6.225   7.625 -0.0084 -0.6096  1.0342
   65SAPC  C213 5333   0.646   6.365   7.667 -0.7240  0.1283 -0.3802
   65SAPC  H13R 5334   0.612   6.309   7.758 -2.8806 -2.1101 -2.4240
   65SAPC  H13S 5335   0.553   6.400   7.619 -1.4730 -0.2989  0.7091
   65SAPC  C214 5336   0.720   6.480   7.713  0.4660 -0.3627  0.3062
   65SAPC  H14R 5337   0.700   6.568   7.650 -0.0280 -1.2408 -0.7970
   65SAPC  C215 5338   0.829   6.487   7.792 -0.0116 -0.2802  0.1868
   65SAPC  H15R 5339   0.884   6.580   7.811 -1.0096  0.7375 -1.5801
   65SAPC  C216 5340   0.902   6.380   7.876  0.4843  0.6340  0.1088
   65SAPC  H16R 5341   1.008   6.370   7.844  0.0592 -4.2330 -0.5488
   65SAPC  H16S 5342   0.852   6.287   7.841  1.0411  0.9358 -1.5673
   65SAPC  C217 5343   0.919   6.394   8.033 -0.4528 -0.5768  0.0910
   65SAPC  H17R 5344   0.957   6.494   8.062 -0.5193 -0.9094  1.3499
   65SAPC  H17S 5345   0.988   6.312   8.063 -0.6792 -0.2676  1.5138
   65SAPC  C218 5346   0.785   6.367   8.111 -0.4339 -0.0390  0.4569
   65SAPC  H18R 5347   0.707   6.366   8.033  1.1436 -2.4075 -1.2251
   65SAPC  H18S 5348   0.770   6.452   8.181 -1.4863 -0.2272  0.4708
   65SAPC  C219 5349   0.779   6.230   8.172 -0.2810  0.2155  0.2756
   65SAPC  H19R 5350   0.686   6.230   8.232  0.9166  1.2740  2.2414
   65SAPC  H19S 5351   0.865   6.211   8.240  0.6150  2.0226 -0.2930
   65SAPC  C220 5352   0.780   6.121   8.064 -0.0484  0.0308  0.3903
   65SAPC  H20R 5353   0.764   6.025   8.118  0.4946  0.8123  2.0018
   65SAPC  H20S 5354   0.872   6.109   8.003 -1.0001  2.1984 -1.6260
   65SAPC  H20T 5355   0.696   6.141   7.995 -0.9138 -0.2823  1.3283
   65SAPC   C33 5356   0.787   7.142   6.841 -0.0423  0.8247  0.0417
   65SAPC   H3X 5357   0.730   7.237   6.849 -2.0919 -0.3816  0.3683
   65SAPC   H3Y 5358   0.859   7.165   6.758 -1.0166  0.1168 -1.0317
   65SAPC   C34 5359   0.858   7.114   6.976  0.3330 -0.0601 -0.6631
   65SAPC   H4X 5360   0.953   7.171   6.983  1.3470 -1.6775 -0.6538
   65SAPC   H4Y 5361   0.884   7.006   6.985 -2.1209 -0.5313  3.3495
   65SAPC   C35 5362   0.767   7.131   7.096 -0.6756  0.0486 -0.8312
   65SAPC   H5X 5363   0.696   7.045   7.103  2.0590 -2.4427 -1.5877
   65SAPC   H5Y 5364   0.709   7.225   7.084 -2.1618  0.0186  4.0989
   65SAPC   C36 5365   0.831   7.146   7.228  1.4845  0.0264 -0.2073
   65SAPC   H6X 5366   0.755   7.137   7.309 -0.0182  1.1915 -1.4417
   65SAPC   H6Y 5367   0.868   7.250   7.240 -0.4052  0.5852  1.2594
   65SAPC   C37 5368   0.948   7.044   7.254  0.2434 -0.4196 -0.0886
   65SAPC   H7X 5369   1.031   7.088   7.194  0.7805  0.9160  1.5556
   65SAPC   H7Y 5370   0.920   6.943   7.216  2.4992 -1.5076  0.9736
   65SAPC   C38 5371   0.989   7.031   7.401 -1.1342 -0.1690  0.6992
   65SAPC   H8X 5372   1.042   7.124   7.429 -0.9809  0.7788 -2.3744
   65SAPC   H8Y 5373   1.070   6.956   7.381 -0.5143  1.0416 -1.7000
   65SAPC   C39 5374   0.893   6.991   7.506 -0.0479 -0.1820  0.1305
   65SAPC   H9X 5375   0.851   6.896   7.467  0.4642 -0.8387  1.1461
   65SAPC   H9Y 5376   0.807   7.060   7.520  0.7925  0.4169  3.0306
   65SAPC  C310 5377   0.960   6.978   7.646 -0.4394  0.5578 -0.7136
   65SAPC  H10X 5378   1.020   7.069   7.666  0.6400 -0.7706  2.8574
   65SAPC  H10Y 5379   1.028   6.891   7.635  0.6267  1.0763  1.2891
   65SAPC  C311 5380   0.864   6.945   7.762 -0.5343  0.6105  0.4721
   65SAPC  H11X 5381   0.807   6.854   7.734  0.7622 -0.4579  1.1866
   65SAPC  H11Y 5382   0.786   7.024   7.770 -0.2593  1.1308 -1.3772
   65SAPC  C312 5383   0.934   6.928   7.905  0.3880 -0.3317  0.1600
   65SAPC  H12X 5384   0.966   7.031   7.933 -0.1830 -0.0943 -0.0543
   65SAPC  H12Y 5385   1.025   6.868   7.880  0.5886 -0.3228  0.8450
   65SAPC  C313 5386   0.841   6.861   8.008 -0.6093 -0.9644 -0.4380
   65SAPC  H13X 5387   0.812   6.759   7.975 -2.4027 -0.2488 -1.2122
   65SAPC  H13Y 5388   0.750   6.925   8.015  0.4454  0.7875 -1.9834
   65SAPC  C314 5389   0.906   6.857   8.154  0.3040 -0.3010 -0.2762
   65SAPC  H14X 5390   0.919   6.961   8.192 -1.8007 -0.5419  1.2686
   65SAPC  H14Y 5391   1.008   6.813   8.151  1.0754  1.3735 -2.9940
   65SAPC  C315 5392   0.804   6.799   8.253 -0.3861 -0.2447 -0.9231
   65SAPC  H15X 5393   0.749   6.719   8.199  1.0124 -1.0877 -1.1376
   65SAPC  H15Y 5394   0.736   6.867   8.310  0.7565  0.3861 -0.2658
   65SAPC  C316 5395   0.868   6.727   8.371 -0.4557 -0.4498  0.1710
   65SAPC  H16X 5396   0.937   6.808   8.402  1.5613 -1.5080 -1.3565
   65SAPC  H16Y 5397   0.922   6.644   8.321  1.1774  0.5634  0.1828
   65SAPC  C317 5398   0.766   6.689   8.475  0.1437  0.8792  0.4758
   65SAPC  H17X 5399   0.690   6.626   8.423 -0.1674  1.8314 -0.2483
   65SAPC  H17Y 5400   0.718   6.781   8.515 -1.6788  0.1886 -0.0113
   65SAPC  C318 5401   0.830   6.609   8.593  0.1940 -1.1730 -0.7065
   65SAPC  H18X 5402   0.747   6.579   8.660  0.7104  1.3023  1.1749
   65SAPC  H18Y 5403   0.915   6.659   8.643  0.2031 -1.1995 -0.6950
   65SAPC  H18Z 5404   0.860   6.508   8.556 -3.1258 -2.3941 -0.4314
   66SAPC     N 5405   4.415   4.298   6.129 -0.3424 -0.0257 -0.3499
   66SAPC   C12 5406   4.522   4.364   6.226  0.3524 -0.2152  0.4350
   66SAPC  H12A 5407   4.472   4.436   6.289  1.2353  1.6575 -0.9041
   66SAPC  H12B 5408   4.592   4.424   6.171  1.8874 -1.8033  0.5585
   66SAPC   C13 5409   4.338   4.197   6.203 -0.1374  0.2454  0.0430
   66SAPC  H13A 5410   4.283   4.129   6.140  1.0414 -0.0878 -0.6534
   66SAPC  H13B 5411   4.414   4.138   6.252 -1.4327 -1.4063  0.1327
   66SAPC  H13C 5412   4.263   4.250   6.260  1.9047  1.0356  2.1578
   66SAPC   C14 5413   4.327   4.403   6.067 -0.0230 -0.1438  0.1285
   66SAPC  H14A 5414   4.235   4.369   6.021  0.1268 -0.4097  0.0206
   66SAPC  H14B 5415   4.308   4.479   6.141  0.1397  0.0912 -0.0697
   66SAPC  H14C 5416   4.381   4.446   5.984 -2.2470 -1.0487 -1.8829
   66SAPC   C15 5417   4.471   4.223   6.009 -0.0831 -0.3027 -0.0006
   66SAPC  H15A 5418   4.545   4.146   6.027 -0.0527 -0.1901  0.3662
   66SAPC  H15B 5419   4.389   4.181   5.952 -1.3845  1.5515  0.4041
   66SAPC  H15C 5420   4.520   4.288   5.938 -1.7772  1.2141  0.1401
   66SAPC   C11 5421   4.604   4.269   6.309 -0.6273  0.2315  0.0707
   66SAPC  H11A 5422   4.535   4.196   6.357 -0.5855  0.3386  0.2943
   66SAPC  H11B 5423   4.656   4.326   6.389  0.4025 -0.6071  0.0164
   66SAPC     P 5424   4.829   4.280   6.167  0.2216  0.1896 -0.0416
   66SAPC   O13 5425   4.894   4.187   6.069 -0.2881 -0.1976  0.3249
   66SAPC   O14 5426   4.780   4.413   6.122  0.0988  0.7629  0.5963
   66SAPC   O12 5427   4.708   4.203   6.231  0.1622 -0.4013 -0.5860
   66SAPC   O11 5428   4.925   4.299   6.292 -0.1895  0.2413 -0.1592
   66SAPC    C1 5429   4.906   4.414   6.372  0.3199  0.2201 -0.5621
   66SAPC    HA 5430   4.822   4.481   6.344  0.4494  0.8691  0.5031
   66SAPC    HB 5431   4.888   4.391   6.479  0.0472  2.2138 -0.1298
   66SAPC    C2 5432   5.032   4.506   6.368  0.1231 -0.5570 -0.3551
   66SAPC    HS 5433   5.053   4.517   6.260  2.3925 -0.2580  0.0550
   66SAPC   O21 5434   5.137   4.434   6.441  0.4811 -0.5588  0.0564
   66SAPC   C21 5435   5.260   4.481   6.411 -0.5174  0.2749  0.3919
   66SAPC   O22 5436   5.283   4.574   6.333 -0.1776  0.8171  0.2819
   66SAPC   C22 5437   5.371   4.412   6.496  0.0956  0.1324  0.1867
   66SAPC   H2R 5438   5.351   4.303   6.483 -2.5428  0.1920  2.7768
   66SAPC   H2S 5439   5.476   4.432   6.465  1.4217 -2.7011  2.3974
   66SAPC    C3 5440   5.007   4.649   6.435 -0.4326 -0.9851  0.2060
   66SAPC    HX 5441   4.914   4.701   6.402  0.0945 -0.2928 -0.2289
   66SAPC    HY 5442   5.096   4.710   6.407  1.0685 -2.8223  0.7319
   66SAPC   O31 5443   4.987   4.629   6.577 -0.1156 -0.5935  0.2326
   66SAPC   C31 5444   5.072   4.689   6.650 -0.0908  0.5811  0.6040
   66SAPC   O32 5445   5.174   4.748   6.613  0.3855 -0.3332  0.5763
   66SAPC   C32 5446   5.021   4.683   6.797  0.1032 -0.1677  0.7554
   66SAPC   H2X 5447   4.989   4.579   6.821  1.5573 -0.4137  1.7411
   66SAPC   H2Y 5448   4.929   4.744   6.808  0.3314  0.2993  0.1704
   66SAPC   C23 5449   5.360   4.444   6.646  0.1465  0.0560  0.1368
   66SAPC   H3R 5450   5.252   4.453   6.670  0.1274  0.2717 -0.0276
   66SAPC   H3S 5451   5.407   4.540   6.679  0.3166  0.1591 -0.3977
   66SAPC   C24 5452   5.431   4.332   6.715  0.2195 -0.4575 -0.1341
   66SAPC   H4R 5453   5.534   4.329   6.676  0.5275 -0.3736  0.6495
   66SAPC   H4S 5454   5.379   4.239   6.682 -0.9948 -0.4854  1.7078
   66SAPC   C25 5455   5.443   4.342   6.868 -0.3674  0.4439 -0.4793
   66SAPC   H5R 5456   5.426   4.444   6.905 -2.5440  1.1131 -3.0172
   66SAPC   C26 5457   5.456   4.243   6.962 -0.1002 -0.2645  0.7498
   66SAPC   H6R 5458   5.455   4.269   7.069  2.1631  1.2044  0.5000
   66SAPC   C27 5459   5.465   4.100   6.929  0.2327 -0.3398 -0.3051
   66SAPC   H7R 5460   5.523   4.059   7.015  0.9116 -0.3915 -0.7747
   66SAPC   H7S 5461   5.528   4.090   6.838  0.4727 -1.0801 -0.0616
   66SAPC   C28 5462   5.338   4.023   6.916  0.0082 -0.5855 -0.1165
   66SAPC   H8R 5463   5.309   4.014   6.811  0.6112 -1.1028 -0.2475
   66SAPC   C29 5464   5.273   3.959   7.014  0.2058 -0.1736 -0.4480
   66SAPC   H9R 5465   5.188   3.893   6.994 -1.4159  0.7390  2.7309
   66SAPC  C210 5466   5.312   3.959   7.163  0.2760 -0.1957  0.0973
   66SAPC  H10R 5467   5.311   4.064   7.199  4.0740 -0.4030  1.3270
   66SAPC  H10S 5468   5.418   3.926   7.165  0.1644 -0.8149 -1.8935
   66SAPC  C211 5469   5.233   3.874   7.259  0.0788  0.3882 -0.9115
   66SAPC  H11R 5470   5.161   3.917   7.331 -0.4454 -1.2206 -0.4391
   66SAPC  C212 5471   5.252   3.741   7.277 -0.1145 -0.3292  0.5502
   66SAPC  H12R 5472   5.203   3.688   7.359  0.0156 -0.2303  0.6914
   66SAPC  C213 5473   5.347   3.645   7.212  0.3586 -0.1736 -0.1404
   66SAPC  H13R 5474   5.345   3.672   7.104  2.9352 -0.9146 -0.4533
   66SAPC  H13S 5475   5.299   3.545   7.208 -1.7533  0.7167  1.4131
   66SAPC  C214 5476   5.495   3.644   7.253  0.2135 -0.3291  0.1732
   66SAPC  H14R 5477   5.563   3.581   7.193  0.8243  0.1021  0.4022
   66SAPC  C215 5478   5.551   3.690   7.370  0.6384  0.1884 -0.3978
   66SAPC  H15R 5479   5.658   3.669   7.383  0.5470  0.5033  1.0278
   66SAPC  C216 5480   5.482   3.759   7.487  1.0846 -0.2332  0.1788
   66SAPC  H16R 5481   5.389   3.704   7.511  2.1273 -1.0395  2.6692
   66SAPC  H16S 5482   5.462   3.867   7.466  0.0933  0.1506  2.7727
   66SAPC  C217 5483   5.571   3.750   7.612  0.1963  0.0167  0.3638
   66SAPC  H17R 5484   5.673   3.789   7.594  1.0343 -1.5863  1.4853
   66SAPC  H17S 5485   5.572   3.644   7.645 -2.7496 -0.4174 -0.6258
   66SAPC  C218 5486   5.505   3.822   7.735  0.1768  0.1192 -0.3595
   66SAPC  H18R 5487   5.491   3.744   7.812 -2.5007 -1.8384 -2.6032
   66SAPC  H18S 5488   5.398   3.838   7.709  0.0357 -0.8126 -0.3837
   66SAPC  C219 5489   5.576   3.950   7.793 -0.7226  0.7712  0.2897
   66SAPC  H19R 5490   5.672   3.923   7.842 -1.3808  1.5197  2.0621
   66SAPC  H19S 5491   5.521   4.005   7.873 -1.9966 -0.6457  0.4526
   66SAPC  C220 5492   5.615   4.052   7.679  0.1389 -0.0888  0.1559
   66SAPC  H20R 5493   5.690   4.120   7.726 -0.9521  0.8250  0.6198
   66SAPC  H20S 5494   5.531   4.112   7.639 -0.5421 -1.3856 -0.4463
   66SAPC  H20T 5495   5.658   4.003   7.589 -2.2218 -0.4282 -0.8629
   66SAPC   C33 5496   5.126   4.725   6.894 -0.3729 -0.1977 -0.0111
   66SAPC   H3X 5497   5.138   4.835   6.888 -0.5604 -0.1805 -0.0809
   66SAPC   H3Y 5498   5.227   4.681   6.881  0.0816  1.2417 -1.7671
   66SAPC   C34 5499   5.084   4.684   7.037 -0.2193  0.1099 -0.6330
   66SAPC   H4X 5500   5.081   4.573   7.034 -1.3866  0.1357 -2.5796
   66SAPC   H4Y 5501   4.976   4.709   7.048 -0.1725 -0.0394  0.2308
   66SAPC   C35 5502   5.176   4.753   7.133  0.3013  0.1040 -0.1054
   66SAPC   H5X 5503   5.202   4.858   7.106 -0.3795  0.5341  0.8439
   66SAPC   H5Y 5504   5.276   4.708   7.116  0.0733  0.4420 -2.6212
   66SAPC   C36 5505   5.128   4.760   7.277 -0.3337 -0.1867 -0.3711
   66SAPC   H6X 5506   5.112   4.654   7.307 -2.6645  0.4727  1.0300
   66SAPC   H6Y 5507   5.034   4.820   7.278 -1.7047 -2.0340  3.7018
   66SAPC   C37 5508   5.221   4.853   7.357  0.1492 -0.0639 -0.3045
   66SAPC   H7X 5509   5.262   4.938   7.298  1.1600 -1.5938 -1.9224
   66SAPC   H7Y 5510   5.307   4.803   7.407  0.1760  0.2402 -0.0412
   66SAPC   C38 5511   5.146   4.907   7.477  0.2376 -0.0362 -0.2797
   66SAPC   H8X 5512   5.117   4.827   7.548  0.7472  1.1249  1.3016
   66SAPC   H8Y 5513   5.053   4.963   7.452 -0.6082 -1.2756  0.0278
   66SAPC   C39 5514   5.231   5.009   7.561  0.5257 -0.2848 -0.9144
   66SAPC   H9X 5515   5.292   5.062   7.485  0.1762 -0.6645 -1.4703
   66SAPC   H9Y 5516   5.294   4.955   7.635 -0.4356 -2.4882 -1.6275
   66SAPC  C310 5517   5.148   5.116   7.646  0.4335 -0.1631 -0.5001
   66SAPC  H10X 5518   5.105   5.071   7.738  1.3479  0.6652  0.3534
   66SAPC  H10Y 5519   5.057   5.154   7.595 -0.0836 -0.9079 -0.1452
   66SAPC  C311 5520   5.232   5.233   7.698 -0.2243  0.2842  0.2861
   66SAPC  H11X 5521   5.234   5.305   7.613  0.5855  0.6817  0.6362
   66SAPC  H11Y 5522   5.338   5.208   7.720 -0.6726 -1.3750  0.6902
   66SAPC  C312 5523   5.164   5.299   7.819 -0.4903 -0.3145  0.1773
   66SAPC  H12X 5524   5.233   5.375   7.860 -0.4775 -0.1785 -0.0968
   66SAPC  H12Y 5525   5.147   5.228   7.903  1.9276 -0.1988  0.8463
   66SAPC  C313 5526   5.026   5.367   7.796 -0.0066 -0.1199  0.9729
   66SAPC  H13X 5527   4.958   5.282   7.770  0.8044 -0.4740 -0.0449
   66SAPC  H13Y 5528   5.047   5.439   7.715 -0.8027 -0.4944  0.4146
   66SAPC  C314 5529   4.979   5.431   7.924  0.0406  0.0444  0.4738
   66SAPC  H14X 5530   5.062   5.486   7.974  0.2122  2.4267 -2.1629
   66SAPC  H14Y 5531   4.947   5.353   7.996  0.4814 -0.2510  0.3550
   66SAPC  C315 5532   4.863   5.526   7.904  0.2309 -0.1533  0.3656
   66SAPC  H15X 5533   4.780   5.460   7.872 -1.0665  1.9248 -0.8168
   66SAPC  H15Y 5534   4.882   5.601   7.824  0.8842 -1.3433 -0.6172
   66SAPC  C316 5535   4.812   5.590   8.036 -0.1308  0.5477 -0.0806
   66SAPC  H16X 5536   4.873   5.675   8.072 -0.4761  1.0023 -0.5499
   66SAPC  H16Y 5537   4.824   5.509   8.112 -2.9887 -0.1667 -0.2698
   66SAPC  C317 5538   4.661   5.631   8.039  0.0597 -0.0235  0.2651
   66SAPC  H17X 5539   4.594   5.556   7.992  0.7748 -0.0454 -0.7517
   66SAPC  H17Y 5540   4.656   5.718   7.969 -1.0900 -1.1440 -1.1201
   66SAPC  C318 5541   4.605   5.674   8.176  0.5249 -0.4043 -0.3182
   66SAPC  H18X 5542   4.591   5.591   8.249  0.8154  0.8835  1.2751
   66SAPC  H18Y 5543   4.503   5.713   8.159  0.4569  0.3846  1.6348
   66SAPC  H18Z 5544   4.674   5.751   8.215  0.2688 -0.4257  0.1904
   67SAPC     N 5545   5.511   5.782   6.311  0.3501 -0.3237  0.1238
   67SAPC   C12 5546   5.523   5.705   6.443  0.4342  1.3712  0.1617
   67SAPC  H12A 5547   5.501   5.600   6.427  1.0625  1.2460  0.0842
   67SAPC  H12B 5548   5.434   5.730   6.499 -1.2080 -1.6719 -0.8461
   67SAPC   C13 5549   5.365   5.817   6.284  0.5097 -0.0052  0.4532
   67SAPC  H13A 5550   5.358   5.904   6.220  0.5716  1.0551  1.8463
   67SAPC  H13B 5551   5.316   5.732   6.238 -0.3481  1.2712 -1.1241
   67SAPC  H13C 5552   5.326   5.843   6.381  0.1487 -1.0162  0.5901
   67SAPC   C14 5553   5.590   5.905   6.309  0.0697  0.1797 -0.5903
   67SAPC  H14A 5554   5.688   5.864   6.327 -0.4592 -1.3166 -0.9690
   67SAPC  H14B 5555   5.594   5.956   6.214  2.4503 -0.8820 -1.1119
   67SAPC  H14C 5556   5.564   5.976   6.386 -0.7200 -0.2893 -0.4147
   67SAPC   C15 5557   5.559   5.703   6.198 -0.1894 -0.5624 -0.3536
   67SAPC  H15A 5558   5.493   5.624   6.163  1.0886 -2.0580  0.4625
   67SAPC  H15B 5559   5.570   5.775   6.119 -0.4868  0.0065  0.1199
   67SAPC  H15C 5560   5.653   5.653   6.214 -0.4084 -1.5834 -2.0323
   67SAPC   C11 5561   5.660   5.714   6.521  0.9574  0.3822 -0.3214
   67SAPC  H11A 5562   5.639   5.646   6.606  1.2936  0.6690 -0.0050
   67SAPC  H11B 5563   5.675   5.812   6.572 -0.8195  0.6459 -0.2448
   67SAPC     P 5564   5.904   5.755   6.424 -0.4594  0.0682  0.4686
   67SAPC   O13 5565   6.003   5.670   6.353  0.3360 -0.5393  0.1370
   67SAPC   O14 5566   5.875   5.887   6.365  0.5188  0.1005 -0.0194
   67SAPC   O12 5567   5.768   5.665   6.438  0.2678 -0.2509 -0.6503
   67SAPC   O11 5568   5.958   5.785   6.575  0.2514  0.4544  0.0767
   67SAPC    C1 5569   6.017   5.700   6.664 -0.2193  0.1858  0.1746
   67SAPC    HA 5570   5.993   5.725   6.769  1.2414 -0.9656  0.8309
   67SAPC    HB 5571   5.981   5.595   6.654  0.6833 -0.5415  3.3927
   67SAPC    C2 5572   6.172   5.721   6.647  0.0453  0.5578 -0.4419
   67SAPC    HS 5573   6.203   5.695   6.543 -0.2833 -1.7004 -0.0263
   67SAPC   O21 5574   6.234   5.625   6.736  0.6399  0.4813  0.3549
   67SAPC   C21 5575   6.362   5.619   6.716 -0.4812 -0.4542 -0.1465
   67SAPC   O22 5576   6.429   5.664   6.623  0.0140  0.1679 -0.1214
   67SAPC   C22 5577   6.427   5.546   6.831  0.3369  0.3430 -0.0982
   67SAPC   H2R 5578   6.383   5.443   6.826 -1.0272  0.7860  1.6947
   67SAPC   H2S 5579   6.533   5.537   6.800  0.4792 -1.7107  0.8044
   67SAPC    C3 5580   6.213   5.866   6.681 -0.1912 -0.2098  0.5003
   67SAPC    HX 5581   6.188   5.925   6.590  1.8512  0.3535  0.2343
   67SAPC    HY 5582   6.325   5.866   6.680 -0.1588 -1.1210  1.7658
   67SAPC   O31 5583   6.162   5.915   6.806 -0.6057  0.4617 -0.0180
   67SAPC   C31 5584   6.231   6.011   6.868 -0.2715 -0.5834 -0.0783
   67SAPC   O32 5585   6.334   6.063   6.828  0.2914  0.1945 -0.2692
   67SAPC   C32 5586   6.159   6.053   6.994 -0.0850  0.0632  0.5995
   67SAPC   H2X 5587   6.116   5.966   7.049 -0.3397  0.8610  1.6833
   67SAPC   H2Y 5588   6.068   6.113   6.970 -0.3908 -0.3361  0.7299
   67SAPC   C23 5589   6.420   5.617   6.970 -0.5924 -0.2225 -0.5767
   67SAPC   H3R 5590   6.471   5.716   6.966  0.0584 -0.5449 -0.4651
   67SAPC   H3S 5591   6.484   5.558   7.039 -0.0357 -0.1471 -1.0182
   67SAPC   C24 5592   6.276   5.629   7.028  0.2993 -0.0246 -0.4167
   67SAPC   H4R 5593   6.209   5.545   7.000 -2.9788  1.4770  2.2240
   67SAPC   H4S 5594   6.218   5.717   6.994 -2.6782 -1.5639  0.3204
   67SAPC   C25 5595   6.291   5.634   7.182  0.1028  0.1353 -0.1492
   67SAPC   H5R 5596   6.360   5.554   7.216 -0.0961  0.6591  1.5772
   67SAPC   C26 5597   6.213   5.698   7.271  0.2647  0.2509 -0.2840
   67SAPC   H6R 5598   6.234   5.691   7.378 -0.9647 -0.2088 -0.0570
   67SAPC   C27 5599   6.088   5.782   7.246  0.5491  0.1835  0.2768
   67SAPC   H7R 5600   6.044   5.773   7.144 -0.0032  1.2212  0.4015
   67SAPC   H7S 5601   6.105   5.891   7.263 -0.0746  0.1843  0.9287
   67SAPC   C28 5602   5.988   5.748   7.351  0.6001  0.5084  0.2709
   67SAPC   H8R 5603   6.005   5.793   7.450  2.2144  0.9363 -0.1704
   67SAPC   C29 5604   5.872   5.687   7.320  0.0308 -0.5129 -0.6680
   67SAPC   H9R 5605   5.802   5.665   7.402 -0.5494 -0.3972 -1.1334
   67SAPC  C210 5606   5.827   5.634   7.184  0.5790  0.6196  0.2417
   67SAPC  H10R 5607   5.746   5.559   7.201 -0.0986  1.1719 -0.4580
   67SAPC  H10S 5608   5.897   5.565   7.133  0.3797  0.4013  0.2603
   67SAPC  C211 5609   5.781   5.732   7.094 -0.2016  0.7985  0.6477
   67SAPC  H11R 5610   5.819   5.832   7.119  2.6024 -0.1507  0.4731
   67SAPC  C212 5611   5.703   5.714   6.982 -0.0695 -0.2518 -0.6694
   67SAPC  H12R 5612   5.685   5.801   6.917 -1.5164  1.7148  2.1845
   67SAPC  C213 5613   5.639   5.591   6.931  0.0502  0.3004 -0.1126
   67SAPC  H13R 5614   5.623   5.591   6.821 -0.4922 -1.0721 -0.0543
   67SAPC  H13S 5615   5.530   5.591   6.956  0.7723  1.0594  3.5611
   67SAPC  C214 5616   5.711   5.459   6.955 -0.5115 -0.2558 -0.0948
   67SAPC  H14R 5617   5.818   5.459   6.927  0.2907  0.8577  2.6605
   67SAPC  C215 5618   5.655   5.342   7.001 -0.3208  0.0616  0.2189
   67SAPC  H15R 5619   5.731   5.266   7.026 -0.3300 -0.0614 -0.1163
   67SAPC  C216 5620   5.515   5.324   7.046  0.7510  0.3659  0.5310
   67SAPC  H16R 5621   5.463   5.261   6.970  2.6714  0.3724 -0.8612
   67SAPC  H16S 5622   5.452   5.415   7.034  2.3009  1.2566 -1.7407
   67SAPC  C217 5623   5.516   5.270   7.193  0.0657 -0.3077  0.5150
   67SAPC  H17R 5624   5.586   5.183   7.190  1.0831  0.5118 -0.4162
   67SAPC  H17S 5625   5.415   5.226   7.210 -0.0217 -1.4438 -2.2680
   67SAPC  C218 5626   5.534   5.378   7.302 -0.2182  0.0546  0.2145
   67SAPC  H18R 5627   5.486   5.472   7.266  0.9028  1.4524  2.1465
   67SAPC  H18S 5628   5.643   5.395   7.315 -0.0766 -1.4734  1.2624
   67SAPC  C219 5629   5.487   5.350   7.437  0.0306  0.2362 -0.8595
   67SAPC  H19R 5630   5.546   5.275   7.493  0.2503  0.7304 -0.4147
   67SAPC  H19S 5631   5.389   5.298   7.428  1.4564 -2.7532 -0.1999
   67SAPC  C220 5632   5.477   5.476   7.530 -0.6550  0.1389  0.6214
   67SAPC  H20R 5633   5.404   5.546   7.484  1.7814  1.5609 -1.3418
   67SAPC  H20S 5634   5.570   5.536   7.518 -0.5358 -0.0304  0.6930
   67SAPC  H20T 5635   5.464   5.449   7.637  3.3314 -0.0126  1.1995
   67SAPC   C33 5636   6.256   6.143   7.076 -0.4330 -0.3168 -0.7268
   67SAPC   H3X 5637   6.265   6.230   7.009 -0.0155 -1.1700 -1.8077
   67SAPC   H3Y 5638   6.350   6.088   7.099 -0.7884 -1.2097 -1.3373
   67SAPC   C34 5639   6.193   6.181   7.216 -0.4791  0.0357  0.0760
   67SAPC   H4X 5640   6.201   6.093   7.283 -0.8473  0.2270  0.3779
   67SAPC   H4Y 5641   6.090   6.220   7.206 -0.3166  0.0173 -1.9950
   67SAPC   C35 5642   6.295   6.269   7.290  0.0152 -0.2689 -0.2105
   67SAPC   H5X 5643   6.313   6.365   7.236 -3.3202  0.8256  0.3532
   67SAPC   H5Y 5644   6.391   6.214   7.279 -0.3719 -0.9917 -0.0079
   67SAPC   C36 5645   6.260   6.292   7.440 -0.1807  0.0109  0.7203
   67SAPC   H6X 5646   6.214   6.200   7.480  0.4766 -0.3843  0.5904
   67SAPC   H6Y 5647   6.187   6.375   7.439 -0.2188  0.1459  4.2242
   67SAPC   C37 5648   6.386   6.330   7.522  0.4919 -0.6270 -0.9209
   67SAPC   H7X 5649   6.451   6.392   7.456  2.0299 -0.8956  0.2787
   67SAPC   H7Y 5650   6.442   6.239   7.550  0.2621 -0.4828  0.0365
   67SAPC   C38 5651   6.363   6.404   7.657 -0.6423  0.0491 -0.0000
   67SAPC   H8X 5652   6.294   6.489   7.636 -0.5260 -0.4456 -2.6062
   67SAPC   H8Y 5653   6.464   6.445   7.679 -0.7755 -0.1458  1.0476
   67SAPC   C39 5654   6.287   6.312   7.764 -0.2176 -0.5131  0.2590
   67SAPC   H9X 5655   6.204   6.256   7.717  0.4802 -2.6964  1.4987
   67SAPC   H9Y 5656   6.244   6.380   7.841  1.0163  0.5756  0.0258
   67SAPC  C310 5657   6.384   6.218   7.823 -0.0719  0.4897 -0.6284
   67SAPC  H10X 5658   6.454   6.170   7.752  1.0614  0.0024  0.7645
   67SAPC  H10Y 5659   6.334   6.147   7.893  0.1302  2.0976  1.2033
   67SAPC  C311 5660   6.466   6.304   7.923 -1.3792  0.6958  0.2879
   67SAPC  H11X 5661   6.391   6.351   7.990 -3.0321  0.5522 -1.3690
   67SAPC  H11Y 5662   6.513   6.382   7.860  1.0021 -1.0192 -0.2097
   67SAPC  C312 5663   6.571   6.226   8.003  0.7252  0.5250 -0.1084
   67SAPC  H12X 5664   6.642   6.298   8.049  0.7600  2.1064 -2.5038
   67SAPC  H12Y 5665   6.630   6.163   7.932  2.7091  0.5739  1.3995
   67SAPC  C313 5666   6.509   6.133   8.108 -0.2608 -0.1351 -0.4837
   67SAPC  H13X 5667   6.447   6.046   8.074  2.9282 -1.9643 -2.1274
   67SAPC  H13Y 5668   6.449   6.191   8.180 -1.1932 -1.2908 -0.2947
   67SAPC  C314 5669   6.613   6.056   8.194 -0.4028  0.1704  0.2302
   67SAPC  H14X 5670   6.686   5.987   8.146 -1.2782 -0.8351  0.3091
   67SAPC  H14Y 5671   6.552   5.991   8.259  1.1724 -1.1441  0.4543
   67SAPC  C315 5672   6.684   6.160   8.290  0.0148 -0.2528  0.2297
   67SAPC  H15X 5673   6.605   6.215   8.346 -2.0643 -2.1386 -0.6848
   67SAPC  H15Y 5674   6.743   6.221   8.218  0.8838  0.9851  1.9321
   67SAPC  C316 5675   6.783   6.090   8.386  0.2761 -0.9752  0.1997
   67SAPC  H16X 5676   6.861   6.161   8.422 -1.0029  0.4331  0.3330
   67SAPC  H16Y 5677   6.845   6.022   8.324  2.0336  0.5555  0.1652
   67SAPC  C317 5678   6.724   6.010   8.496 -0.6250 -0.0827 -0.1072
   67SAPC  H17X 5679   6.804   5.936   8.518  0.0459 -0.0237 -2.1463
   67SAPC  H17Y 5680   6.634   5.949   8.471 -2.0290  2.2739 -1.2248
   67SAPC  C318 5681   6.677   6.079   8.619 -0.2301  0.0036 -0.1186
   67SAPC  H18X 5682   6.746   6.162   8.647 -1.6549  1.7942 -1.5838
   67SAPC  H18Y 5683   6.679   6.007   8.703  2.3771  1.7131  1.4197
   67SAPC  H18Z 5684   6.570   6.104   8.603 -0.4600 -0.1182  1.1769
   68SAPC     N 5685   4.568   5.727   5.920 -0.1015 -0.0478  0.1846
   68SAPC   C12 5686   4.664   5.717   6.041  0.0228 -0.9930 -0.6395
   68SAPC  H12A 5687   4.758   5.754   6.002 -0.3891  0.0444 -0.6892
   68SAPC  H12B 5688   4.671   5.616   6.078  1.5520 -0.3579  0.9180
   68SAPC   C13 5689   4.621   5.637   5.812  0.2084 -0.5963  0.2286
   68SAPC  H13A 5690   4.701   5.682   5.756  0.2440 -0.2099  0.5875
   68SAPC  H13B 5691   4.662   5.542   5.844  1.3279 -0.5437 -0.9636
   68SAPC  H13C 5692   4.548   5.621   5.734  1.5087 -2.2276 -0.7194
   68SAPC   C14 5693   4.427   5.678   5.952 -0.1732 -0.2200  0.0905
   68SAPC  H14A 5694   4.430   5.580   5.995 -1.3001 -0.8000 -1.1003
   68SAPC  H14B 5695   4.377   5.737   6.028 -0.1923  1.2195 -0.9824
   68SAPC  H14C 5696   4.365   5.672   5.864  1.5414 -1.1857 -1.0998
   68SAPC   C15 5697   4.551   5.866   5.869 -0.3307  0.2036 -0.6980
   68SAPC  H15A 5698   4.640   5.913   5.830 -1.4563  2.3593 -0.8541
   68SAPC  H15B 5699   4.478   5.882   5.790 -0.6274  1.7536 -0.1512
   68SAPC  H15C 5700   4.518   5.926   5.952 -2.1486 -0.5016 -0.8487
   68SAPC   C11 5701   4.636   5.800   6.168  0.6526  0.2488 -0.2741
   68SAPC  H11A 5702   4.624   5.902   6.126 -1.3605 -0.3673 -1.3621
   68SAPC  H11B 5703   4.719   5.793   6.241  1.8611  0.9491 -1.5269
   68SAPC     P 5704   4.488   5.643   6.315  0.2011 -0.2925  0.0614
   68SAPC   O13 5705   4.376   5.566   6.263  0.7163  0.3547  0.2015
   68SAPC   O14 5706   4.615   5.567   6.330  0.3808 -0.0007 -0.5359
   68SAPC   O12 5707   4.508   5.768   6.226  0.0600  0.7047  0.3292
   68SAPC   O11 5708   4.438   5.695   6.455  0.1579  0.1631  0.1722
   68SAPC    C1 5709   4.360   5.817   6.467  0.3250 -0.8606 -1.2487
   68SAPC    HA 5710   4.313   5.851   6.372 -0.0626  0.0818 -0.7345
   68SAPC    HB 5711   4.278   5.795   6.539 -0.1334  1.3453 -1.0095
   68SAPC    C2 5712   4.446   5.934   6.506  0.1942  0.1497 -0.2976
   68SAPC    HS 5713   4.534   5.921   6.440 -0.3490 -2.5331 -0.6052
   68SAPC   O21 5714   4.475   5.921   6.644  0.2579  0.2525 -0.5486
   68SAPC   C21 5715   4.574   5.995   6.686 -0.6065  0.0020 -0.1647
   68SAPC   O22 5716   4.644   6.068   6.617 -0.4815  0.6810  0.1280
   68SAPC   C22 5717   4.598   5.967   6.830  0.2128  0.3047 -0.1502
   68SAPC   H2R 5718   4.677   6.038   6.862 -0.4777  0.4417  1.3229
   68SAPC   H2S 5719   4.503   5.991   6.882  0.8981  1.8507  0.4590
   68SAPC    C3 5720   4.376   6.073   6.468 -0.4154  0.2536  0.3633
   68SAPC    HX 5721   4.356   6.094   6.360  0.1445  2.1683  0.5927
   68SAPC    HY 5722   4.445   6.153   6.503  0.8919 -0.8187  0.3049
   68SAPC   O31 5723   4.250   6.077   6.536 -0.2186 -0.2744 -0.6248
   68SAPC   C31 5724   4.167   6.176   6.493 -0.2497  0.1480  0.1560
   68SAPC   O32 5725   4.191   6.246   6.400  0.0083  0.7995 -0.3377
   68SAPC   C32 5726   4.047   6.182   6.579  0.2789 -0.2265  0.0153
   68SAPC   H2X 5727   4.063   6.114   6.664  1.7587 -0.8198 -0.7012
   68SAPC   H2Y 5728   3.969   6.138   6.513  0.1074  1.2089 -0.7980
   68SAPC   C23 5729   4.655   5.825   6.864 -0.1337 -0.2010  0.4286
   68SAPC   H3R 5730   4.574   5.757   6.828 -1.0888  0.8820  0.4650
   68SAPC   H3S 5731   4.652   5.807   6.973  1.0616  1.3498  0.7453
   68SAPC   C24 5732   4.791   5.790   6.798 -0.2548  0.0368  0.0174
   68SAPC   H4R 5733   4.868   5.852   6.849 -0.3193 -0.4542  0.7126
   68SAPC   H4S 5734   4.775   5.818   6.692  0.3808  0.8455  0.1219
   68SAPC   C25 5735   4.817   5.640   6.818 -0.3606 -0.0013 -0.1238
   68SAPC   H5R 5736   4.737   5.574   6.782  1.9850 -1.4267 -3.3318
   68SAPC   C26 5737   4.931   5.587   6.868 -0.3275  1.0364  1.1999
   68SAPC   H6R 5738   4.938   5.477   6.857 -1.0655  1.2442 -3.2885
   68SAPC   C27 5739   5.043   5.676   6.912 -0.2344 -0.0776 -0.3879
   68SAPC   H7R 5740   5.006   5.752   6.984 -0.1580 -0.7764  0.4051
   68SAPC   H7S 5741   5.076   5.722   6.816 -0.5366  0.0911 -0.4155
   68SAPC   C28 5742   5.151   5.595   6.976 -0.2661 -0.7577 -0.6177
   68SAPC   H8R 5743   5.164   5.490   6.945  0.5681 -0.6491 -0.6686
   68SAPC   C29 5744   5.230   5.642   7.070  0.5223 -0.7211  0.3779
   68SAPC   H9R 5745   5.301   5.570   7.112 -0.2842 -1.8764 -0.1968
   68SAPC  C210 5746   5.224   5.778   7.125 -0.5986 -0.7962  0.4929
   68SAPC  H10R 5747   5.129   5.796   7.180 -0.6844  3.2620 -0.6475
   68SAPC  H10S 5748   5.231   5.862   7.054  0.9457 -1.1902  0.1407
   68SAPC  C211 5749   5.332   5.784   7.235 -1.1380 -0.0915 -0.8596
   68SAPC  H11R 5750   5.426   5.731   7.212 -0.7659  0.2718 -0.1976
   68SAPC  C212 5751   5.335   5.831   7.364  0.2174  0.1729 -0.9129
   68SAPC  H12R 5752   5.426   5.822   7.427  0.7758  0.4773 -1.6614
   68SAPC  C213 5753   5.226   5.901   7.444  0.0548  0.3845  0.0642
   68SAPC  H13R 5754   5.136   5.897   7.378  0.5148 -1.4795 -0.5222
   68SAPC  H13S 5755   5.258   6.006   7.459  1.0051  0.1591 -0.3162
   68SAPC  C214 5756   5.183   5.840   7.582 -0.3874  0.0616  0.2764
   68SAPC  H14R 5757   5.228   5.744   7.614 -1.3512  0.0302  1.6286
   68SAPC  C215 5758   5.102   5.893   7.674 -0.1747  0.4021 -0.2210
   68SAPC  H15R 5759   5.082   5.835   7.765 -0.9477 -0.4515 -0.9098
   68SAPC  C216 5760   5.038   6.025   7.658 -0.5434  0.3331  0.0009
   68SAPC  H16R 5761   5.058   6.067   7.557 -1.1303  1.0329  0.1705
   68SAPC  H16S 5762   5.086   6.098   7.726  1.8688  0.1868 -1.4144
   68SAPC  C217 5763   4.893   6.013   7.693  0.2799 -0.5686 -0.0882
   68SAPC  H17R 5764   4.883   5.990   7.801  1.5830  1.7820  0.5836
   68SAPC  H17S 5765   4.840   5.935   7.634  2.5809 -2.0254 -0.3369
   68SAPC  C218 5766   4.820   6.147   7.655  0.6307 -0.2778 -0.3759
   68SAPC  H18R 5767   4.825   6.150   7.544 -0.8049  0.6330 -0.4466
   68SAPC  H18S 5768   4.870   6.240   7.691 -0.4435 -0.0172  0.5076
   68SAPC  C219 5769   4.668   6.154   7.701 -0.0631 -0.1043 -0.3620
   68SAPC  H19R 5770   4.614   6.058   7.690 -0.2992 -0.1407  1.0048
   68SAPC  H19S 5771   4.615   6.230   7.640 -0.3294 -0.3167 -0.3977
   68SAPC  C220 5772   4.664   6.197   7.845  0.1979  0.0387 -0.2707
   68SAPC  H20R 5773   4.735   6.143   7.911 -1.6519  1.0353  2.7437
   68SAPC  H20S 5774   4.567   6.166   7.888  0.2529  0.2444  0.0061
   68SAPC  H20T 5775   4.671   6.308   7.856 -3.4639  0.2406  1.3681
   68SAPC   C33 5776   3.998   6.326   6.619  0.0607 -0.4526  0.9579
   68SAPC   H3X 5777   3.949   6.376   6.532  2.8132 -0.9653 -1.0420
   68SAPC   H3Y 5778   4.079   6.400   6.636 -0.0539  0.3547 -1.6059
   68SAPC   C34 5779   3.902   6.325   6.743  0.1079 -0.3500  0.5378
   68SAPC   H4X 5780   3.840   6.236   6.722 -2.2298  1.6763 -1.7693
   68SAPC   H4Y 5781   3.843   6.418   6.757  0.7474  0.1464  0.0191
   68SAPC   C35 5782   3.979   6.318   6.881 -0.0001  0.7074  0.4131
   68SAPC   H5X 5783   4.037   6.413   6.889  2.8150 -0.8006 -0.7146
   68SAPC   H5Y 5784   4.051   6.234   6.868 -0.0329  0.8967 -1.1852
   68SAPC   C36 5785   3.872   6.302   6.991  0.0917  0.0288  0.6522
   68SAPC   H6X 5786   3.830   6.200   6.977  0.2329  0.0445  0.0852
   68SAPC   H6Y 5787   3.784   6.368   6.977 -0.3486 -0.2963  1.7473
   68SAPC   C37 5788   3.941   6.305   7.130  0.1449  0.7434  0.3393
   68SAPC   H7X 5789   3.978   6.410   7.132  0.3980  0.6448  1.0890
   68SAPC   H7Y 5790   4.028   6.236   7.131 -0.6266 -0.2554 -0.1474
   68SAPC   C38 5791   3.851   6.268   7.247  0.4333  0.1690  0.3991
   68SAPC   H8X 5792   3.857   6.163   7.282 -0.2720  0.2936  0.9119
   68SAPC   H8Y 5793   3.745   6.288   7.224 -0.1400 -1.8961  1.0291
   68SAPC   C39 5794   3.901   6.344   7.368  0.2960 -0.0773  0.4503
   68SAPC   H9X 5795   3.872   6.451   7.359  0.3005 -0.1067  0.0759
   68SAPC   H9Y 5796   4.012   6.338   7.368  0.2587 -0.8748 -0.0227
   68SAPC  C310 5797   3.853   6.276   7.497  0.6396 -0.1065  0.1804
   68SAPC  H10X 5798   3.876   6.168   7.488 -1.9261 -0.9330  2.2678
   68SAPC  H10Y 5799   3.743   6.287   7.495  0.8042  2.2412  0.4198
   68SAPC  C311 5800   3.911   6.343   7.621 -0.8224 -0.4583 -0.4047
   68SAPC  H11X 5801   3.879   6.448   7.604  0.6782  0.0017 -0.5398
   68SAPC  H11Y 5802   4.022   6.333   7.631 -0.6549  2.1140  1.1527
   68SAPC  C312 5803   3.857   6.298   7.760 -0.4963 -0.2859 -1.2446
   68SAPC  H12X 5804   3.750   6.326   7.766 -0.3400  0.0840  0.1362
   68SAPC  H12Y 5805   3.909   6.348   7.844 -0.4005 -0.0795 -1.4235
   68SAPC  C313 5806   3.877   6.148   7.797 -0.1419 -0.6298  0.1849
   68SAPC  H13X 5807   3.985   6.129   7.814 -0.1818 -0.6322  0.4368
   68SAPC  H13Y 5808   3.859   6.081   7.710  2.4108 -2.1250  0.7105
   68SAPC  C314 5809   3.792   6.105   7.916  0.1204 -0.2281 -0.3034
   68SAPC  H14X 5810   3.789   5.996   7.938  3.1924 -0.0733  1.4533
   68SAPC  H14Y 5811   3.684   6.125   7.897 -0.2570 -2.2355 -0.4861
   68SAPC  C315 5812   3.821   6.172   8.043  0.0196  0.2057  0.2377
   68SAPC  H15X 5813   3.800   6.281   8.039  1.2456  0.4633  0.2988
   68SAPC  H15Y 5814   3.931   6.170   8.056  0.2845  2.5403 -1.0471
   68SAPC  C316 5815   3.750   6.105   8.168 -0.6968 -0.6111  0.1131
   68SAPC  H16X 5816   3.778   5.999   8.152 -0.3616 -0.7708  1.6638
   68SAPC  H16Y 5817   3.640   6.122   8.164 -0.6890  0.3234  2.5587
   68SAPC  C317 5818   3.798   6.147   8.302  0.4467  0.5149 -0.1173
   68SAPC  H17X 5819   3.728   6.097   8.373  0.8099 -0.9626 -0.7515
   68SAPC  H17Y 5820   3.785   6.256   8.320  0.5313  0.1986  2.1522
   68SAPC  C318 5821   3.941   6.099   8.331  0.3498  0.1061  0.1779
   68SAPC  H18X 5822   3.974   6.030   8.250  0.8123  0.4896  0.0327
   68SAPC  H18Y 5823   3.934   6.040   8.425  0.5760 -1.5320 -0.7905
   68SAPC  H18Z 5824   4.022   6.175   8.330  0.4364  0.0152  0.1875
   69SLPC     N 5825   2.963   2.827  11.059  0.0835 -0.2684  0.7394
   69SLPC   C13 5826   2.958   2.678  11.032  0.2956 -0.2413 -0.2530
   69SLPC  H13A 5827   2.986   2.660  10.929 -0.9128 -1.5930 -0.3623
   69SLPC  H13B 5828   3.029   2.618  11.086  0.1799 -0.0598  0.1081
   69SLPC  H13C 5829   2.857   2.643  11.045  0.1194 -0.1938 -1.4369
   69SLPC   C14 5830   2.884   2.912  10.964 -0.0719  0.1514  0.3059
   69SLPC  H14A 5831   2.861   3.007  11.010 -0.5659  0.9483 -1.5158
   69SLPC  H14B 5832   2.939   2.936  10.874  0.2955 -0.5645  0.3316
   69SLPC  H14C 5833   2.787   2.868  10.943 -0.3982  1.0842 -0.1654
   69SLPC   C15 5834   3.107   2.869  11.047  0.6391 -0.6032  0.7315
   69SLPC  H15A 5835   3.169   2.814  11.117  0.2527 -0.1071  1.4794
   69SLPC  H15B 5836   3.135   2.852  10.944  1.0756 -1.4358  0.9752
   69SLPC  H15C 5837   3.123   2.975  11.060 -0.8450 -0.2646  0.0193
   69SLPC   C12 5838   2.917   2.849  11.201 -0.6324 -0.3351 -0.1007
   69SLPC  H12A 5839   2.921   2.952  11.231  0.9293 -0.0166 -1.2725
   69SLPC  H12B 5840   2.994   2.808  11.265 -0.7222 -0.9123 -0.3483
   69SLPC   C11 5841   2.781   2.795  11.242  0.4691 -0.6789  0.3003
   69SLPC  H11A 5842   2.760   2.839  11.342 -0.3215  0.0621 -0.1773
   69SLPC  H11B 5843   2.777   2.685  11.257  1.8385 -0.4979  2.4478
   69SLPC     P 5844   2.573   2.729  11.094 -0.0179 -0.1007  0.1101
   69SLPC   O13 5845   2.643   2.602  11.069  0.3935  1.2528 -0.4669
   69SLPC   O14 5846   2.448   2.721  11.173  0.5299  0.5306 -0.1458
   69SLPC   O12 5847   2.680   2.834  11.152 -0.0036  0.2934 -0.0631
   69SLPC   O11 5848   2.550   2.784  10.948  0.2445  0.6844 -0.2670
   69SLPC    C1 5849   2.472   2.900  10.934 -0.1788  0.1562 -0.5400
   69SLPC    HA 5850   2.378   2.905  10.992 -0.2312  0.1537 -0.6247
   69SLPC    HB 5851   2.541   2.977  10.975 -0.4817  0.2738 -0.2543
   69SLPC    C2 5852   2.438   2.935  10.788 -0.1725 -0.2181  0.2183
   69SLPC    HS 5853   2.370   2.859  10.745 -0.8168  0.2406  0.4096
   69SLPC   O21 5854   2.553   2.961  10.703 -0.0816 -0.9735 -0.1891
   69SLPC   C21 5855   2.610   2.847  10.661 -0.1108  0.5494  0.0071
   69SLPC   O22 5856   2.573   2.735  10.681 -0.0746  0.1491  0.0505
   69SLPC   C22 5857   2.731   2.888  10.570 -0.1813 -0.1768  0.6495
   69SLPC   H2R 5858   2.701   2.956  10.487  2.8771  0.1147 -0.3256
   69SLPC   H2S 5859   2.798   2.947  10.635  0.2087  0.6508 -0.4642
   69SLPC    C3 5860   2.345   3.064  10.774  0.2885 -0.7078  0.1891
   69SLPC    HX 5861   2.389   3.140  10.843 -0.2400 -1.3503  1.2600
   69SLPC    HY 5862   2.249   3.043  10.826  0.2161 -0.5671  0.1141
   69SLPC   O31 5863   2.332   3.116  10.633 -0.3624 -0.6835 -0.0059
   69SLPC   C31 5864   2.302   3.237  10.624 -0.5252  0.7229  0.0120
   69SLPC   O32 5865   2.278   3.317  10.716 -0.4153 -0.0093 -0.1405
   69SLPC   C32 5866   2.301   3.274  10.478 -0.4213 -0.1165 -0.0124
   69SLPC   H2X 5867   2.245   3.196  10.422 -0.5581 -0.0634  0.0514
   69SLPC   H2Y 5868   2.401   3.267  10.428 -0.2779 -0.1860  0.2856
   69SLPC   C23 5869   2.832   2.779  10.525  0.5776  0.2251 -0.4823
   69SLPC   H3R 5870   2.820   2.686  10.585  3.3308 -0.7528 -1.2924
   69SLPC   H3S 5871   2.929   2.816  10.564 -0.5561  0.7291  2.0212
   69SLPC   C24 5872   2.838   2.768  10.370 -0.2740  0.0264 -0.1239
   69SLPC   H4R 5873   2.731   2.756  10.343 -0.5671 -0.3280  1.1222
   69SLPC   H4S 5874   2.892   2.681  10.327 -0.4288  0.2938 -0.8716
   69SLPC   C25 5875   2.894   2.905  10.312 -0.0277  0.4617  0.2129
   69SLPC   H5R 5876   3.005   2.894  10.311  0.2498  2.7409 -0.5913
   69SLPC   H5S 5877   2.879   2.987  10.385  0.8898  2.4818 -1.7388
   69SLPC   C26 5878   2.851   2.934  10.165  0.2885  0.7307 -0.2760
   69SLPC   H6R 5879   2.740   2.930  10.155  0.5041 -0.1979 -3.1841
   69SLPC   H6S 5880   2.884   2.853  10.097  0.2920  0.9355 -0.5185
   69SLPC   C27 5881   2.907   3.070  10.114  0.2482  0.1012  0.3308
   69SLPC   H7R 5882   3.018   3.068  10.114  0.2517  0.2642  0.2742
   69SLPC   H7S 5883   2.876   3.156  10.176 -0.4927 -0.9790  1.5119
   69SLPC   C28 5884   2.873   3.102   9.968  0.1853  0.2717  0.1332
   69SLPC   H8R 5885   2.933   3.192   9.942  1.3208  0.2196  2.4122
   69SLPC   H8S 5886   2.772   3.147   9.969  1.4670  3.4389 -0.1169
   69SLPC   C29 5887   2.901   2.999   9.855 -0.0655  0.0776  0.8929
   69SLPC   H9R 5888   3.004   2.959   9.852 -1.2722 -3.3708  0.0220
   69SLPC  C210 5889   2.807   2.951   9.773  0.3688  0.3427 -0.0051
   69SLPC  H10R 5890   2.831   2.870   9.702  2.4183  2.4944 -1.9178
   69SLPC  C211 5891   2.665   2.996   9.773 -0.5680  0.0901  0.1441
   69SLPC  H11R 5892   2.652   3.106   9.765  2.4305  0.4044 -2.1938
   69SLPC  H11S 5893   2.616   2.965   9.868  0.5416  0.6250  0.9175
   69SLPC  C212 5894   2.586   2.939   9.656  0.2248 -0.2270 -0.7764
   69SLPC  H12R 5895   2.544   2.841   9.682  1.0556  0.0262  1.8217
   69SLPC  C213 5896   2.570   2.986   9.532 -0.4438 -0.1249  0.0854
   69SLPC  H13R 5897   2.522   2.923   9.456 -1.7230 -0.7264  1.3523
   69SLPC  C214 5898   2.639   3.109   9.484  0.0908 -0.9062 -0.0714
   69SLPC  H14R 5899   2.737   3.118   9.535 -0.3103 -2.7757  1.1533
   69SLPC  H14S 5900   2.575   3.199   9.498 -0.4502 -1.5645  2.1059
   69SLPC  C215 5901   2.660   3.106   9.328 -0.6270  0.2901 -0.4045
   69SLPC  H15R 5902   2.708   3.200   9.294 -0.5989 -0.3424 -2.2046
   69SLPC  H15S 5903   2.559   3.098   9.283 -1.8468 -1.7719  2.3715
   69SLPC  C216 5904   2.744   2.997   9.262 -0.2096  0.1211  0.0935
   69SLPC  H16R 5905   2.740   2.900   9.318  0.4910 -0.2388 -0.4765
   69SLPC  H16S 5906   2.850   3.028   9.272 -0.4827  0.8077  0.9866
   69SLPC  C217 5907   2.745   2.991   9.107 -0.0984  0.0572  0.0931
   69SLPC  H17R 5908   2.648   2.962   9.061 -1.1037  0.7439  1.7038
   69SLPC  H17S 5909   2.813   2.908   9.077 -1.9845 -1.0103 -1.4222
   69SLPC  C218 5910   2.789   3.125   9.039  0.2847  0.0444 -0.4188
   69SLPC  H18R 5911   2.764   3.218   9.094  0.4189 -0.7436  1.0389
   69SLPC  H18S 5912   2.754   3.139   8.934 -1.3789  1.2693  0.2497
   69SLPC  H18T 5913   2.900   3.125   9.034  0.4533  1.2848  1.9270
   69SLPC   C33 5914   2.254   3.421  10.436  0.2568 -0.2896 -0.0347
   69SLPC   H3X 5915   2.186   3.450  10.518  0.8182 -2.5251  1.3070
   69SLPC   H3Y 5916   2.192   3.411  10.344  0.0202  0.7975 -0.0007
   69SLPC   C34 5917   2.364   3.527  10.423  0.5956 -0.8882 -0.2144
   69SLPC   H4X 5918   2.402   3.518  10.320 -1.7969  2.8044 -1.6111
   69SLPC   H4Y 5919   2.443   3.519  10.501 -0.5664  1.7057  1.3860
   69SLPC   C35 5920   2.310   3.670  10.416 -0.7150  0.5291  0.0277
   69SLPC   H5X 5921   2.390   3.744  10.392 -1.1237  0.8545 -0.3429
   69SLPC   H5Y 5922   2.271   3.706  10.513 -0.5849  1.2810 -0.1921
   69SLPC   C36 5923   2.210   3.686  10.307 -0.2665 -0.4074 -0.3253
   69SLPC   H6X 5924   2.180   3.792  10.314 -0.9985 -0.6983  1.9578
   69SLPC   H6Y 5925   2.113   3.633  10.322 -1.3896  1.5800 -0.3032
   69SLPC   C37 5926   2.256   3.656  10.164 -0.6700  0.2779 -0.3072
   69SLPC   H7X 5927   2.257   3.546  10.157 -2.7635  0.1154  1.0926
   69SLPC   H7Y 5928   2.357   3.703  10.161 -0.0716 -0.6456  2.5031
   69SLPC   C38 5929   2.166   3.721  10.062 -0.5833 -0.0331 -0.1697
   69SLPC   H8X 5930   2.153   3.830  10.078 -0.3366  0.0453 -0.4895
   69SLPC   H8Y 5931   2.063   3.680  10.072  0.2464 -1.7896  2.5428
   69SLPC   C39 5932   2.199   3.720   9.911 -0.3076  0.3199  0.8733
   69SLPC   H9X 5933   2.121   3.775   9.854 -0.4560  0.0176  0.7829
   69SLPC   H9Y 5934   2.202   3.612   9.884  1.6394  0.7550 -0.9724
   69SLPC  C310 5935   2.333   3.785   9.878 -0.4308  0.0754 -0.1879
   69SLPC  H10X 5936   2.418   3.729   9.923 -1.3302 -1.8546 -0.7652
   69SLPC  H10Y 5937   2.332   3.891   9.910  0.5584  0.1359 -0.3555
   69SLPC  C311 5938   2.367   3.767   9.729 -0.5927 -0.1695 -0.5007
   69SLPC  H11X 5939   2.349   3.661   9.703 -1.9528 -0.0810 -0.0046
   69SLPC  H11Y 5940   2.472   3.799   9.711 -1.4451  1.5560 -3.0373
   69SLPC  C312 5941   2.279   3.856   9.632  0.3763 -0.6144  0.0268
   69SLPC  H12X 5942   2.306   3.960   9.663  0.1773 -0.9641  1.4416
   69SLPC  H12Y 5943   2.169   3.841   9.632  0.5618 -2.1057 -0.7489
   69SLPC  C313 5944   2.332   3.850   9.485  0.5034  0.2771  0.0148
   69SLPC  H13X 5945   2.327   3.743   9.454 -0.8975  0.2468  0.2589
   69SLPC  H13Y 5946   2.436   3.888   9.482 -0.2530  2.5811  0.6497
   69SLPC  C314 5947   2.235   3.919   9.394  0.2448  0.0555  0.7908
   69SLPC  H14X 5948   2.264   4.025   9.376  1.2923 -0.4846 -0.8840
   69SLPC  H14Y 5949   2.133   3.923   9.440 -0.4671  0.0869 -0.7290
   69SLPC  C315 5950   2.227   3.857   9.255 -0.4010  0.1528  0.6057
   69SLPC  H15X 5951   2.157   3.911   9.188  1.1705 -0.1037 -1.3416
   69SLPC  H15Y 5952   2.195   3.751   9.261 -0.4008  0.0874 -0.3330
   69SLPC  C316 5953   2.362   3.870   9.176  0.4678  0.8802 -0.9037
   69SLPC  H16X 5954   2.446   3.820   9.229  1.0044  2.9922  0.3823
   69SLPC  H16Y 5955   2.382   3.979   9.167 -1.1123  1.0384 -3.3776
   69SLPC  C317 5956   2.357   3.810   9.037  0.2424 -0.3775 -0.8279
   69SLPC  H17X 5957   2.282   3.864   8.976 -0.0197  0.1024 -0.0851
   69SLPC  H17Y 5958   2.325   3.703   9.039 -2.2721  0.2837  2.5999
   69SLPC  C318 5959   2.490   3.827   8.972  0.0814  0.1786 -0.0834
   69SLPC  H18X 5960   2.507   3.936   8.956 -1.0026  0.4091  0.3053
   69SLPC  H18Y 5961   2.487   3.781   8.871 -0.3665  1.3081 -0.5986
   69SLPC  H18Z 5962   2.568   3.774   9.031 -2.0392 -2.5565  0.4523
   70SLPC     N 5963   2.749   1.855  10.811 -0.4256  1.2294 -0.1719
   70SLPC   C13 5964   2.645   1.905  10.709  0.2098  0.0605  0.1220
   70SLPC  H13A 5965   2.619   2.008  10.732 -1.4430 -0.1823 -0.5097
   70SLPC  H13B 5966   2.672   1.889  10.606  1.5414 -0.9072  0.5939
   70SLPC  H13C 5967   2.554   1.851  10.727  0.2442 -0.2043 -0.4941
   70SLPC   C14 5968   2.864   1.944  10.792  0.5842 -0.1169 -0.5182
   70SLPC  H14A 5969   2.942   1.918  10.862 -0.3749 -0.1265  0.5733
   70SLPC  H14B 5970   2.906   1.938  10.692  0.6373  0.4370 -0.5330
   70SLPC  H14C 5971   2.833   2.047  10.802 -0.6394 -0.5797  0.6586
   70SLPC   C15 5972   2.788   1.716  10.774  0.2213  0.5156 -0.1339
   70SLPC  H15A 5973   2.861   1.705  10.696  2.8720 -0.7830  2.3485
   70SLPC  H15B 5974   2.841   1.672  10.856 -0.5305  0.1515  0.1712
   70SLPC  H15C 5975   2.700   1.655  10.758 -0.7499  1.3405  1.6713
   70SLPC   C12 5976   2.683   1.851  10.949 -0.1155  0.1417 -0.0388
   70SLPC  H12A 5977   2.635   1.944  10.974  0.2682  0.7325 -1.4100
   70SLPC  H12B 5978   2.763   1.850  11.021  0.7644  0.3986 -0.9893
   70SLPC   C11 5979   2.589   1.733  10.981 -0.1298  0.1599 -0.6196
   70SLPC  H11A 5980   2.564   1.741  11.089 -1.0187  0.3483 -0.8266
   70SLPC  H11B 5981   2.644   1.639  10.958  0.9540  0.3600  0.9944
   70SLPC     P 5982   2.396   1.614  10.845 -0.1697  0.2368 -0.0697
   70SLPC   O13 5983   2.368   1.517  10.949 -0.2819  0.0930 -0.3389
   70SLPC   O14 5984   2.281   1.659  10.762  0.9152  0.2608 -0.1196
   70SLPC   O12 5985   2.466   1.741  10.909 -0.5178  0.1505 -0.8455
   70SLPC   O11 5986   2.504   1.549  10.747 -0.1752  0.1157 -0.1725
   70SLPC    C1 5987   2.494   1.404  10.717  0.3188 -0.5969 -0.9652
   70SLPC    HA 5988   2.591   1.351  10.733 -0.6362 -1.7555  1.3836
   70SLPC    HB 5989   2.429   1.351  10.789  1.0682  2.4370  2.1834
   70SLPC    C2 5990   2.455   1.383  10.564  0.5121 -0.0369  0.0608
   70SLPC    HS 5991   2.496   1.288  10.525  1.4721 -0.1271  1.2101
   70SLPC   O21 5992   2.503   1.491  10.485 -0.1881 -0.2707  0.5151
   70SLPC   C21 5993   2.634   1.504  10.475 -0.1043 -0.8649  0.2183
   70SLPC   O22 5994   2.719   1.421  10.510 -0.3932 -0.2025 -0.1730
   70SLPC   C22 5995   2.676   1.639  10.407  0.2703  0.1027 -0.7560
   70SLPC   H2R 5996   2.600   1.676  10.335 -0.4780  0.5564  0.2502
   70SLPC   H2S 5997   2.702   1.711  10.488 -0.3669 -0.5094  0.0092
   70SLPC    C3 5998   2.300   1.369  10.552 -0.1794 -0.2912 -0.6805
   70SLPC    HX 5999   2.240   1.462  10.560 -2.3475 -1.7081  0.4308
   70SLPC    HY 6000   2.267   1.300  10.632 -0.5514 -2.7657 -2.8351
   70SLPC   O31 6001   2.263   1.304  10.428  0.0497  0.0673 -0.3973
   70SLPC   C31 6002   2.275   1.378  10.320  0.6656 -0.1410  0.8796
   70SLPC   O32 6003   2.312   1.491  10.311 -0.8285  0.2864 -0.3328
   70SLPC   C32 6004   2.254   1.294  10.199 -0.8263  0.2933 -0.3369
   70SLPC   H2X 6005   2.148   1.289  10.167 -0.8433 -0.5296 -0.1645
   70SLPC   H2Y 6006   2.283   1.192  10.231 -0.3750  0.6373  0.3530
   70SLPC   C23 6007   2.814   1.617  10.330 -0.2310  0.1435  0.3357
   70SLPC   H3R 6008   2.886   1.564  10.396 -2.5013 -3.1530  0.3836
   70SLPC   H3S 6009   2.849   1.720  10.305 -0.7314  0.2731  0.1678
   70SLPC   C24 6010   2.798   1.539  10.198 -0.1389  0.7925 -0.3340
   70SLPC   H4R 6011   2.754   1.438  10.216  0.5009  0.4019 -0.9254
   70SLPC   H4S 6012   2.891   1.521  10.139  0.8935 -0.6641  1.5823
   70SLPC   C25 6013   2.695   1.611  10.094  0.8397 -0.0048 -0.2272
   70SLPC   H5R 6014   2.709   1.720  10.104 -2.6037  0.4612  0.9837
   70SLPC   H5S 6015   2.590   1.588  10.124  1.3390 -0.4232  1.3365
   70SLPC   C26 6016   2.719   1.579   9.944 -1.1765  0.2590  0.1915
   70SLPC   H6R 6017   2.708   1.470   9.926  2.1119 -0.1814  0.2234
   70SLPC   H6S 6018   2.827   1.601   9.926 -1.2907  1.4419  0.8926
   70SLPC   C27 6019   2.637   1.671   9.852 -0.0703 -0.3317  1.1004
   70SLPC   H7R 6020   2.689   1.769   9.855 -0.5796 -0.0040 -0.0705
   70SLPC   H7S 6021   2.531   1.693   9.879 -0.8318  0.6824 -2.1923
   70SLPC   C28 6022   2.624   1.614   9.706  0.7034  0.2766  0.0786
   70SLPC   H8R 6023   2.566   1.520   9.708  0.9109  0.1527  0.4050
   70SLPC   H8S 6024   2.726   1.585   9.672  0.5578 -0.5837  0.3680
   70SLPC   C29 6025   2.551   1.709   9.614  0.0771  0.2137  0.8503
   70SLPC   H9R 6026   2.465   1.757   9.664 -0.8209  0.6743 -1.0481
   70SLPC  C210 6027   2.584   1.739   9.484 -0.1500  0.0526 -0.1533
   70SLPC  H10R 6028   2.528   1.806   9.417  1.4243  1.8518  0.2379
   70SLPC  C211 6029   2.696   1.680   9.405  0.1005  0.7588  0.0579
   70SLPC  H11R 6030   2.743   1.590   9.451  1.0694 -0.5062 -3.1253
   70SLPC  H11S 6031   2.778   1.754   9.392  0.8174 -0.3723 -2.5180
   70SLPC  C212 6032   2.659   1.633   9.269 -0.0922  1.4628 -0.0018
   70SLPC  H12R 6033   2.556   1.652   9.236  0.3806  1.2462 -1.6722
   70SLPC  C213 6034   2.753   1.582   9.186  0.2527  0.4958 -0.3942
   70SLPC  H13R 6035   2.710   1.526   9.102 -0.6429 -3.2071  2.2504
   70SLPC  C214 6036   2.896   1.558   9.221 -0.1389 -0.2507  0.5656
   70SLPC  H14R 6037   2.913   1.448   9.231  1.4430 -0.0430  0.5086
   70SLPC  H14S 6038   2.921   1.600   9.321  0.6794 -0.5474  0.4975
   70SLPC  C215 6039   2.993   1.606   9.113  0.4703  0.1506  0.0963
   70SLPC  H15R 6040   3.090   1.566   9.150  0.1006  0.0632  0.9758
   70SLPC  H15S 6041   2.998   1.717   9.108  1.2170  0.0851 -2.5119
   70SLPC  C216 6042   2.966   1.566   8.966 -0.6067  0.3430 -0.0067
   70SLPC  H16R 6043   3.051   1.608   8.907  1.6146 -1.3894  1.7745
   70SLPC  H16S 6044   2.874   1.624   8.943 -1.2184 -0.1204  1.2175
   70SLPC  C217 6045   2.962   1.415   8.942  0.4876  0.3810  0.4865
   70SLPC  H17R 6046   2.913   1.390   8.846 -0.4497 -1.4189  1.3782
   70SLPC  H17S 6047   2.888   1.371   9.013 -1.7446  0.6122 -1.5895
   70SLPC  C218 6048   3.104   1.352   8.957  0.1117 -0.0816  0.6377
   70SLPC  H18R 6049   3.181   1.427   8.927 -2.8239  2.5524 -0.9900
   70SLPC  H18S 6050   3.113   1.260   8.896 -1.4983  1.0597 -1.4638
   70SLPC  H18T 6051   3.116   1.327   9.064  1.3552 -1.5742  0.1810
   70SLPC   C33 6052   2.334   1.328  10.074 -0.1029 -0.4871 -0.7668
   70SLPC   H3X 6053   2.441   1.347  10.095 -0.8121  0.0915  3.0809
   70SLPC   H3Y 6054   2.292   1.421  10.030  0.8346 -0.3586 -1.4103
   70SLPC   C34 6055   2.327   1.203   9.980  0.2458 -0.1459  0.1626
   70SLPC   H4X 6056   2.221   1.193   9.948  0.6203  0.7258 -1.4671
   70SLPC   H4Y 6057   2.369   1.116  10.033 -0.3004 -2.0773 -2.3843
   70SLPC   C35 6058   2.418   1.222   9.855  0.1049  0.1568 -0.2569
   70SLPC   H5X 6059   2.522   1.238   9.890 -0.3436  1.3103  0.6028
   70SLPC   H5Y 6060   2.386   1.320   9.813 -0.3106  1.5998  3.0620
   70SLPC   C36 6061   2.402   1.106   9.749 -0.2587  0.6109  0.4480
   70SLPC   H6X 6062   2.294   1.099   9.725  0.2113 -0.4059 -1.4872
   70SLPC   H6Y 6063   2.426   1.011   9.800 -0.2293 -0.5641 -1.6633
   70SLPC   C37 6064   2.489   1.124   9.628  0.4450 -0.2267 -0.7274
   70SLPC   H7X 6065   2.481   1.028   9.572  2.3136 -0.7813 -0.0982
   70SLPC   H7Y 6066   2.591   1.149   9.663  0.7872  0.5950 -2.1819
   70SLPC   C38 6067   2.451   1.234   9.529  0.2336 -0.3132  0.2822
   70SLPC   H8X 6068   2.486   1.326   9.579 -0.2154 -0.8412  1.6126
   70SLPC   H8Y 6069   2.340   1.245   9.535  0.5421  2.8846  2.2854
   70SLPC   C39 6070   2.505   1.213   9.394 -0.5349 -0.4067  0.2153
   70SLPC   H9X 6071   2.480   1.106   9.375 -2.6178 -0.7346  3.7907
   70SLPC   H9Y 6072   2.615   1.227   9.401 -0.6308 -0.1539  1.4131
   70SLPC  C310 6073   2.466   1.305   9.274  0.6817  0.2082 -0.3359
   70SLPC  H10X 6074   2.501   1.254   9.182 -0.0314 -2.0512  0.5749
   70SLPC  H10Y 6075   2.521   1.399   9.295 -0.6916  0.6221  1.7745
   70SLPC  C311 6076   2.315   1.335   9.271  0.3187 -0.1199 -0.0895
   70SLPC  H11X 6077   2.282   1.364   9.373  0.4964 -1.5327  0.3915
   70SLPC  H11Y 6078   2.267   1.244   9.228  1.1436 -0.1712 -0.9214
   70SLPC  C312 6079   2.269   1.443   9.175 -0.2641  0.3514  0.3353
   70SLPC  H12X 6080   2.297   1.418   9.070  1.6726 -0.6912  1.0619
   70SLPC  H12Y 6081   2.331   1.534   9.191  1.6774 -0.3542 -2.3431
   70SLPC  C313 6082   2.119   1.461   9.177 -0.5671  0.3475  0.4596
   70SLPC  H13X 6083   2.083   1.521   9.263 -0.9911 -0.7580  1.0730
   70SLPC  H13Y 6084   2.067   1.363   9.183 -2.8282  1.5444  1.8514
   70SLPC  C314 6085   2.061   1.521   9.044  1.2125  0.5492  0.6937
   70SLPC  H14X 6086   1.950   1.526   9.046  1.1927  0.1156  2.7242
   70SLPC  H14Y 6087   2.079   1.447   8.963 -1.5127 -0.3278  0.7862
   70SLPC  C315 6088   2.125   1.658   9.010  0.7358 -0.0489 -0.2799
   70SLPC  H15X 6089   2.236   1.652   8.998  0.5838  0.6962 -2.5781
   70SLPC  H15Y 6090   2.097   1.737   9.083  1.2395 -1.5802  1.6492
   70SLPC  C316 6091   2.072   1.707   8.872 -0.3138 -0.1269  1.1624
   70SLPC  H16X 6092   1.962   1.706   8.884 -0.3576  1.4142  1.0333
   70SLPC  H16Y 6093   2.100   1.630   8.797  0.5246 -1.0475  2.3729
   70SLPC  C317 6094   2.121   1.840   8.832 -0.2631 -0.7968 -0.8815
   70SLPC  H17X 6095   2.216   1.819   8.778 -0.8732  0.4703 -2.5498
   70SLPC  H17Y 6096   2.153   1.906   8.915 -1.5239 -0.8661 -0.3081
   70SLPC  C318 6097   2.025   1.909   8.740  0.3959 -0.0751 -0.5054
   70SLPC  H18X 6098   2.041   2.018   8.757 -2.0583  0.5033 -1.4961
   70SLPC  H18Y 6099   1.922   1.887   8.774  0.4710 -0.1017 -0.2875
   70SLPC  H18Z 6100   2.027   1.873   8.635 -3.0211  2.4090 -1.5888
   71SLPC     N 6101   3.437   6.714  11.116 -0.4906 -0.5554  0.4636
   71SLPC   C13 6102   3.504   6.827  11.190  0.3507 -0.2639  0.8223
   71SLPC  H13A 6103   3.440   6.914  11.188  1.8702  0.8814 -0.0879
   71SLPC  H13B 6104   3.530   6.791  11.289  2.8654 -1.6912 -0.2770
   71SLPC  H13C 6105   3.599   6.852  11.146 -0.1085 -1.8046 -1.2213
   71SLPC   C14 6106   3.311   6.676  11.187 -0.2797  0.5260 -0.4125
   71SLPC  H14A 6107   3.249   6.602  11.138 -3.5751  1.1797  2.3783
   71SLPC  H14B 6108   3.334   6.631  11.282  2.6548 -1.3272 -1.8562
   71SLPC  H14C 6109   3.260   6.767  11.216  0.0882 -0.4092  3.7136
   71SLPC   C15 6110   3.523   6.594  11.118 -0.5858  0.1940  0.4051
   71SLPC  H15A 6111   3.494   6.520  11.044  1.2468 -2.4232  2.1121
   71SLPC  H15B 6112   3.625   6.618  11.093 -0.5232 -1.0994 -0.6863
   71SLPC  H15C 6113   3.529   6.545  11.215  2.2474  1.5331  0.9997
   71SLPC   C12 6114   3.404   6.748  10.969  0.1298  0.3543 -0.5979
   71SLPC  H12A 6115   3.496   6.792  10.932  1.6332 -0.9264  1.3825
   71SLPC  H12B 6116   3.332   6.829  10.974  0.2337  0.3591  1.6434
   71SLPC   C11 6117   3.356   6.634  10.878  0.5228  0.0502  0.1225
   71SLPC  H11A 6118   3.421   6.544  10.880  1.4720  0.5932 -2.2651
   71SLPC  H11B 6119   3.360   6.661  10.770  2.8720  2.9265  0.7814
   71SLPC     P 6120   3.107   6.697  10.891 -0.0994 -0.3321  0.0458
   71SLPC   O13 6121   3.002   6.661  10.986  0.1903 -0.1768 -0.0343
   71SLPC   O14 6122   3.154   6.842  10.890  0.3040 -0.3868 -0.5630
   71SLPC   O12 6123   3.234   6.594  10.918  1.1251  0.3912  0.0791
   71SLPC   O11 6124   3.051   6.666  10.749 -0.2425 -0.6851 -0.2889
   71SLPC    C1 6125   3.034   6.536  10.703  0.6868 -0.0589  0.2965
   71SLPC    HA 6126   3.128   6.478  10.693 -0.1254 -1.4204  0.2818
   71SLPC    HB 6127   2.975   6.471  10.771 -0.4507  0.8970  0.2539
   71SLPC    C2 6128   2.971   6.534  10.556  0.3070 -0.4946 -0.8376
   71SLPC    HS 6129   2.860   6.533  10.564  0.3153  0.2345 -0.4994
   71SLPC   O21 6130   3.022   6.425  10.477  0.2660 -0.3315  0.7882
   71SLPC   C21 6131   2.989   6.309  10.528  0.8501 -0.0648  0.2460
   71SLPC   O22 6132   2.891   6.290  10.596 -0.1677 -0.0825 -0.1065
   71SLPC   C22 6133   3.072   6.196  10.466  0.6539 -0.5201  0.1993
   71SLPC   H2R 6134   3.172   6.195  10.515  0.7175  1.2027  0.1896
   71SLPC   H2S 6135   3.006   6.110  10.489  0.0404  0.3158  1.8210
   71SLPC    C3 6136   2.994   6.667  10.484 -0.3823  0.2075 -0.3394
   71SLPC    HX 6137   3.101   6.688  10.506 -0.3095 -0.6708  0.1676
   71SLPC    HY 6138   2.930   6.740  10.539 -2.0417 -2.5171  1.5649
   71SLPC   O31 6139   2.970   6.649  10.344  0.4396 -0.1542  0.4667
   71SLPC   C31 6140   2.944   6.757  10.264 -0.8716  0.0510  0.4497
   71SLPC   O32 6141   2.936   6.875  10.292  0.0769  0.4318 -0.2604
   71SLPC   C32 6142   2.898   6.701  10.126  0.2397 -0.3592 -0.4178
   71SLPC   H2X 6143   2.796   6.659  10.133  0.9015 -2.0920 -0.6252
   71SLPC   H2Y 6144   2.969   6.616  10.111  0.9680  0.5398 -2.3548
   71SLPC   C23 6145   3.089   6.220  10.314 -0.1433  0.4379  0.0277
   71SLPC   H3R 6146   3.181   6.282  10.312  1.3048 -1.5503  1.3893
   71SLPC   H3S 6147   3.009   6.283  10.269  0.2373  0.9069  0.0041
   71SLPC   C24 6148   3.092   6.095  10.230  0.0349  0.2504 -0.0821
   71SLPC   H4R 6149   2.992   6.047  10.238 -0.2376  1.0599  2.1341
   71SLPC   H4S 6150   3.177   6.032  10.265 -1.0999 -1.0722  0.3779
   71SLPC   C25 6151   3.118   6.123  10.083  0.0578  0.7247  1.5505
   71SLPC   H5R 6152   3.217   6.164  10.055  1.1706 -4.0522 -3.2641
   71SLPC   H5S 6153   3.041   6.201  10.063  0.9861  1.6071  1.3694
   71SLPC   C26 6154   3.077   6.012   9.982  0.5192  0.1106 -0.2332
   71SLPC   H6R 6155   2.971   5.982   9.997  0.7034  0.4332  2.1913
   71SLPC   H6S 6156   3.138   5.920   9.996 -0.4402 -0.1226  3.3484
   71SLPC   C27 6157   3.091   6.069   9.839 -0.0456  0.0768  0.1918
   71SLPC   H7R 6158   3.194   6.107   9.820  0.1125  1.1891  2.8407
   71SLPC   H7S 6159   3.022   6.155   9.827 -0.2788 -0.3300 -1.6732
   71SLPC   C28 6160   3.047   5.958   9.743 -0.1537 -0.4237  0.6298
   71SLPC   H8R 6161   3.013   6.010   9.650 -0.6266 -1.4855  0.1956
   71SLPC   H8S 6162   2.958   5.910   9.789 -2.2622  0.8604 -1.8278
   71SLPC   C29 6163   3.161   5.853   9.725  0.4553  0.2051  0.6348
   71SLPC   H9R 6164   3.180   5.783   9.808  3.1270  0.2172  0.1464
   71SLPC  C210 6165   3.227   5.823   9.609 -0.3384  0.5950  0.4841
   71SLPC  H10R 6166   3.305   5.745   9.612  0.3892  1.2479 -0.6010
   71SLPC  C211 6167   3.217   5.901   9.481 -0.6436 -0.2032  0.2895
   71SLPC  H11R 6168   3.312   5.893   9.424 -1.4433 -2.1859 -0.9005
   71SLPC  H11S 6169   3.212   6.009   9.504 -1.3633  0.3055 -1.9853
   71SLPC  C212 6170   3.101   5.859   9.389  0.0525  0.0851 -0.4347
   71SLPC  H12R 6171   3.048   5.765   9.410 -0.0031 -0.1893 -1.7475
   71SLPC  C213 6172   3.071   5.925   9.272  0.1332 -0.1756  0.0324
   71SLPC  H13R 6173   2.983   5.900   9.210  1.3003  0.2717 -1.8730
   71SLPC  C214 6174   3.139   6.044   9.210  0.2856 -0.1742  1.1575
   71SLPC  H14R 6175   3.216   6.080   9.283 -0.3869 -1.2235  2.4300
   71SLPC  H14S 6176   3.059   6.121   9.203  1.0224  0.7252  2.2532
   71SLPC  C215 6177   3.214   6.018   9.074 -0.4289  0.2829 -1.2290
   71SLPC  H15R 6178   3.261   5.917   9.077  0.7600  0.8393 -0.3880
   71SLPC  H15S 6179   3.298   6.090   9.063 -0.9922  0.8247 -2.0076
   71SLPC  C216 6180   3.119   6.017   8.952  0.4602 -0.4452  0.2101
   71SLPC  H16R 6181   3.080   6.120   8.939  1.3515  0.2692  2.5541
   71SLPC  H16S 6182   3.028   5.954   8.960  0.0010 -0.0442 -1.4522
   71SLPC  C217 6183   3.183   5.976   8.825 -0.4016  0.1915  0.0534
   71SLPC  H17R 6184   3.109   5.936   8.752 -1.8018  0.8261  1.0836
   71SLPC  H17S 6185   3.245   5.892   8.864 -1.6546 -1.2550 -0.9503
   71SLPC  C218 6186   3.256   6.092   8.757 -0.0211  0.3499  0.1396
   71SLPC  H18R 6187   3.336   6.122   8.828  1.4260  0.9467 -1.6532
   71SLPC  H18S 6188   3.175   6.167   8.747 -1.9146 -1.1652  2.7496
   71SLPC  H18T 6189   3.304   6.072   8.659  2.0318 -0.0296  1.1721
   71SLPC   C33 6190   2.900   6.802  10.011  0.1039  0.2381 -0.2156
   71SLPC   H3X 6191   2.981   6.877  10.028  0.8061 -0.5866  0.1686
   71SLPC   H3Y 6192   2.808   6.864   9.998  0.7473  1.5241  1.0560
   71SLPC   C34 6193   2.923   6.729   9.880 -0.5540  0.7202  0.1111
   71SLPC   H4X 6194   2.831   6.678   9.844 -0.1225  1.1296 -1.6438
   71SLPC   H4Y 6195   3.011   6.661   9.879 -1.4430 -0.4516 -0.7106
   71SLPC   C35 6196   2.967   6.832   9.772  0.6463  0.6126 -0.0706
   71SLPC   H5X 6197   3.053   6.890   9.813  0.7887  0.7095 -0.4975
   71SLPC   H5Y 6198   2.879   6.899   9.765 -2.3846 -3.1552 -1.5678
   71SLPC   C36 6199   3.007   6.783   9.628 -0.5378  0.3750  0.0529
   71SLPC   H6X 6200   2.930   6.714   9.589 -0.5070 -0.2925  1.1541
   71SLPC   H6Y 6201   3.099   6.723   9.647 -0.8942  0.3326  1.8162
   71SLPC   C37 6202   3.019   6.894   9.522  0.3426 -0.0274 -0.2698
   71SLPC   H7X 6203   3.106   6.954   9.556  0.7726 -1.2472  0.8783
   71SLPC   H7Y 6204   2.937   6.969   9.535 -0.4679 -0.9724  0.2365
   71SLPC   C38 6205   3.035   6.836   9.382 -0.2312  0.2322  0.1280
   71SLPC   H8X 6206   2.944   6.808   9.324  0.0912  0.3010 -0.4150
   71SLPC   H8Y 6207   3.092   6.741   9.378 -1.3275 -0.4201 -2.8637
   71SLPC   C39 6208   3.113   6.940   9.293  0.1339  0.3353  0.5260
   71SLPC   H9X 6209   3.207   6.963   9.348  2.5426 -0.9722 -2.7402
   71SLPC   H9Y 6210   3.039   7.021   9.277  1.0284  1.0410 -0.1785
   71SLPC  C310 6211   3.163   6.887   9.159  0.0153 -0.0962 -0.5987
   71SLPC  H10X 6212   3.199   6.782   9.160 -1.9686 -0.8338 -1.1081
   71SLPC  H10Y 6213   3.244   6.956   9.126 -0.5611 -0.0276 -1.9166
   71SLPC  C311 6214   3.063   6.901   9.047 -0.2046  0.3537 -0.1528
   71SLPC  H11X 6215   3.122   6.934   8.959 -0.6332  0.3417 -0.4475
   71SLPC  H11Y 6216   2.990   6.983   9.062 -0.6730  0.1661 -1.2746
   71SLPC  C312 6217   2.984   6.779   9.015  0.2210  0.4560 -0.2572
   71SLPC  H12X 6218   2.934   6.739   9.106 -1.6796 -1.5107 -2.0657
   71SLPC  H12Y 6219   3.045   6.694   8.979 -1.0073  0.4560 -2.5323
   71SLPC  C313 6220   2.885   6.810   8.905  0.4796 -0.4682 -0.7584
   71SLPC  H13X 6221   2.939   6.850   8.817  1.4691  0.3617  0.1952
   71SLPC  H13Y 6222   2.821   6.892   8.944 -1.1793 -2.0247 -0.0902
   71SLPC  C314 6223   2.786   6.701   8.870  0.3958  0.4963 -0.2800
   71SLPC  H14X 6224   2.737   6.678   8.967 -1.0802 -0.6472 -1.2426
   71SLPC  H14Y 6225   2.834   6.616   8.817 -0.9671 -0.1622 -0.5065
   71SLPC  C315 6226   2.677   6.756   8.775 -0.2105  0.4201 -0.9522
   71SLPC  H15X 6227   2.738   6.792   8.689  0.1744  0.1232 -0.8099
   71SLPC  H15Y 6228   2.617   6.839   8.819 -2.9082 -2.2132  0.6610
   71SLPC  C316 6229   2.582   6.650   8.732  0.6198  0.1704 -0.2640
   71SLPC  H16X 6230   2.512   6.623   8.814 -0.9431  1.4033 -1.1174
   71SLPC  H16Y 6231   2.645   6.565   8.699  1.1583  1.2407 -2.1030
   71SLPC  C317 6232   2.496   6.689   8.611  0.0997 -0.0662  0.8933
   71SLPC  H17X 6233   2.555   6.716   8.521 -0.4790 -0.9664  0.2200
   71SLPC  H17Y 6234   2.442   6.780   8.644 -1.3600 -0.0464 -1.3367
   71SLPC  C318 6235   2.390   6.584   8.567  0.1584  0.0544 -0.5588
   71SLPC  H18X 6236   2.322   6.569   8.654  1.2392 -0.6316  0.1861
   71SLPC  H18Y 6237   2.424   6.489   8.519 -0.1808  0.6896 -2.1407
   71SLPC  H18Z 6238   2.314   6.627   8.498 -1.5191 -0.0174  1.1816
   72SLPC     N 6239   4.869   4.130  10.784 -0.3992  0.4302  0.2212
   72SLPC   C13 6240   4.946   4.244  10.726 -0.4753 -0.6665 -0.6756
   72SLPC  H13A 6241   4.976   4.303  10.812 -0.4704 -2.0559  0.3069
   72SLPC  H13B 6242   5.026   4.209  10.663  0.1825 -0.0675 -0.1897
   72SLPC  H13C 6243   4.876   4.296  10.662 -1.8449 -0.7837  0.6411
   72SLPC   C14 6244   4.949   4.059  10.898 -0.7682 -0.4433  0.2038
   72SLPC  H14A 6245   4.963   4.136  10.974  0.5269  0.5329 -0.9523
   72SLPC  H14B 6246   4.893   3.972  10.929  0.4286 -1.2660  0.1173
   72SLPC  H14C 6247   5.042   4.019  10.861  0.3959  0.4972  1.9425
   72SLPC   C15 6248   4.837   4.035  10.681  0.4346  0.1730 -0.7141
   72SLPC  H15A 6249   4.787   3.947  10.718  3.0981 -0.5816  1.3723
   72SLPC  H15B 6250   4.786   4.092  10.605  0.5578  0.6341 -0.4520
   72SLPC  H15C 6251   4.924   3.983  10.644 -0.4960 -1.2199 -1.0268
   72SLPC   C12 6252   4.743   4.185  10.845  0.4878 -0.1528 -0.2910
   72SLPC  H12A 6253   4.762   4.263  10.918  0.4890 -1.9421  1.7310
   72SLPC  H12B 6254   4.694   4.104  10.896  1.6712 -1.2158 -0.8110
   72SLPC   C11 6255   4.642   4.245  10.753  0.5051  0.1312  0.0797
   72SLPC  H11A 6256   4.608   4.161  10.688  0.0144 -1.6292  2.4499
   72SLPC  H11B 6257   4.686   4.326  10.692  0.4186  0.3989  0.3663
   72SLPC     P 6258   4.444   4.406  10.799  0.1979 -0.0177  0.0655
   72SLPC   O13 6259   4.324   4.420  10.882  0.3548 -0.4168  0.3727
   72SLPC   O14 6260   4.539   4.516  10.803  0.4161 -0.4346 -0.2374
   72SLPC   O12 6261   4.525   4.279  10.839 -0.0877 -0.1771 -0.0230
   72SLPC   O11 6262   4.401   4.376  10.643 -0.4525 -0.2662 -0.4649
   72SLPC    C1 6263   4.318   4.266  10.613  0.3156  0.1309  0.0713
   72SLPC    HA 6264   4.377   4.177  10.644 -0.5369  0.2120  2.1338
   72SLPC    HB 6265   4.225   4.266  10.675  1.7595  1.7319  2.4214
   72SLPC    C2 6266   4.288   4.250  10.460 -0.3264 -0.5906 -0.6473
   72SLPC    HS 6267   4.388   4.253  10.411 -0.5230  2.0007 -0.9947
   72SLPC   O21 6268   4.192   4.350  10.410 -0.2103 -0.6039 -0.1603
   72SLPC   C21 6269   4.217   4.392  10.289  0.0023  0.1801 -0.1809
   72SLPC   O22 6270   4.320   4.372  10.227  0.5763  0.1139  0.3894
   72SLPC   C22 6271   4.101   4.474  10.232 -0.3422 -0.1547 -0.4573
   72SLPC   H2R 6272   4.034   4.511  10.312 -0.9484 -2.6005  0.2579
   72SLPC   H2S 6273   4.148   4.565  10.189  0.1024 -0.7736 -1.3023
   72SLPC    C3 6274   4.237   4.113  10.424  0.5756 -0.2876  0.4928
   72SLPC    HX 6275   4.140   4.088  10.472  0.6939 -0.5618  0.5879
   72SLPC    HY 6276   4.303   4.029  10.455 -0.9245 -0.8697  2.3085
   72SLPC   O31 6277   4.199   4.104  10.285 -0.7797  0.0531 -0.1217
   72SLPC   C31 6278   4.295   4.089  10.190 -0.1778  0.2522 -0.1148
   72SLPC   O32 6279   4.418   4.074  10.213 -0.3943 -0.8744  0.1781
   72SLPC   C32 6280   4.219   4.079  10.056  0.1761  0.6176 -0.4255
   72SLPC   H2X 6281   4.130   4.144  10.066  0.4667  0.8332  1.0152
   72SLPC   H2Y 6282   4.165   3.981  10.062  1.0554  0.2014  2.1719
   72SLPC   C23 6283   4.014   4.401  10.124 -0.1595  0.1111 -0.1406
   72SLPC   H3R 6284   3.907   4.432  10.120 -0.5709 -1.3420 -2.0018
   72SLPC   H3S 6285   4.013   4.292  10.145  3.9803 -0.4308 -1.8530
   72SLPC   C24 6286   4.067   4.417   9.985  0.2557 -0.5602 -0.6483
   72SLPC   H4R 6287   4.167   4.370   9.977 -0.7909 -3.0995  0.0526
   72SLPC   H4S 6288   4.064   4.527   9.972 -0.3758 -0.5228 -0.2487
   72SLPC   C25 6289   3.986   4.358   9.879 -0.2436  0.3616 -0.8286
   72SLPC   H5R 6290   3.880   4.392   9.877 -0.2723  0.2794 -0.6438
   72SLPC   H5S 6291   3.996   4.248   9.887  0.9263  0.5699  1.5563
   72SLPC   C26 6292   4.040   4.387   9.738  0.2173  0.2768 -0.1944
   72SLPC   H6R 6293   4.146   4.354   9.739  0.5137  1.0969  2.6951
   72SLPC   H6S 6294   4.038   4.495   9.715  2.1294 -0.0165 -2.0049
   72SLPC   C27 6295   3.957   4.313   9.625 -0.1112 -0.0521  0.6962
   72SLPC   H7R 6296   3.860   4.363   9.606 -0.0907  0.3788  1.6546
   72SLPC   H7S 6297   3.938   4.211   9.664 -0.6531  0.2656  1.2797
   72SLPC   C28 6298   4.037   4.306   9.496  0.1762 -0.3335 -0.2424
   72SLPC   H8R 6299   3.974   4.236   9.436 -1.3136  1.2271 -0.5800
   72SLPC   H8S 6300   4.131   4.249   9.513 -0.2971 -1.7351 -2.0366
   72SLPC   C29 6301   4.068   4.430   9.414 -0.2819 -0.2910 -0.6489
   72SLPC   H9R 6302   4.103   4.518   9.470  0.6277 -0.4622 -0.9323
   72SLPC  C210 6303   4.056   4.445   9.280 -0.9460 -1.0156 -1.0838
   72SLPC  H10R 6304   4.053   4.551   9.248  0.0637 -0.9464 -0.9726
   72SLPC  C211 6305   4.010   4.348   9.176 -0.2236 -0.0379  0.4364
   72SLPC  H11R 6306   3.910   4.304   9.194 -0.8730  1.5202  0.8485
   72SLPC  H11S 6307   4.073   4.257   9.174  0.2096  0.2438 -1.7292
   72SLPC  C212 6308   4.005   4.412   9.043 -0.0003  0.1858  0.0752
   72SLPC  H12R 6309   3.901   4.428   9.012 -0.4938 -1.7373  0.5917
   72SLPC  C213 6310   4.112   4.459   8.967 -0.4224  0.6208  0.6837
   72SLPC  H13R 6311   4.096   4.502   8.867 -2.2650 -2.0118 -0.2668
   72SLPC  C214 6312   4.257   4.441   9.003  0.4581  0.0269  0.0373
   72SLPC  H14R 6313   4.304   4.374   8.928 -0.2850 -0.2562 -0.1892
   72SLPC  H14S 6314   4.276   4.384   9.096 -1.5071 -0.5812  0.1062
   72SLPC  C215 6315   4.326   4.583   9.000 -0.0293  0.0705  0.1591
   72SLPC  H15R 6316   4.302   4.627   8.900  0.6915 -2.0458 -1.0148
   72SLPC  H15S 6317   4.435   4.564   9.007 -0.4035 -1.8342  1.6634
   72SLPC  C216 6318   4.278   4.684   9.106 -0.9155  0.0119  0.0268
   72SLPC  H16R 6319   4.170   4.662   9.117 -0.4012 -2.1415  1.3172
   72SLPC  H16S 6320   4.286   4.782   9.054  1.7450 -0.2384 -0.1826
   72SLPC  C217 6321   4.353   4.696   9.238  0.8550 -0.2759  0.6148
   72SLPC  H17R 6322   4.462   4.706   9.219  0.4271  1.3300 -1.4220
   72SLPC  H17S 6323   4.347   4.599   9.293  0.1338 -0.2107  0.6598
   72SLPC  C218 6324   4.302   4.812   9.329 -0.1862  0.5691  0.2706
   72SLPC  H18R 6325   4.317   4.912   9.283 -1.9005  1.3014  1.1812
   72SLPC  H18S 6326   4.350   4.808   9.429 -1.4950  2.5850  1.0577
   72SLPC  H18T 6327   4.193   4.800   9.349 -0.2223 -1.8056 -1.0527
   72SLPC   C33 6328   4.314   4.092   9.931  0.3017  0.7646  0.2009
   72SLPC   H3X 6329   4.411   4.042   9.954 -0.0995  0.1909  0.7197
   72SLPC   H3Y 6330   4.332   4.200   9.917  0.5161  0.9035  1.3832
   72SLPC   C34 6331   4.246   4.036   9.806  0.5040 -0.2818 -0.2638
   72SLPC   H4X 6332   4.152   4.095   9.795 -1.3138 -2.9184  0.3186
   72SLPC   H4Y 6333   4.229   3.929   9.828  2.5743 -0.7602 -0.8746
   72SLPC   C35 6334   4.323   4.043   9.674 -0.7600 -0.0836  0.4364
   72SLPC   H5X 6335   4.428   4.012   9.692 -0.6539 -1.1944 -1.8259
   72SLPC   H5Y 6336   4.329   4.146   9.634 -1.0534 -1.6083 -4.0362
   72SLPC   C36 6337   4.254   3.963   9.562 -0.6060  0.1605  0.1425
   72SLPC   H6X 6338   4.148   3.993   9.570 -1.0503 -1.8105  3.6849
   72SLPC   H6Y 6339   4.253   3.852   9.575  1.5271  0.1737  0.7845
   72SLPC   C37 6340   4.317   3.994   9.421  0.2846  0.0354 -0.2607
   72SLPC   H7X 6341   4.423   3.969   9.443  0.0557 -2.7062 -1.7596
   72SLPC   H7Y 6342   4.308   4.103   9.401  1.5285 -0.1447 -2.0996
   72SLPC   C38 6343   4.265   3.902   9.312 -0.3635  0.0159  0.3731
   72SLPC   H8X 6344   4.158   3.926   9.294 -0.0734 -0.9634 -3.6566
   72SLPC   H8Y 6345   4.277   3.799   9.353 -0.0161 -0.1006 -0.0204
   72SLPC   C39 6346   4.340   3.907   9.177  0.2027 -0.1834 -0.8167
   72SLPC   H9X 6347   4.297   3.831   9.109 -3.0650  2.3381 -1.8626
   72SLPC   H9Y 6348   4.446   3.880   9.191 -0.6236 -2.4973  1.6189
   72SLPC  C310 6349   4.324   4.047   9.113 -0.2405 -0.4803 -0.3069
   72SLPC  H10X 6350   4.400   4.121   9.146  0.4994  0.4557 -3.7546
   72SLPC  H10Y 6351   4.219   4.084   9.117 -0.2186 -0.1322 -2.1280
   72SLPC  C311 6352   4.351   4.038   8.963  0.9367 -0.2652 -0.0353
   72SLPC  H11X 6353   4.302   4.126   8.917  2.8330  1.4392  1.0358
   72SLPC  H11Y 6354   4.311   3.947   8.914  3.3972 -1.8915  0.7973
   72SLPC  C312 6355   4.498   4.032   8.920 -0.1558 -1.0216  0.0771
   72SLPC  H12X 6356   4.541   3.931   8.937 -0.1049 -1.0387 -0.1494
   72SLPC  H12Y 6357   4.559   4.107   8.975 -1.1021  1.7932 -2.4209
   72SLPC  C313 6358   4.508   4.075   8.775  0.7899 -0.1584 -0.8474
   72SLPC  H13X 6359   4.461   4.171   8.745 -0.1619 -0.6206 -0.8786
   72SLPC  H13Y 6360   4.470   3.982   8.728 -0.0041 -1.8050  2.7453
   72SLPC  C314 6361   4.657   4.084   8.729  0.8132 -0.7467 -0.4462
   72SLPC  H14X 6362   4.701   3.986   8.756 -1.0102 -1.4053  0.2727
   72SLPC  H14Y 6363   4.717   4.162   8.778  0.2332  0.2603 -1.2905
   72SLPC  C315 6364   4.674   4.099   8.575  1.2978  0.3906  0.0368
   72SLPC  H15X 6365   4.610   4.186   8.551 -0.7279 -0.6749  1.2679
   72SLPC  H15Y 6366   4.612   4.019   8.530  1.5788  0.0740  0.2072
   72SLPC  C316 6367   4.809   4.095   8.517 -0.6060 -0.1153  0.2618
   72SLPC  H16X 6368   4.860   4.184   8.560  0.2351 -1.6418  2.5682
   72SLPC  H16Y 6369   4.807   4.100   8.406  0.8688 -0.1416  0.2179
   72SLPC  C317 6370   4.889   3.972   8.570 -0.4147  0.1179  0.4458
   72SLPC  H17X 6371   4.907   3.999   8.676  1.1381 -2.5867  0.9726
   72SLPC  H17Y 6372   4.991   3.959   8.527 -1.2824  1.9107 -2.4367
   72SLPC  C318 6373   4.831   3.827   8.563 -0.5377 -0.1758  0.1403
   72SLPC  H18X 6374   4.749   3.819   8.638  1.3029 -0.3502  2.2507
   72SLPC  H18Y 6375   4.917   3.757   8.570  0.2469  0.7957  0.4506
   72SLPC  H18Z 6376   4.785   3.816   8.462  2.2472 -2.0327 -1.0607
   73SLPC     N 6377   4.350   2.928  11.012  0.0689  0.2222  0.1400
   73SLPC   C13 6378   4.286   3.017  10.905  0.2279 -0.3317 -0.2158
   73SLPC  H13A 6379   4.296   3.123  10.927  0.1118 -0.7615  2.2278
   73SLPC  H13B 6380   4.330   3.002  10.808 -0.2499  0.4008 -0.5554
   73SLPC  H13C 6381   4.178   3.007  10.912  0.3564 -0.4066  3.7079
   73SLPC   C14 6382   4.285   2.953  11.146  0.0512  0.9700  0.9126
   73SLPC  H14A 6383   4.302   3.057  11.172 -1.3939  1.6478 -0.6209
   73SLPC  H14B 6384   4.178   2.940  11.138  0.2825 -0.8849  0.3855
   73SLPC  H14C 6385   4.317   2.882  11.221 -3.5580 -0.9635  0.8420
   73SLPC   C15 6386   4.494   2.943  11.030 -0.5344 -0.1747 -0.1344
   73SLPC  H15A 6387   4.523   2.863  11.096  2.0234  0.1001 -0.7988
   73SLPC  H15B 6388   4.560   2.927  10.945  2.0607 -0.1159  1.7403
   73SLPC  H15C 6389   4.511   3.032  11.088 -0.4680 -1.1772  1.4326
   73SLPC   C12 6390   4.331   2.788  10.962 -0.6091  0.9065 -0.6250
   73SLPC  H12A 6391   4.365   2.778  10.860 -1.2097 -2.2466 -0.6115
   73SLPC  H12B 6392   4.226   2.766  10.959 -0.6913  0.8149  1.4774
   73SLPC   C11 6393   4.401   2.668  11.037 -0.1532  0.6074  0.2629
   73SLPC  H11A 6394   4.346   2.573  11.022 -1.9874  1.4540  1.2661
   73SLPC  H11B 6395   4.392   2.695  11.145 -0.4887  0.9641  0.1493
   73SLPC     P 6396   4.587   2.564  10.875  0.0993  0.0524 -0.0347
   73SLPC   O13 6397   4.730   2.566  10.839 -0.0493 -0.7573 -0.0432
   73SLPC   O14 6398   4.528   2.430  10.894 -0.1363  0.4977  0.1051
   73SLPC   O12 6399   4.540   2.653  10.998 -0.2272 -0.2464 -0.0150
   73SLPC   O11 6400   4.520   2.642  10.762 -0.1589 -0.2119 -0.1714
   73SLPC    C1 6401   4.524   2.614  10.621 -0.2974 -0.0018  0.4096
   73SLPC    HA 6402   4.500   2.706  10.563 -0.5736 -1.0736 -1.2454
   73SLPC    HB 6403   4.622   2.575  10.584 -0.8262 -0.4439 -0.5667
   73SLPC    C2 6404   4.418   2.505  10.579 -0.5989  0.2567  0.1795
   73SLPC    HS 6405   4.432   2.422  10.652 -0.0211 -0.1644 -0.3973
   73SLPC   O21 6406   4.456   2.466  10.442 -0.7177  0.3722 -0.7077
   73SLPC   C21 6407   4.427   2.340  10.424 -0.1933 -0.1013  0.1238
   73SLPC   O22 6408   4.373   2.263  10.503  0.1379 -0.3997  0.0806
   73SLPC   C22 6409   4.509   2.297  10.305  0.5285  0.0921  0.2614
   73SLPC   H2R 6410   4.490   2.379  10.233 -2.2479  1.0620  1.9040
   73SLPC   H2S 6411   4.617   2.293  10.327  0.7844  2.8736 -0.1278
   73SLPC    C3 6412   4.266   2.555  10.586 -0.3934 -0.3474  0.1155
   73SLPC    HX 6413   4.264   2.657  10.631  0.6589 -0.9538  1.5988
   73SLPC    HY 6414   4.218   2.499  10.670  1.2733 -0.0768  1.2968
   73SLPC   O31 6415   4.186   2.538  10.468 -0.4164  0.4114  0.1361
   73SLPC   C31 6416   4.191   2.648  10.386  0.0229  0.1844 -0.7436
   73SLPC   O32 6417   4.234   2.756  10.416  0.3938 -0.0823 -0.2116
   73SLPC   C32 6418   4.158   2.597  10.245 -0.5756  0.2831 -0.0454
   73SLPC   H2X 6419   4.054   2.561  10.262  0.1918 -1.0127  2.4450
   73SLPC   H2Y 6420   4.212   2.504  10.216 -0.2750  0.0454  1.2140
   73SLPC   C23 6421   4.443   2.177  10.233 -0.2403 -0.1056  0.1352
   73SLPC   H3R 6422   4.343   2.149  10.273  0.5661 -2.0340  0.9515
   73SLPC   H3S 6423   4.494   2.080  10.252  1.3204  0.7350  0.3463
   73SLPC   C24 6424   4.455   2.189  10.082  0.1373 -0.9850  0.5006
   73SLPC   H4R 6425   4.559   2.199  10.044  0.5922  0.3961  2.0033
   73SLPC   H4S 6426   4.401   2.276  10.040  1.3557  1.2467  3.2425
   73SLPC   C25 6427   4.407   2.059  10.012 -0.0670  0.0859 -0.0513
   73SLPC   H5R 6428   4.297   2.043  10.013 -0.4015  0.9650 -4.1250
   73SLPC   H5S 6429   4.452   1.973  10.066  3.2096  2.1207  0.6969
   73SLPC   C26 6430   4.461   2.058   9.864  0.0055 -0.2078  0.8811
   73SLPC   H6R 6431   4.432   1.960   9.822 -1.0333  0.7739 -0.8165
   73SLPC   H6S 6432   4.570   2.053   9.882  0.4385 -0.0041 -1.4525
   73SLPC   C27 6433   4.409   2.174   9.774  0.0056  0.2113 -0.4132
   73SLPC   H7R 6434   4.436   2.272   9.819  1.0173 -0.4373  0.4168
   73SLPC   H7S 6435   4.298   2.167   9.768  0.0793  0.1259 -2.0824
   73SLPC   C28 6436   4.464   2.169   9.635 -0.3120 -0.7500 -0.1599
   73SLPC   H8R 6437   4.563   2.119   9.630 -0.0013 -0.5231  2.4356
   73SLPC   H8S 6438   4.475   2.274   9.601 -0.0541 -0.7758 -0.1561
   73SLPC   C29 6439   4.369   2.093   9.541 -1.1000 -0.6770 -0.1011
   73SLPC   H9R 6440   4.298   2.028   9.595 -0.4428 -0.4240  1.0927
   73SLPC  C210 6441   4.368   2.103   9.403  0.0398 -0.4193 -0.2446
   73SLPC  H10R 6442   4.291   2.049   9.346 -0.1153 -0.7691  0.2924
   73SLPC  C211 6443   4.458   2.194   9.325  0.5901 -0.6286  0.0145
   73SLPC  H11R 6444   4.441   2.289   9.379 -2.2948 -0.5153 -0.9396
   73SLPC  H11S 6445   4.419   2.199   9.221 -2.1945 -1.1216  0.9695
   73SLPC  C212 6446   4.605   2.171   9.315  0.2911  0.0548  0.9459
   73SLPC  H12R 6447   4.641   2.075   9.354 -3.0503 -1.4817  0.5401
   73SLPC  C213 6448   4.695   2.254   9.252 -0.3669 -0.1956  0.7649
   73SLPC  H13R 6449   4.800   2.224   9.238  0.0675 -0.3504  3.7328
   73SLPC  C214 6450   4.651   2.381   9.179  0.6598 -0.4569 -0.5257
   73SLPC  H14R 6451   4.552   2.359   9.132 -0.1249 -0.3121  1.0061
   73SLPC  H14S 6452   4.711   2.410   9.090 -2.4734 -1.9602 -3.3720
   73SLPC  C215 6453   4.631   2.507   9.269 -0.0743 -0.6335  0.2304
   73SLPC  H15R 6454   4.734   2.532   9.305  0.0974 -1.8121  0.5947
   73SLPC  H15S 6455   4.569   2.471   9.354  1.6224 -0.0521  1.7762
   73SLPC  C216 6456   4.571   2.623   9.189 -0.1858  0.4788  0.5877
   73SLPC  H16R 6457   4.635   2.639   9.099 -1.7225  0.7697 -0.5011
   73SLPC  H16S 6458   4.571   2.718   9.246  1.5375  0.4246  0.7253
   73SLPC  C217 6459   4.427   2.597   9.142 -0.2394  0.0772  0.1690
   73SLPC  H17R 6460   4.371   2.558   9.229 -1.5546  0.0667 -0.6459
   73SLPC  H17S 6461   4.418   2.532   9.052  0.9953  2.1813 -1.5889
   73SLPC  C218 6462   4.357   2.721   9.099  0.3629 -0.3916 -0.4621
   73SLPC  H18R 6463   4.383   2.808   9.162 -1.3503 -1.2035  1.4695
   73SLPC  H18S 6464   4.246   2.716   9.105  0.3335  1.2275  0.9856
   73SLPC  H18T 6465   4.388   2.748   8.996 -0.8667  2.2690 -0.2052
   73SLPC   C33 6466   4.166   2.687  10.124  0.3376 -0.2328 -0.2248
   73SLPC   H3X 6467   4.268   2.732  10.121  1.1335 -1.9914 -1.1373
   73SLPC   H3Y 6468   4.108   2.780  10.141 -0.5802 -0.6029 -1.2908
   73SLPC   C34 6469   4.132   2.609   9.990  0.4768 -0.1992  0.1380
   73SLPC   H4X 6470   4.026   2.578   9.979  0.1329  0.9688  0.0184
   73SLPC   H4Y 6471   4.191   2.515   9.992 -0.4301 -0.8382  3.1216
   73SLPC   C35 6472   4.139   2.694   9.866 -0.6859 -0.2841  0.2513
   73SLPC   H5X 6473   4.241   2.737   9.876 -0.5041 -0.7797  0.5644
   73SLPC   H5Y 6474   4.072   2.782   9.877 -2.1412 -1.1837 -1.0068
   73SLPC   C36 6475   4.102   2.640   9.725 -0.0185 -0.2733  0.4948
   73SLPC   H6X 6476   4.005   2.588   9.737  1.3117 -2.8243  1.1209
   73SLPC   H6Y 6477   4.176   2.564   9.690 -0.5325 -0.0418 -1.1876
   73SLPC   C37 6478   4.114   2.743   9.616 -0.4360  0.3214 -0.1899
   73SLPC   H7X 6479   4.053   2.834   9.633 -0.4210  0.0157  1.6608
   73SLPC   H7Y 6480   4.082   2.700   9.519  0.0520 -1.1287  0.2750
   73SLPC   C38 6481   4.260   2.788   9.588 -0.3606 -0.0667 -0.4862
   73SLPC   H8X 6482   4.316   2.729   9.513  0.6962  2.5413 -1.8895
   73SLPC   H8Y 6483   4.314   2.787   9.685 -1.3841 -1.2785  0.1084
   73SLPC   C39 6484   4.264   2.933   9.540  0.3706 -0.1153  0.5780
   73SLPC   H9X 6485   4.368   2.961   9.514  0.0798 -1.0294 -1.8292
   73SLPC   H9Y 6486   4.214   2.992   9.620 -0.6548  0.4477 -0.4516
   73SLPC  C310 6487   4.187   2.960   9.416  0.1991  0.7781  0.9111
   73SLPC  H10X 6488   4.080   2.933   9.421  0.4079 -2.1818 -4.0088
   73SLPC  H10Y 6489   4.217   2.885   9.339 -0.3004 -0.4412  1.8690
   73SLPC  C311 6490   4.189   3.106   9.373  0.4428  0.1172 -0.6324
   73SLPC  H11X 6491   4.296   3.134   9.369 -0.3198  3.5056 -0.8010
   73SLPC  H11Y 6492   4.140   3.158   9.458 -1.1734 -2.6229  0.2333
   73SLPC  C312 6493   4.115   3.145   9.248 -0.5803 -0.3971  0.0649
   73SLPC  H12X 6494   4.115   3.254   9.230 -0.5506 -0.3764  0.1883
   73SLPC  H12Y 6495   4.006   3.127   9.264 -0.4863 -0.1768  1.0440
   73SLPC  C313 6496   4.178   3.086   9.125  0.4559  0.0754  0.3111
   73SLPC  H13X 6497   4.149   2.979   9.128 -1.7164  0.6114  0.2280
   73SLPC  H13Y 6498   4.287   3.103   9.135  0.3035  1.1287  0.3050
   73SLPC  C314 6499   4.128   3.133   8.992  0.6714 -0.0436 -0.0588
   73SLPC  H14X 6500   4.153   3.242   8.983 -0.0518  0.0507 -1.1466
   73SLPC  H14Y 6501   4.018   3.128   8.997  0.7171 -1.8706 -0.4399
   73SLPC  C315 6502   4.194   3.053   8.876  0.9547  0.0971 -0.9326
   73SLPC  H15X 6503   4.191   2.944   8.899 -2.0285  0.4516  0.9668
   73SLPC  H15Y 6504   4.303   3.074   8.875  0.8346  1.8406  2.7941
   73SLPC  C316 6505   4.128   3.067   8.742  0.3809  0.9922  0.3582
   73SLPC  H16X 6506   4.126   3.162   8.684  0.3734  0.1373 -1.0973
   73SLPC  H16Y 6507   4.023   3.042   8.769  0.0256  2.2259  0.1830
   73SLPC  C317 6508   4.175   2.962   8.639 -0.7052 -0.1525  0.1394
   73SLPC  H17X 6509   4.158   2.859   8.676 -0.7428 -2.0614 -4.4857
   73SLPC  H17Y 6510   4.284   2.982   8.631 -0.7168 -0.6615 -1.6529
   73SLPC  C318 6511   4.105   2.967   8.499 -0.3637  0.2650 -0.2530
   73SLPC  H18X 6512   3.997   2.950   8.515 -0.1342  0.3272  1.6594
   73SLPC  H18Y 6513   4.141   2.890   8.427 -1.9148 -0.9680  0.2336
   73SLPC  H18Z 6514   4.118   3.068   8.456  1.9506  0.1269 -0.0176
   74SLPC     N 6515   5.810   5.649  10.600  0.2259  0.0228  0.3671
   74SLPC   C13 6516   5.954   5.619  10.570  0.1606  0.0633 -0.1743
   74SLPC  H13A 6517   5.984   5.543  10.641  2.2586  1.6207  0.7031
   74SLPC  H13B 6518   5.972   5.587  10.469  1.6814 -0.6669  0.3044
   74SLPC  H13C 6519   6.016   5.706  10.586  1.2870 -0.9772  1.4485
   74SLPC   C14 6520   5.796   5.712  10.732 -0.4012  0.9352  0.7418
   74SLPC  H14A 6521   5.838   5.811  10.727 -2.4545  1.7899 -1.0388
   74SLPC  H14B 6522   5.697   5.730  10.770 -1.0018 -0.2688 -0.1764
   74SLPC  H14C 6523   5.859   5.651  10.794 -0.2990 -0.2750 -0.4913
   74SLPC   C15 6524   5.733   5.526  10.597  0.2385 -0.0665  0.4157
   74SLPC  H15A 6525   5.631   5.550  10.621  1.0289  2.0822  1.9849
   74SLPC  H15B 6526   5.730   5.461  10.510  0.0265  1.0825 -0.4682
   74SLPC  H15C 6527   5.766   5.463  10.678  1.6618 -2.2705 -1.7393
   74SLPC   C12 6528   5.754   5.738  10.481  0.3083 -0.7100  0.6463
   74SLPC  H12A 6529   5.648   5.758  10.491  0.2003  0.2175 -1.7351
   74SLPC  H12B 6530   5.759   5.681  10.390  1.3071 -1.2200  1.0124
   74SLPC   C11 6531   5.818   5.878  10.453 -0.3227 -0.2499  0.1664
   74SLPC  H11A 6532   5.785   5.915  10.353 -0.9488  0.6898  0.7028
   74SLPC  H11B 6533   5.925   5.856  10.435 -0.7084 -0.9920 -1.3896
   74SLPC     P 6534   5.904   6.084  10.571  0.2055 -0.4221  0.0258
   74SLPC   O13 6535   5.840   6.199  10.649 -0.0208 -0.2051 -0.2275
   74SLPC   O14 6536   6.020   6.009  10.625 -0.2644 -0.5756  0.2935
   74SLPC   O12 6537   5.785   5.980  10.556 -1.0910 -0.0073  0.2828
   74SLPC   O11 6538   5.942   6.136  10.427 -0.0062  0.0772 -0.2660
   74SLPC    C1 6539   5.835   6.195  10.343 -0.3497 -0.4281 -0.2017
   74SLPC    HA 6540   5.745   6.130  10.343 -0.8618  0.1314  2.8134
   74SLPC    HB 6541   5.809   6.294  10.384  1.4442 -0.0789  0.1849
   74SLPC    C2 6542   5.892   6.224  10.203  0.0533 -0.6752 -0.2491
   74SLPC    HS 6543   5.975   6.296  10.218  1.6794 -2.5004  0.0309
   74SLPC   O21 6544   5.787   6.262  10.113 -0.3706  0.2020 -0.3060
   74SLPC   C21 6545   5.757   6.393  10.119  0.5251 -0.2788 -0.0678
   74SLPC   O22 6546   5.804   6.475  10.188 -0.2622 -0.6935 -0.3401
   74SLPC   C22 6547   5.653   6.426  10.012  0.1626 -0.2974 -0.6040
   74SLPC   H2R 6548   5.677   6.370   9.919 -0.6577  0.7442 -1.4574
   74SLPC   H2S 6549   5.557   6.392  10.056  0.4088 -0.7768 -0.4375
   74SLPC    C3 6550   5.958   6.100  10.139  0.2416  0.1252  0.5439
   74SLPC    HX 6551   5.877   6.025  10.136 -0.6034  0.6137  4.8341
   74SLPC    HY 6552   6.034   6.072  10.216  1.9201  0.5443 -0.8841
   74SLPC   O31 6553   6.024   6.146  10.012  0.1392 -0.1219  0.5459
   74SLPC   C31 6554   6.095   6.048   9.966 -1.1047 -0.9929  0.1146
   74SLPC   O32 6555   6.107   5.936  10.008  0.3864  0.2990 -0.9810
   74SLPC   C32 6556   6.165   6.106   9.843 -0.3241 -0.1626  0.6636
   74SLPC   H2X 6557   6.238   6.179   9.882  0.5078 -1.4077  1.5039
   74SLPC   H2Y 6558   6.092   6.168   9.788  0.5852  1.0082  0.7550
   74SLPC   C23 6559   5.642   6.576   9.990 -0.0133 -0.1450 -0.0012
   74SLPC   H3R 6560   5.744   6.618   9.974 -0.4628  0.5816 -1.1082
   74SLPC   H3S 6561   5.599   6.628  10.079  0.1221 -0.5718  0.3151
   74SLPC   C24 6562   5.570   6.615   9.857 -0.0208 -0.1593 -0.2757
   74SLPC   H4R 6563   5.555   6.725   9.854  2.1035  0.1408 -1.8479
   74SLPC   H4S 6564   5.468   6.571   9.867  0.8586 -2.1333  0.6213
   74SLPC   C25 6565   5.638   6.564   9.726 -0.0170  0.4965  0.4980
   74SLPC   H5R 6566   5.648   6.453   9.727 -0.8613  0.4135  1.6314
   74SLPC   H5S 6567   5.735   6.617   9.718  0.1753 -0.0557 -1.1578
   74SLPC   C26 6568   5.555   6.598   9.602  0.5090 -0.3580  0.4323
   74SLPC   H6R 6569   5.563   6.708   9.588  1.6014 -0.3146  1.2276
   74SLPC   H6S 6570   5.448   6.576   9.625 -1.0140  3.0715 -2.3855
   74SLPC   C27 6571   5.581   6.524   9.469  0.1782  0.6778  0.1124
   74SLPC   H7R 6572   5.585   6.414   9.488  2.0189  0.6914 -0.0492
   74SLPC   H7S 6573   5.688   6.537   9.444  0.7260  1.6224  2.6261
   74SLPC   C28 6574   5.487   6.560   9.348 -0.1928  0.5486  0.0513
   74SLPC   H8R 6575   5.386   6.529   9.382  0.5484  0.6013  2.4158
   74SLPC   H8S 6576   5.507   6.494   9.261 -2.5073  0.1322 -0.2312
   74SLPC   C29 6577   5.491   6.698   9.292  0.3698  0.6548 -0.3632
   74SLPC   H9R 6578   5.487   6.774   9.370  1.8193  0.2315  0.1439
   74SLPC  C210 6579   5.479   6.736   9.164 -0.0553 -0.0236 -0.2235
   74SLPC  H10R 6580   5.487   6.845   9.147 -1.5362 -0.1702 -2.1938
   74SLPC  C211 6581   5.469   6.657   9.033 -0.9365 -0.5380  0.0197
   74SLPC  H11R 6582   5.449   6.549   9.053 -0.2203 -0.9457 -1.3466
   74SLPC  H11S 6583   5.576   6.648   9.006 -0.3877 -2.3255  2.5079
   74SLPC  C212 6584   5.376   6.725   8.939  0.2519  0.6641  0.2688
   74SLPC  H12R 6585   5.272   6.708   8.971  0.8892 -0.5677  1.8844
   74SLPC  C213 6586   5.401   6.812   8.840 -0.2337  0.4605  0.7901
   74SLPC  H13R 6587   5.321   6.856   8.778 -1.1827 -2.1123  0.0435
   74SLPC  C214 6588   5.542   6.852   8.809  0.1383  0.7338  0.7307
   74SLPC  H14R 6589   5.594   6.781   8.741 -0.2150  0.1796  1.0387
   74SLPC  H14S 6590   5.608   6.853   8.898 -0.5636 -1.6553  1.3508
   74SLPC  C215 6591   5.538   6.996   8.752 -0.0200 -0.6511  0.1995
   74SLPC  H15R 6592   5.481   7.067   8.816  2.5376  2.0676 -0.3234
   74SLPC  H15S 6593   5.511   7.001   8.644 -0.3015 -0.2806  0.2842
   74SLPC  C216 6594   5.687   7.057   8.759  0.6239  0.2239  0.1558
   74SLPC  H16R 6595   5.764   6.981   8.733  0.8820  0.3098  0.6626
   74SLPC  H16S 6596   5.696   7.078   8.867 -0.7562 -1.2998  0.6041
   74SLPC  C217 6597   5.707   7.186   8.680  0.9043  0.0367  0.2732
   74SLPC  H17R 6598   5.710   7.157   8.572  2.4711  2.3806 -0.3768
   74SLPC  H17S 6599   5.809   7.222   8.704  1.1524 -0.1646 -0.4499
   74SLPC  C218 6600   5.600   7.292   8.709  0.4621  0.4173  0.1309
   74SLPC  H18R 6601   5.592   7.306   8.819  1.1314 -2.0977  0.5542
   74SLPC  H18S 6602   5.494   7.268   8.684 -0.0664 -0.2949  2.7563
   74SLPC  H18T 6603   5.620   7.383   8.648  0.8164  1.4992  1.7985
   74SLPC   C33 6604   6.237   5.989   9.758 -0.0156 -0.5002  0.0500
   74SLPC   H3X 6605   6.163   5.906   9.754  0.1708 -0.6344 -0.7195
   74SLPC   H3Y 6606   6.328   5.955   9.812  0.8928 -0.5351 -1.4286
   74SLPC   C34 6607   6.276   6.020   9.620  0.7825 -0.4450  1.2171
   74SLPC   H4X 6608   6.321   5.929   9.574 -1.2764  0.2249 -2.4548
   74SLPC   H4Y 6609   6.346   6.105   9.603  0.1485  0.1337  1.4502
   74SLPC   C35 6610   6.163   6.045   9.519  0.4963 -0.3753  0.3525
   74SLPC   H5X 6611   6.134   6.153   9.525 -0.6874 -0.6318 -0.4065
   74SLPC   H5Y 6612   6.073   5.987   9.547  0.5520 -1.0234 -0.7578
   74SLPC   C36 6613   6.197   6.010   9.374 -0.8301 -0.2590 -0.6390
   74SLPC   H6X 6614   6.101   6.027   9.320 -1.5387 -0.6232  0.4747
   74SLPC   H6Y 6615   6.224   5.903   9.361 -0.1098 -0.0860 -0.6073
   74SLPC   C37 6616   6.309   6.095   9.317  0.2073 -0.2301 -0.2044
   74SLPC   H7X 6617   6.394   6.102   9.389  0.5588  0.4930 -0.6834
   74SLPC   H7Y 6618   6.276   6.198   9.295  3.2548  1.8453  3.7567
   74SLPC   C38 6619   6.355   6.048   9.178  0.5402 -0.4644  0.0615
   74SLPC   H8X 6620   6.383   5.942   9.191  3.2374  0.3363  1.5082
   74SLPC   H8Y 6621   6.437   6.116   9.146 -1.3739  0.2189 -4.0908
   74SLPC   C39 6622   6.247   6.060   9.063  0.0031  0.0178 -0.0251
   74SLPC   H9X 6623   6.165   5.990   9.090  0.1941 -0.3668 -0.4365
   74SLPC   H9Y 6624   6.301   6.023   8.974 -1.4848 -1.0577 -0.5136
   74SLPC  C310 6625   6.201   6.202   9.038 -0.0641  0.2197 -0.5094
   74SLPC  H10X 6626   6.270   6.281   9.000  1.7101  0.2969  2.5361
   74SLPC  H10Y 6627   6.156   6.246   9.130  1.2698  0.0311  0.2578
   74SLPC  C311 6628   6.085   6.202   8.934 -0.0559 -0.1151  0.2410
   74SLPC  H11X 6629   6.050   6.306   8.918 -0.7240 -0.2072  1.0157
   74SLPC  H11Y 6630   6.002   6.149   8.986 -0.6530  0.2856 -0.2926
   74SLPC  C312 6631   6.118   6.122   8.794  0.2955  0.2447 -0.3860
   74SLPC  H12X 6632   6.024   6.117   8.734  0.5289  1.6827 -0.9295
   74SLPC  H12Y 6633   6.155   6.020   8.816 -0.2645 -0.2099 -1.4435
   74SLPC  C313 6634   6.227   6.199   8.717 -0.2411  0.2504  0.4347
   74SLPC  H13X 6635   6.274   6.127   8.647  0.2910 -1.4780  2.4804
   74SLPC  H13Y 6636   6.312   6.230   8.781  1.1345 -0.8545 -0.7826
   74SLPC  C314 6637   6.168   6.318   8.640  0.0179  0.1969  0.2822
   74SLPC  H14X 6638   6.120   6.393   8.706 -1.1325  0.7480 -1.1517
   74SLPC  H14Y 6639   6.096   6.275   8.567  0.7012 -0.5784  0.0415
   74SLPC  C315 6640   6.280   6.392   8.558 -0.0091 -0.0456  0.4161
   74SLPC  H15X 6641   6.337   6.314   8.503  4.0151  0.6188  3.2143
   74SLPC  H15Y 6642   6.351   6.436   8.631 -0.6892  0.2795  0.8926
   74SLPC  C316 6643   6.226   6.509   8.472  0.1499  0.1194 -0.1293
   74SLPC  H16X 6644   6.312   6.568   8.432 -0.2788 -0.4636 -2.0438
   74SLPC  H16Y 6645   6.165   6.579   8.533 -2.2416 -1.3274 -0.7525
   74SLPC  C317 6646   6.147   6.447   8.348  0.1455 -0.1606 -0.0751
   74SLPC  H17X 6647   6.111   6.536   8.294  0.7252  0.9731  1.3404
   74SLPC  H17Y 6648   6.061   6.397   8.397  1.1154 -0.8027  1.0324
   74SLPC  C318 6649   6.222   6.358   8.248 -0.3582  0.6000  0.4387
   74SLPC  H18X 6650   6.298   6.411   8.186 -1.2907 -0.3659 -1.5923
   74SLPC  H18Y 6651   6.155   6.309   8.175  0.3937 -1.1296  0.8560
   74SLPC  H18Z 6652   6.270   6.273   8.302  0.4545  1.3283  0.8941
   75SLPC     N 6653   1.592   0.444   6.301  0.6667  0.0502  0.3488
   75SLPC   C13 6654   1.520   0.409   6.172 -0.2592 -1.2068 -0.2922
   75SLPC  H13A 6655   1.593   0.399   6.093  0.1311  1.5452 -0.3680
   75SLPC  H13B 6656   1.453   0.325   6.185 -1.5422 -0.4688 -1.6732
   75SLPC  H13C 6657   1.466   0.499   6.146  1.5770  0.7113  2.0713
   75SLPC   C14 6658   1.708   0.533   6.256  0.5059  0.1946  0.1855
   75SLPC  H14A 6659   1.668   0.623   6.213  0.6504  0.1125 -0.1263
   75SLPC  H14B 6660   1.757   0.571   6.344  0.0060  1.4162 -0.0490
   75SLPC  H14C 6661   1.775   0.484   6.187  1.5535  1.0805  0.5508
   75SLPC   C15 6662   1.640   0.322   6.364  0.7899 -0.3246 -0.6649
   75SLPC  H15A 6663   1.711   0.346   6.441  1.0337 -0.9533 -0.6838
   75SLPC  H15B 6664   1.556   0.277   6.415  1.7501  0.4386  1.7041
   75SLPC  H15C 6665   1.689   0.252   6.298 -0.1654 -1.5270 -0.1461
   75SLPC   C12 6666   1.501   0.524   6.385  0.1831  0.1233 -0.1301
   75SLPC  H12A 6667   1.412   0.463   6.392  1.1493 -1.4350 -0.9248
   75SLPC  H12B 6668   1.480   0.620   6.339  2.1739  0.7695  0.2068
   75SLPC   C11 6669   1.551   0.561   6.524 -0.2049 -0.1247 -0.3604
   75SLPC  H11A 6670   1.611   0.476   6.563  0.8455  1.0592  0.7117
   75SLPC  H11B 6671   1.465   0.585   6.589 -0.8821  0.0349 -1.2926
   75SLPC     P 6672   1.588   0.817   6.510  0.7225 -0.1602 -0.3332
   75SLPC   O13 6673   1.680   0.883   6.413 -0.2148  0.6714 -0.2780
   75SLPC   O14 6674   1.445   0.808   6.469  0.1563  0.6093  0.3168
   75SLPC   O12 6675   1.643   0.671   6.516 -0.0229  0.1621 -0.2243
   75SLPC   O11 6676   1.617   0.890   6.645  0.2781 -0.3477  0.2277
   75SLPC    C1 6677   1.688   0.820   6.750  0.1356  0.4106 -0.2837
   75SLPC    HA 6678   1.633   0.735   6.795 -0.4895  0.3924 -1.0573
   75SLPC    HB 6679   1.781   0.775   6.708  0.6032  0.6606  0.4689
   75SLPC    C2 6680   1.735   0.920   6.861  0.1480  0.3582 -0.1899
   75SLPC    HS 6681   1.814   0.868   6.919 -0.2638 -2.4279 -1.9339
   75SLPC   O21 6682   1.623   0.963   6.950 -0.0317 -0.4476 -0.5656
   75SLPC   C21 6683   1.604   0.889   7.059  0.1285 -0.7372  0.0175
   75SLPC   O22 6684   1.654   0.787   7.083 -0.5729  0.3053  0.5305
   75SLPC   C22 6685   1.479   0.946   7.126  0.6825  0.6445  0.2807
   75SLPC   H2R 6686   1.449   1.044   7.084 -4.2393 -0.1434  1.3682
   75SLPC   H2S 6687   1.400   0.870   7.107  2.1495 -0.1889 -3.2317
   75SLPC    C3 6688   1.795   1.048   6.794  0.5522 -0.6004 -0.0950
   75SLPC    HX 6689   1.701   1.095   6.756 -1.1300 -3.4201  0.2748
   75SLPC    HY 6690   1.862   1.002   6.718 -0.3253 -0.9973 -0.6578
   75SLPC   O31 6691   1.879   1.125   6.879 -0.3166 -0.0143 -0.7761
   75SLPC   C31 6692   1.836   1.237   6.920  0.2035 -0.0326  0.2806
   75SLPC   O32 6693   1.734   1.293   6.883 -0.0011 -0.2308 -0.1249
   75SLPC   C32 6694   1.939   1.297   7.015  0.4182  0.4829 -0.3650
   75SLPC   H2X 6695   1.968   1.395   6.971  0.6542  0.7257  0.3331
   75SLPC   H2Y 6696   2.031   1.235   7.029 -1.3905 -2.7097 -1.4983
   75SLPC   C23 6697   1.504   0.954   7.274 -0.3324 -0.3904 -0.3066
   75SLPC   H3R 6698   1.578   1.036   7.284 -0.4331 -0.0868 -1.8105
   75SLPC   H3S 6699   1.550   0.859   7.310 -0.2759 -0.3469 -0.2642
   75SLPC   C24 6700   1.380   0.985   7.348 -0.0855 -0.3324  0.1888
   75SLPC   H4R 6701   1.319   0.893   7.339  0.6960 -0.8591  0.1747
   75SLPC   H4S 6702   1.316   1.064   7.305  0.4760  1.3224  2.2094
   75SLPC   C25 6703   1.391   1.021   7.495  0.3031 -0.2353  0.1398
   75SLPC   H5R 6704   1.441   1.120   7.495  0.3447 -0.2571  0.3103
   75SLPC   H5S 6705   1.449   0.955   7.563  3.4727  1.1603 -1.0115
   75SLPC   C26 6706   1.255   1.053   7.554 -0.0215 -0.7271  0.2069
   75SLPC   H6R 6707   1.192   0.964   7.532  1.0285 -1.1343 -1.3092
   75SLPC   H6S 6708   1.220   1.146   7.503  1.0911 -0.6338 -0.4114
   75SLPC   C27 6709   1.267   1.089   7.706 -0.2032 -0.0818 -0.1134
   75SLPC   H7R 6710   1.334   1.176   7.720 -0.2269 -0.1106  0.1954
   75SLPC   H7S 6711   1.305   0.991   7.742 -0.9504  0.1693  1.4431
   75SLPC   C28 6712   1.131   1.110   7.765  0.0655  0.7840 -0.0246
   75SLPC   H8R 6713   1.072   1.018   7.783  0.8472  0.4375  0.8225
   75SLPC   H8S 6714   1.066   1.174   7.702 -1.4622 -0.6950 -0.0225
   75SLPC   C29 6715   1.150   1.178   7.897  0.5370 -0.4473  0.6338
   75SLPC   H9R 6716   1.184   1.281   7.883 -1.7532  0.1253 -1.4741
   75SLPC  C210 6717   1.131   1.121   8.016  0.3881  1.1951 -0.3662
   75SLPC  H10R 6718   1.164   1.178   8.104 -1.2260 -0.3066  1.2906
   75SLPC  C211 6719   1.083   0.991   8.065  0.2650  0.1056  0.8270
   75SLPC  H11R 6720   1.119   0.972   8.169  1.0178  1.5608  0.8475
   75SLPC  H11S 6721   1.119   0.906   8.003  0.0093 -0.8177  1.8971
   75SLPC  C212 6722   0.929   0.987   8.070  0.2351 -0.8021  0.2151
   75SLPC  H12R 6723   0.884   0.962   7.973  1.1246  0.1210 -0.4696
   75SLPC  C213 6724   0.857   0.990   8.188  0.1523 -1.3811  0.3189
   75SLPC  H13R 6725   0.748   0.974   8.185 -0.0535 -0.0545 -0.6877
   75SLPC  C214 6726   0.909   1.009   8.326 -0.2698  0.3580 -0.1515
   75SLPC  H14R 6727   1.001   1.070   8.317  0.2221 -0.2178  0.7508
   75SLPC  H14S 6728   0.945   0.910   8.362  1.1455  0.7393 -0.4703
   75SLPC  C215 6729   0.815   1.081   8.424 -0.1105  0.4153 -0.2316
   75SLPC  H15R 6730   0.735   1.009   8.451  0.0902  0.4264  0.4104
   75SLPC  H15S 6731   0.762   1.164   8.373  0.1090 -0.1061 -1.3396
   75SLPC  C216 6732   0.884   1.119   8.559  0.3656 -0.5207 -0.3044
   75SLPC  H16R 6733   0.974   1.180   8.538  0.0137 -0.2320 -0.9943
   75SLPC  H16S 6734   0.915   1.019   8.595  0.1252 -0.9178 -1.1720
   75SLPC  C217 6735   0.782   1.199   8.644 -0.0276 -0.8585  0.6863
   75SLPC  H17R 6736   0.680   1.156   8.656 -0.9272  1.1287  0.5365
   75SLPC  H17S 6737   0.779   1.294   8.586 -0.5649  0.1363  2.2740
   75SLPC  C218 6738   0.842   1.238   8.776 -0.6795  0.3267 -0.5763
   75SLPC  H18R 6739   0.761   1.279   8.840  1.3270  1.0886  1.5662
   75SLPC  H18S 6740   0.922   1.312   8.760  3.7165 -3.7562  0.2544
   75SLPC  H18T 6741   0.882   1.154   8.837  0.4156  2.1325  1.2839
   75SLPC   C33 6742   1.879   1.333   7.150  0.7096  0.0689  0.5600
   75SLPC   H3X 6743   1.948   1.409   7.194 -0.4059  0.2354  2.0681
   75SLPC   H3Y 6744   1.783   1.388   7.160  0.9770  0.2883  2.1470
   75SLPC   C34 6745   1.878   1.215   7.254 -0.4638  0.2408 -0.1900
   75SLPC   H4X 6746   1.985   1.192   7.272 -0.2907  0.5409 -0.8251
   75SLPC   H4Y 6747   1.824   1.130   7.207  0.1248  0.1267 -0.6738
   75SLPC   C35 6748   1.796   1.252   7.380  0.7112  0.0301 -1.1770
   75SLPC   H5X 6749   1.689   1.238   7.351 -0.2057  0.0163  1.8651
   75SLPC   H5Y 6750   1.821   1.356   7.410 -0.7117 -0.2616  1.2985
   75SLPC   C36 6751   1.829   1.161   7.495  0.2288  0.2710 -0.3343
   75SLPC   H6X 6752   1.937   1.176   7.517  0.8412 -1.2175 -2.0443
   75SLPC   H6Y 6753   1.812   1.059   7.454 -0.3402 -0.0981  0.7919
   75SLPC   C37 6754   1.744   1.178   7.620  0.9356 -0.9320 -0.3669
   75SLPC   H7X 6755   1.636   1.163   7.599  0.6674 -0.8850  0.8889
   75SLPC   H7Y 6756   1.760   1.279   7.664  0.1632 -1.0554  0.2168
   75SLPC   C38 6757   1.790   1.085   7.742  0.8956  0.2831  0.4871
   75SLPC   H8X 6758   1.900   1.087   7.755  0.8686  0.5275  0.6849
   75SLPC   H8Y 6759   1.754   0.984   7.713  1.8521 -0.1134  0.6444
   75SLPC   C39 6760   1.710   1.127   7.867 -0.2058  0.0619  0.5962
   75SLPC   H9X 6761   1.608   1.167   7.852  0.4934  2.0061  0.7183
   75SLPC   H9Y 6762   1.758   1.219   7.908 -1.6118  0.4727  1.3717
   75SLPC  C310 6763   1.715   1.037   7.990 -0.0004  0.1237  0.0007
   75SLPC  H10X 6764   1.691   1.094   8.083 -0.6154 -0.9097  0.4939
   75SLPC  H10Y 6765   1.824   1.015   7.981 -0.0690  0.5254 -2.6111
   75SLPC  C311 6766   1.611   0.921   7.999  0.1951 -0.4399  0.4398
   75SLPC  H11X 6767   1.655   0.834   8.051 -0.8523 -0.3476  1.5243
   75SLPC  H11Y 6768   1.570   0.889   7.901 -0.5065  0.0638  0.5575
   75SLPC  C312 6769   1.482   0.959   8.088 -0.9153 -0.1704  0.2043
   75SLPC  H12X 6770   1.396   0.909   8.040 -0.7576  1.4273 -1.8976
   75SLPC  H12Y 6771   1.471   1.065   8.054  3.8476  0.8439  0.9840
   75SLPC  C313 6772   1.507   0.943   8.233  0.2067 -0.6137  0.0901
   75SLPC  H13X 6773   1.598   0.995   8.269 -0.1574  1.1279 -1.3340
   75SLPC  H13Y 6774   1.519   0.833   8.246  1.5015 -0.3781  0.9986
   75SLPC  C314 6775   1.388   0.984   8.319 -0.6354  0.3175 -0.6227
   75SLPC  H14X 6776   1.312   0.904   8.312  2.1667 -2.6243  0.3968
   75SLPC  H14Y 6777   1.354   1.084   8.282  1.2508  0.8591 -0.9934
   75SLPC  C315 6778   1.432   0.997   8.471 -0.6203 -0.2028  0.3250
   75SLPC  H15X 6779   1.508   1.078   8.475 -1.0483  0.1884  4.3780
   75SLPC  H15Y 6780   1.489   0.905   8.495  2.5673  1.9735  1.9355
   75SLPC  C316 6781   1.320   1.032   8.569  0.0055 -0.3723  0.3067
   75SLPC  H16X 6782   1.245   0.951   8.556  1.1229 -1.1854 -1.6206
   75SLPC  H16Y 6783   1.261   1.117   8.529  0.5787  0.4580  1.1867
   75SLPC  C317 6784   1.350   1.046   8.717  0.1882  0.1193  0.0352
   75SLPC  H17X 6785   1.410   1.135   8.745  3.0412 -2.4944  2.9755
   75SLPC  H17Y 6786   1.410   0.960   8.753  0.0647 -0.8789 -1.9833
   75SLPC  C318 6787   1.218   1.042   8.794 -0.7461 -0.0439  0.3401
   75SLPC  H18X 6788   1.166   0.947   8.770 -1.1367  0.0975  0.6096
   75SLPC  H18Y 6789   1.153   1.124   8.754  1.9715  3.3764  2.3385
   75SLPC  H18Z 6790   1.218   1.055   8.904 -3.3756  0.4785  0.3515
   76SLPC     N 6791   3.349   0.162   6.443 -0.2726 -0.5057  0.0927
   76SLPC   C13 6792   3.406   0.301   6.456 -0.3541 -0.6732  0.8861
   76SLPC  H13A 6793   3.454   0.314   6.552  2.1275 -1.8428 -0.0926
   76SLPC  H13B 6794   3.492   0.315   6.392 -0.2832 -0.5890  0.9988
   76SLPC  H13C 6795   3.331   0.375   6.435  0.2237 -0.5221 -0.7730
   76SLPC   C14 6796   3.316   0.134   6.298 -0.0092  0.4503  0.5301
   76SLPC  H14A 6797   3.261   0.041   6.301 -1.1828  1.0240 -1.4783
   76SLPC  H14B 6798   3.254   0.206   6.247  2.3450  0.8347 -2.0179
   76SLPC  H14C 6799   3.404   0.128   6.236 -0.4167  0.0629 -0.0185
   76SLPC   C15 6800   3.215   0.170   6.505  0.2791 -0.1802 -0.6409
   76SLPC  H15A 6801   3.134   0.208   6.446 -1.1822  2.2120  2.6136
   76SLPC  H15B 6802   3.177   0.071   6.524 -1.2508  0.3278 -0.9049
   76SLPC  H15C 6803   3.217   0.225   6.598  0.1054 -0.7566 -0.2884
   76SLPC   C12 6804   3.438   0.046   6.502  0.5486  0.7677 -0.4254
   76SLPC  H12A 6805   3.480   0.079   6.596  0.8525  1.5205 -0.8145
   76SLPC  H12B 6806   3.519   0.037   6.430 -0.0322  0.3691 -1.0389
   76SLPC   C11 6807   3.377  -0.102   6.514 -0.2448  0.2246 -0.4917
   76SLPC  H11A 6808   3.290  -0.081   6.580  0.6697  1.1500  0.4737
   76SLPC  H11B 6809   3.451  -0.172   6.557 -1.7357 -0.5151  1.0071
   76SLPC     P 6810   3.198  -0.215   6.365  0.4092  0.3213  0.2063
   76SLPC   O13 6811   3.097  -0.121   6.406  0.2591  0.1154 -0.8717
   76SLPC   O14 6812   3.187  -0.258   6.224 -0.4480  0.0219 -0.0666
   76SLPC   O12 6813   3.341  -0.147   6.382 -0.5424 -0.5283 -0.7268
   76SLPC   O11 6814   3.217  -0.337   6.463  0.1824  0.3456 -0.1338
   76SLPC    C1 6815   3.132  -0.454   6.472 -0.1956 -0.0212  0.0486
   76SLPC    HA 6816   3.029  -0.430   6.436  0.3269  1.4604 -0.5355
   76SLPC    HB 6817   3.175  -0.543   6.421 -1.1010  0.3384 -1.4111
   76SLPC    C2 6818   3.098  -0.496   6.614  0.0663 -0.1890  0.5063
   76SLPC    HS 6819   3.038  -0.589   6.609 -1.9916  1.1167 -1.9695
   76SLPC   O21 6820   3.017  -0.385   6.669  1.0524  0.4756 -0.1377
   76SLPC   C21 6821   2.940  -0.424   6.772  0.1022  0.2636  0.5441
   76SLPC   O22 6822   2.946  -0.530   6.830  0.0541  0.6704 -0.7215
   76SLPC   C22 6823   2.857  -0.298   6.817  0.3012  0.3439  0.8490
   76SLPC   H2R 6824   2.937  -0.222   6.829 -0.0916  1.1352 -1.2139
   76SLPC   H2S 6825   2.788  -0.288   6.731  2.0286 -2.0633 -0.9661
   76SLPC    C3 6826   3.232  -0.523   6.691  0.3245  0.9759  0.5322
   76SLPC    HX 6827   3.276  -0.421   6.695 -1.3145  1.8708 -2.0243
   76SLPC    HY 6828   3.293  -0.582   6.618 -0.7769 -0.4425  0.7112
   76SLPC   O31 6829   3.221  -0.606   6.815 -0.1818 -0.5551  0.2935
   76SLPC   C31 6830   3.239  -0.538   6.919  1.1638 -0.4151 -0.7508
   76SLPC   O32 6831   3.278  -0.420   6.924 -0.0874  0.4520 -0.2005
   76SLPC   C32 6832   3.201  -0.630   7.038  0.1661  0.5207 -0.1997
   76SLPC   H2X 6833   3.245  -0.732   7.038  0.6815  0.7403  0.0356
   76SLPC   H2Y 6834   3.090  -0.632   7.046  0.2188  1.7645  1.2420
   76SLPC   C23 6835   2.786  -0.333   6.950 -0.8107  0.0433 -0.4053
   76SLPC   H3R 6836   2.854  -0.371   7.029 -0.4578  1.9323  0.2587
   76SLPC   H3S 6837   2.702  -0.401   6.925 -0.7112  0.1889 -1.1392
   76SLPC   C24 6838   2.731  -0.198   7.009  0.1546  0.1573  0.6075
   76SLPC   H4R 6839   2.651  -0.226   7.081  0.3375 -2.1293  0.0226
   76SLPC   H4S 6840   2.683  -0.153   6.919 -0.1647 -2.1693 -0.4661
   76SLPC   C25 6841   2.850  -0.119   7.074 -0.0662  0.3706 -0.4353
   76SLPC   H5R 6842   2.926  -0.094   6.996  0.0057 -2.2663 -1.2981
   76SLPC   H5S 6843   2.892  -0.182   7.155 -0.6247  1.7141  0.9622
   76SLPC   C26 6844   2.814   0.010   7.150  0.4945 -0.3631  0.2953
   76SLPC   H6R 6845   2.797   0.096   7.081  4.1043 -0.0703 -0.4183
   76SLPC   H6S 6846   2.907   0.033   7.208  0.0493 -0.4101  1.0388
   76SLPC   C27 6847   2.706  -0.003   7.258  0.8606 -0.1901  0.1947
   76SLPC   H7R 6848   2.719  -0.107   7.294 -3.2415 -1.3376 -1.0288
   76SLPC   H7S 6849   2.607  -0.018   7.209  0.4389 -2.8192  1.6689
   76SLPC   C28 6850   2.691   0.105   7.363  0.1615 -1.1053  0.3173
   76SLPC   H8R 6851   2.662   0.203   7.320  1.4902 -0.1445  1.5338
   76SLPC   H8S 6852   2.597   0.082   7.418  0.0298 -1.4757 -0.0550
   76SLPC   C29 6853   2.806   0.114   7.458 -0.2595 -0.4206  0.0236
   76SLPC   H9R 6854   2.883   0.175   7.410  0.4191 -2.5340 -1.7929
   76SLPC  C210 6855   2.812   0.070   7.588 -0.7575 -0.4236  0.9760
   76SLPC  H10R 6856   2.907   0.088   7.641 -1.3655  0.3956  1.8354
   76SLPC  C211 6857   2.698  -0.003   7.655  0.3237  0.0898 -0.7080
   76SLPC  H11R 6858   2.724  -0.079   7.732  0.2248  0.7120 -0.0537
   76SLPC  H11S 6859   2.638  -0.051   7.575 -0.5492  1.4822 -0.9137
   76SLPC  C212 6860   2.607   0.091   7.734  0.4108  0.3670  0.7382
   76SLPC  H12R 6861   2.519   0.127   7.678  0.9555 -0.4760 -0.7233
   76SLPC  C213 6862   2.608   0.114   7.864  0.8741 -0.5609  1.1459
   76SLPC  H13R 6863   2.535   0.186   7.903  2.0599 -0.0581  2.5515
   76SLPC  C214 6864   2.696   0.056   7.967  0.0875  0.2295 -0.1246
   76SLPC  H14R 6865   2.748   0.138   8.020  0.8674 -1.5728  2.0662
   76SLPC  H14S 6866   2.779  -0.005   7.926  0.8273  0.7466  0.5888
   76SLPC  C215 6867   2.620  -0.032   8.074 -0.0132  0.5121  0.2374
   76SLPC  H15R 6868   2.578  -0.123   8.026 -0.7566 -0.0115  1.8083
   76SLPC  H15S 6869   2.531   0.030   8.101 -1.5660 -0.8527 -1.4758
   76SLPC  C216 6870   2.700  -0.074   8.194  0.0885  0.6781  0.5391
   76SLPC  H16R 6871   2.635  -0.122   8.270 -2.0581  1.0150 -0.9881
   76SLPC  H16S 6872   2.743   0.020   8.234  5.0262 -0.5542 -1.1322
   76SLPC  C217 6873   2.822  -0.170   8.160 -0.2516  0.1855 -0.0116
   76SLPC  H17R 6874   2.871  -0.133   8.067 -3.2753  2.9826 -0.6581
   76SLPC  H17S 6875   2.792  -0.273   8.129  1.2646  0.0210 -1.0722
   76SLPC  C218 6876   2.911  -0.190   8.287 -0.4500  1.2196  0.9609
   76SLPC  H18R 6877   2.949  -0.093   8.326  1.2806  1.4693 -1.1545
   76SLPC  H18S 6878   2.992  -0.264   8.271 -0.8073  1.0206  0.0569
   76SLPC  H18T 6879   2.853  -0.225   8.375  1.1577 -0.3069  1.4887
   76SLPC   C33 6880   3.259  -0.568   7.171 -0.0620 -0.1988 -0.0029
   76SLPC   H3X 6881   3.203  -0.476   7.199 -1.3445 -0.1111 -2.5819
   76SLPC   H3Y 6882   3.361  -0.529   7.154 -0.1072 -0.5973 -1.2279
   76SLPC   C34 6883   3.265  -0.659   7.295  0.0360  0.1442 -0.2790
   76SLPC   H4X 6884   3.345  -0.734   7.276 -0.0439  0.2357 -1.0084
   76SLPC   H4Y 6885   3.169  -0.712   7.315  0.9235 -1.0661  0.9861
   76SLPC   C35 6886   3.300  -0.593   7.428  0.2127  0.5493  0.0849
   76SLPC   H5X 6887   3.220  -0.522   7.459 -0.9407 -0.6634 -0.0079
   76SLPC   H5Y 6888   3.394  -0.536   7.414  0.5436 -0.1553 -0.6104
   76SLPC   C36 6889   3.319  -0.708   7.532 -0.0757 -0.1610  0.1094
   76SLPC   H6X 6890   3.400  -0.777   7.498  0.4319  0.6901 -0.4591
   76SLPC   H6Y 6891   3.233  -0.777   7.542  0.9587 -1.1883  2.9248
   76SLPC   C37 6892   3.359  -0.643   7.665 -0.8070  0.2252 -0.4103
   76SLPC   H7X 6893   3.266  -0.608   7.714 -2.2747 -2.3154 -1.2224
   76SLPC   H7Y 6894   3.430  -0.557   7.660  0.9440 -1.0985  0.4477
   76SLPC   C38 6895   3.435  -0.742   7.762  0.4647 -0.1247  0.7722
   76SLPC   H8X 6896   3.449  -0.686   7.856 -2.3672  1.3988  0.3888
   76SLPC   H8Y 6897   3.528  -0.771   7.708 -1.4208 -0.1486 -2.8058
   76SLPC   C39 6898   3.355  -0.874   7.783  0.1354  0.2562 -0.3066
   76SLPC   H9X 6899   3.338  -0.913   7.681 -0.2220  2.4296 -1.1251
   76SLPC   H9Y 6900   3.251  -0.863   7.822  0.2345  0.7048 -0.1652
   76SLPC  C310 6901   3.432  -0.971   7.874  0.4975  0.3230 -0.0190
   76SLPC  H10X 6902   3.542  -0.965   7.859  0.9542 -1.8055  2.0371
   76SLPC  H10Y 6903   3.398  -1.071   7.842  1.7440  0.4932 -2.0627
   76SLPC  C311 6904   3.413  -0.942   8.021  0.1285  0.5496 -0.3648
   76SLPC  H11X 6905   3.303  -0.939   8.037  0.2653 -3.0332  2.6128
   76SLPC  H11Y 6906   3.461  -0.844   8.045  2.1319 -0.6373  0.7335
   76SLPC  C312 6907   3.465  -1.046   8.115  0.2684  0.0422 -0.3094
   76SLPC  H12X 6908   3.576  -1.045   8.110  0.3337 -1.3818  0.2863
   76SLPC  H12Y 6909   3.442  -1.153   8.099  0.7884 -0.1775  0.3300
   76SLPC  C313 6910   3.423  -1.014   8.262  0.2727  0.0610 -0.0573
   76SLPC  H13X 6911   3.440  -0.907   8.283 -0.2410  0.3578 -1.1050
   76SLPC  H13Y 6912   3.483  -1.083   8.325  1.6599 -0.0877 -1.4897
   76SLPC  C314 6913   3.276  -1.048   8.287  0.0269  0.6578  0.6494
   76SLPC  H14X 6914   3.259  -1.156   8.266  2.4339  0.1067  1.2898
   76SLPC  H14Y 6915   3.217  -0.987   8.215  0.8277 -0.7426 -1.2876
   76SLPC  C315 6916   3.239  -0.999   8.429  0.6875 -0.4587  0.2697
   76SLPC  H15X 6917   3.259  -0.891   8.442 -0.9218  0.0590 -1.2042
   76SLPC  H15Y 6918   3.300  -1.055   8.504  1.9609  1.5639  0.8231
   76SLPC  C316 6919   3.089  -1.017   8.444  0.1251 -0.8980 -0.2816
   76SLPC  H16X 6920   3.032  -0.978   8.357  1.5563 -1.4549 -1.5122
   76SLPC  H16Y 6921   3.065  -0.959   8.536 -1.7827 -1.3960 -0.4159
   76SLPC  C317 6922   3.041  -1.164   8.467 -0.3728 -0.3668 -0.5885
   76SLPC  H17X 6923   3.109  -1.216   8.538 -3.1250 -0.5755  2.1127
   76SLPC  H17Y 6924   3.039  -1.220   8.371 -0.1877  0.0506 -0.8360
   76SLPC  C318 6925   2.906  -1.171   8.532  0.2044 -0.0279 -0.5387
   76SLPC  H18X 6926   2.881  -1.276   8.556  2.1505 -0.8709 -1.9497
   76SLPC  H18Y 6927   2.823  -1.125   8.474  0.6099  2.1138  0.4601
   76SLPC  H18Z 6928   2.891  -1.114   8.627 -1.9701  0.1908 -0.9582
   77SLPC     N 6929   0.860   0.524   6.158 -0.0631  0.1572 -0.3433
   77SLPC   C13 6930   0.750   0.617   6.107  0.9136  0.0581 -0.8495
   77SLPC  H13A 6931   0.726   0.683   6.190 -0.0030 -0.4811 -0.6825
   77SLPC  H13B 6932   0.803   0.672   6.030  2.8984  0.9810  1.0295
   77SLPC  H13C 6933   0.664   0.560   6.077  0.3884 -0.4741  1.4840
   77SLPC   C14 6934   0.972   0.604   6.208 -0.4521 -0.0427  0.3584
   77SLPC  H14A 6935   1.047   0.535   6.245 -1.1434 -1.1553 -0.2578
   77SLPC  H14B 6936   1.021   0.669   6.138  2.2741 -0.6791  1.5364
   77SLPC  H14C 6937   0.950   0.668   6.293  2.0203 -0.8514  1.7267
   77SLPC   C15 6938   0.903   0.437   6.042  0.3671 -0.2232  0.0647
   77SLPC  H15A 6939   0.958   0.352   6.079 -2.3125 -0.7879  3.2229
   77SLPC  H15B 6940   0.807   0.411   6.000 -1.2631  0.1294  3.2796
   77SLPC  H15C 6941   0.961   0.496   5.972 -0.2564  1.4161  0.8598
   77SLPC   C12 6942   0.802   0.432   6.266 -0.4037 -1.1024 -0.3514
   77SLPC  H12A 6943   0.720   0.378   6.221 -0.8995 -0.3955 -0.3120
   77SLPC  H12B 6944   0.773   0.483   6.357  0.9407 -1.8634  0.5483
   77SLPC   C11 6945   0.887   0.320   6.315 -0.6243  0.3866  0.1277
   77SLPC  H11A 6946   0.906   0.260   6.223 -1.1080  2.6439 -1.5297
   77SLPC  H11B 6947   0.825   0.256   6.382 -2.1987  1.8439  0.1392
   77SLPC     P 6948   1.142   0.336   6.379 -0.3140  0.5453 -0.4042
   77SLPC   O13 6949   1.170   0.196   6.433  0.5161  0.5837 -0.0203
   77SLPC   O14 6950   1.191   0.359   6.241  0.2787  0.0966  0.2111
   77SLPC   O12 6951   0.992   0.368   6.386 -0.2268  0.3329  0.0051
   77SLPC   O11 6952   1.211   0.440   6.479  0.5007 -0.0248 -0.3507
   77SLPC    C1 6953   1.162   0.564   6.523 -0.5623  0.7400  0.1377
   77SLPC    HA 6954   1.249   0.632   6.535  0.3024 -0.3846  0.4916
   77SLPC    HB 6955   1.083   0.602   6.456 -1.1683  0.7144  0.8288
   77SLPC    C2 6956   1.103   0.544   6.661  0.5458  0.1004  0.3597
   77SLPC    HS 6957   1.025   0.466   6.648  1.6050 -0.9220 -0.0259
   77SLPC   O21 6958   1.047   0.674   6.699 -0.1566 -0.1199  0.3232
   77SLPC   C21 6959   0.921   0.699   6.663  0.2676 -0.0503 -0.2257
   77SLPC   O22 6960   0.851   0.624   6.592 -0.4621 -0.1349  0.3275
   77SLPC   C22 6961   0.884   0.838   6.711 -0.3610 -0.9478  0.3354
   77SLPC   H2R 6962   0.967   0.911   6.700 -2.3243  1.5015  0.7954
   77SLPC   H2S 6963   0.801   0.865   6.643 -0.4986 -2.2845 -0.0582
   77SLPC    C3 6964   1.207   0.490   6.758  0.4068 -0.1393 -0.3347
   77SLPC    HX 6965   1.304   0.542   6.738  0.1395  0.0658 -1.1681
   77SLPC    HY 6966   1.220   0.382   6.734  0.4422  0.1354 -1.6158
   77SLPC   O31 6967   1.168   0.499   6.892  0.4560 -0.4017 -0.2733
   77SLPC   C31 6968   1.209   0.615   6.952  0.1150  0.0035  0.1138
   77SLPC   O32 6969   1.300   0.689   6.917 -0.7437 -0.2060 -0.3053
   77SLPC   C32 6970   1.120   0.627   7.083  0.1907 -0.2756  0.1658
   77SLPC   H2X 6971   1.164   0.553   7.153  0.5396  1.0724  1.4288
   77SLPC   H2Y 6972   1.012   0.607   7.066 -0.4194  2.3120  0.5200
   77SLPC   C23 6973   0.845   0.847   6.861  0.4147 -0.2302 -0.1723
   77SLPC   H3R 6974   0.814   0.948   6.896 -0.7287 -1.0571  1.2796
   77SLPC   H3S 6975   0.933   0.826   6.926  0.3302 -0.5075 -0.1462
   77SLPC   C24 6976   0.731   0.750   6.903  0.2651  0.1304  0.4067
   77SLPC   H4R 6977   0.770   0.649   6.878  0.6170  0.0486  1.2521
   77SLPC   H4S 6978   0.643   0.757   6.836  1.2110 -5.0395 -1.8257
   77SLPC   C25 6979   0.702   0.749   7.052 -0.6366 -0.4033 -0.1919
   77SLPC   H5R 6980   0.793   0.780   7.108 -2.1923  1.1885  1.5714
   77SLPC   H5S 6981   0.677   0.649   7.094  0.5406 -0.2600  0.9196
   77SLPC   C26 6982   0.600   0.843   7.102  0.3052  0.0492 -0.3495
   77SLPC   H6R 6983   0.494   0.829   7.072  0.0689  1.9278 -0.4868
   77SLPC   H6S 6984   0.634   0.944   7.070 -0.8901  0.0679 -1.6420
   77SLPC   C27 6985   0.586   0.863   7.259 -0.5963  0.0898 -0.1799
   77SLPC   H7R 6986   0.691   0.859   7.295 -0.6261 -1.7195 -0.2255
   77SLPC   H7S 6987   0.537   0.773   7.302  0.0855 -1.9783 -3.3732
   77SLPC   C28 6988   0.523   1.001   7.284  0.0246 -0.4968 -0.3614
   77SLPC   H8R 6989   0.587   1.077   7.235 -1.1644 -0.5290 -2.0385
   77SLPC   H8S 6990   0.524   1.027   7.392 -0.6326 -2.9556  0.3129
   77SLPC   C29 6991   0.385   1.012   7.232  0.3318  0.3712 -0.4786
   77SLPC   H9R 6992   0.386   1.010   7.122 -0.2391  3.0858 -0.6146
   77SLPC  C210 6993   0.271   1.022   7.295 -0.4581  0.3671  0.2816
   77SLPC  H10R 6994   0.181   1.018   7.231 -0.1031 -0.9918 -0.1554
   77SLPC  C211 6995   0.242   1.024   7.448 -0.0745  0.0273 -0.3676
   77SLPC  H11R 6996   0.259   1.127   7.488  1.0556 -1.5124  3.5576
   77SLPC  H11S 6997   0.318   0.963   7.502  0.9978  2.2829  0.8306
   77SLPC  C212 6998   0.097   0.993   7.474  0.3606  0.4447 -0.8020
   77SLPC  H12R 6999   0.035   0.995   7.383  2.1053 -1.3293 -2.1075
   77SLPC  C213 7000   0.038   0.978   7.591 -0.1580  0.3399 -0.6245
   77SLPC  H13R 7001  -0.071   0.972   7.599 -0.0402 -0.8767  0.4974
   77SLPC  C214 7002   0.119   0.959   7.727  0.5137 -0.4378 -0.1782
   77SLPC  H14R 7003   0.226   0.985   7.713  0.5623 -0.0115  0.8857
   77SLPC  H14S 7004   0.116   0.854   7.764 -0.8919  0.0772  1.3236
   77SLPC  C215 7005   0.060   1.040   7.851  0.8326 -0.0267 -0.5012
   77SLPC  H15R 7006   0.068   1.150   7.837  0.9133  0.2583  1.5278
   77SLPC  H15S 7007   0.106   1.006   7.946 -3.6044 -0.6542  1.6780
   77SLPC  C216 7008  -0.094   1.004   7.874 -0.4158  0.0423 -0.1548
   77SLPC  H16R 7009  -0.152   1.028   7.782 -1.0147  0.2777  0.2787
   77SLPC  H16S 7010  -0.137   1.068   7.954 -0.1836 -0.0268  0.0241
   77SLPC  C217 7011  -0.114   0.852   7.919  0.0533 -0.2656 -0.2133
   77SLPC  H17R 7012  -0.066   0.785   7.845  1.2074  1.3078 -0.9609
   77SLPC  H17S 7013  -0.223   0.841   7.902  0.2685 -0.2226 -1.7556
   77SLPC  C218 7014  -0.064   0.830   8.059 -0.4861 -0.1587  0.3993
   77SLPC  H18R 7015  -0.124   0.900   8.121  0.1366  1.1080 -0.3788
   77SLPC  H18S 7016   0.044   0.852   8.072 -0.6318 -0.1502  1.6745
   77SLPC  H18T 7017  -0.079   0.725   8.093  0.3835 -0.1836  0.7398
   77SLPC   C33 7018   1.121   0.759   7.148 -0.2286  0.7219 -0.0786
   77SLPC   H3X 7019   1.067   0.827   7.079 -1.4100  0.9927  1.0714
   77SLPC   H3Y 7020   1.225   0.794   7.167  0.2962 -0.6428 -0.2846
   77SLPC   C34 7021   1.034   0.759   7.281  0.0000  0.1813 -0.4216
   77SLPC   H4X 7022   0.938   0.710   7.253  1.5251 -2.5728 -1.2581
   77SLPC   H4Y 7023   1.014   0.863   7.312 -1.1103 -0.4702  1.2173
   77SLPC   C35 7024   1.096   0.673   7.398  0.1255  0.0241  0.0773
   77SLPC   H5X 7025   1.197   0.712   7.421  1.0170 -1.8785 -0.3957
   77SLPC   H5Y 7026   1.116   0.574   7.351  0.8227 -0.1962  0.8215
   77SLPC   C36 7027   1.014   0.647   7.528  1.1231  0.7571 -0.7248
   77SLPC   H6X 7028   1.071   0.575   7.591 -0.6305 -0.6858 -0.6992
   77SLPC   H6Y 7029   0.918   0.593   7.514  1.5161 -1.2757  3.1349
   77SLPC   C37 7030   0.984   0.770   7.612  0.1570 -0.2127  0.0225
   77SLPC   H7X 7031   0.925   0.849   7.560 -0.2614  0.0077  0.8195
   77SLPC   H7Y 7032   1.085   0.814   7.629 -0.4290  1.4637 -0.6102
   77SLPC   C38 7033   0.920   0.745   7.751  0.5467 -0.0182  0.3224
   77SLPC   H8X 7034   0.821   0.697   7.740 -0.5591  2.2992 -0.6174
   77SLPC   H8Y 7035   0.904   0.848   7.790  1.3011 -0.4105  1.7147
   77SLPC   C39 7036   1.010   0.671   7.850  0.4355  0.3050  0.8640
   77SLPC   H9X 7037   1.104   0.723   7.877  1.1626 -1.0262  0.9502
   77SLPC   H9Y 7038   1.042   0.575   7.804 -3.3563 -1.0041  0.6252
   77SLPC  C310 7039   0.941   0.628   7.978 -0.1045  0.0402 -0.2250
   77SLPC  H10X 7040   0.918   0.728   8.022  0.8558 -0.5524  1.7434
   77SLPC  H10Y 7041   1.016   0.581   8.046  1.3243  1.5389 -0.7091
   77SLPC  C311 7042   0.825   0.538   7.964  0.1010 -0.3905  0.4559
   77SLPC  H11X 7043   0.859   0.443   7.918  2.1972  0.6102 -0.1905
   77SLPC  H11Y 7044   0.741   0.593   7.916 -0.1165  0.8995  2.1902
   77SLPC  C312 7045   0.756   0.484   8.099 -0.0012  0.2915 -0.4262
   77SLPC  H12X 7046   0.839   0.425   8.143  0.9008  1.2149 -0.8138
   77SLPC  H12Y 7047   0.674   0.416   8.068 -0.8587  0.6800  0.9095
   77SLPC  C313 7048   0.698   0.593   8.195  0.1273  0.4942  0.0544
   77SLPC  H13X 7049   0.605   0.635   8.151  0.5308  0.9632 -0.3707
   77SLPC  H13Y 7050   0.777   0.672   8.193  0.0646  0.6103 -3.0177
   77SLPC  C314 7051   0.685   0.543   8.335  0.0949 -0.1497  0.0932
   77SLPC  H14X 7052   0.781   0.500   8.372 -1.0951 -1.9278  1.2169
   77SLPC  H14Y 7053   0.611   0.463   8.356  0.6717 -0.5328  0.7265
   77SLPC  C315 7054   0.654   0.661   8.433 -1.0593  0.9508 -0.2245
   77SLPC  H15X 7055   0.570   0.727   8.402 -1.2961  0.9199  0.3416
   77SLPC  H15Y 7056   0.744   0.726   8.436 -1.0899  1.0974  3.9713
   77SLPC  C316 7057   0.620   0.614   8.579  0.6435  0.0540  0.2515
   77SLPC  H16X 7058   0.691   0.541   8.623  1.0819  0.9515  1.0517
   77SLPC  H16Y 7059   0.528   0.552   8.574  1.5841 -1.2795 -1.9012
   77SLPC  C317 7060   0.588   0.727   8.673  0.0216  0.3690 -0.2836
   77SLPC  H17X 7061   0.491   0.771   8.642 -1.2523  0.6149  3.5105
   77SLPC  H17Y 7062   0.664   0.807   8.660 -0.5180  0.7332 -1.2715
   77SLPC  C318 7063   0.581   0.694   8.822  0.3962  0.1346 -0.0558
   77SLPC  H18X 7064   0.544   0.780   8.882  1.1709 -0.1457  0.8519
   77SLPC  H18Y 7065   0.681   0.670   8.865 -0.0475 -1.0380  0.3677
   77SLPC  H18Z 7066   0.518   0.605   8.841  0.0257  0.7277  1.6798
   78SLPC     N 7067   1.597   4.964   5.809 -0.0360 -0.1192  0.9375
   78SLPC   C13 7068   1.736   5.013   5.830  0.6609 -0.6208 -0.2415
   78SLPC  H13A 7069   1.770   4.995   5.931  0.5634 -1.7196 -0.3937
   78SLPC  H13B 7070   1.792   4.952   5.762 -2.0744 -1.0882 -2.2281
   78SLPC  H13C 7071   1.744   5.121   5.823 -0.7736 -0.3127  1.7930
   78SLPC   C14 7072   1.623   4.817   5.799 -0.0991  0.1684 -0.1577
   78SLPC  H14A 7073   1.647   4.782   5.700  0.5136  1.0519 -0.3314
   78SLPC  H14B 7074   1.703   4.784   5.864 -0.0652  2.1010  0.8476
   78SLPC  H14C 7075   1.536   4.759   5.827  0.5787 -0.9768 -0.3830
   78SLPC   C15 7076   1.535   5.017   5.683  0.6845  0.3880 -0.2172
   78SLPC  H15A 7077   1.596   5.003   5.595  3.5049  1.1800  1.4862
   78SLPC  H15B 7078   1.451   4.952   5.665  0.6722  0.2278  0.4044
   78SLPC  H15C 7079   1.501   5.120   5.681  0.6380  0.3658 -0.8563
   78SLPC   C12 7080   1.517   4.998   5.929  0.8405  0.2632  0.0313
   78SLPC  H12A 7081   1.427   4.940   5.916  0.4246  0.7596  0.6429
   78SLPC  H12B 7082   1.474   5.097   5.934  1.7782  0.6990 -0.2674
   78SLPC   C11 7083   1.556   4.952   6.073  0.6175 -1.3547 -0.0291
   78SLPC  H11A 7084   1.586   4.846   6.059  1.2148 -1.2241  0.2229
   78SLPC  H11B 7085   1.469   4.971   6.138 -0.0447 -0.0635 -1.2332
   78SLPC     P 7086   1.653   5.184   6.139  0.5884 -0.1207  0.3827
   78SLPC   O13 7087   1.760   5.251   6.069 -0.4970  0.1508  0.4039
   78SLPC   O14 7088   1.513   5.223   6.109  0.2509 -0.0038  0.2030
   78SLPC   O12 7089   1.671   5.026   6.118  0.2541 -0.0130  0.0378
   78SLPC   O11 7090   1.687   5.201   6.290  0.2625  0.6920  0.5528
   78SLPC    C1 7091   1.645   5.094   6.385 -0.2969 -0.1238 -0.0813
   78SLPC    HA 7092   1.588   5.011   6.338 -1.0141 -0.0876  0.7061
   78SLPC    HB 7093   1.733   5.049   6.434  0.4726  0.5415 -0.8200
   78SLPC    C2 7094   1.548   5.144   6.500  0.1925 -0.6121 -0.5142
   78SLPC    HS 7095   1.479   5.211   6.446  0.1580  0.1733  0.4733
   78SLPC   O21 7096   1.634   5.212   6.597  0.9844  0.7662  0.5985
   78SLPC   C21 7097   1.565   5.291   6.678  0.2598 -0.3910  0.0587
   78SLPC   O22 7098   1.445   5.306   6.676  0.0525 -0.4195  0.2673
   78SLPC   C22 7099   1.664   5.332   6.789  0.3299  1.1351 -0.7807
   78SLPC   H2R 7100   1.745   5.399   6.754  1.4765  1.7852  2.6703
   78SLPC   H2S 7101   1.601   5.393   6.858  1.5240  0.3260  1.1109
   78SLPC    C3 7102   1.475   5.021   6.564 -0.5394 -0.6366 -0.4675
   78SLPC    HX 7103   1.412   4.975   6.485  1.3326  0.0458 -2.4535
   78SLPC    HY 7104   1.407   5.048   6.647  0.3620 -0.5575  0.2551
   78SLPC   O31 7105   1.576   4.925   6.620  0.1122  0.1567 -0.0638
   78SLPC   C31 7106   1.542   4.793   6.605 -0.3165 -0.3734  0.4130
   78SLPC   O32 7107   1.436   4.758   6.559  0.7845 -0.0055 -0.1555
   78SLPC   C32 7108   1.658   4.712   6.648  0.7348  0.2163 -0.4805
   78SLPC   H2X 7109   1.734   4.783   6.687 -0.3946  0.9362  0.5042
   78SLPC   H2Y 7110   1.697   4.658   6.559  0.2402  1.4227 -1.4646
   78SLPC   C23 7111   1.712   5.211   6.884  0.3248 -0.1568  0.0569
   78SLPC   H3R 7112   1.809   5.172   6.847 -0.2996 -0.8413 -0.9187
   78SLPC   H3S 7113   1.646   5.126   6.854 -1.2687  1.1185 -0.2433
   78SLPC   C24 7114   1.712   5.246   7.033 -0.0160  0.0452  0.2222
   78SLPC   H4R 7115   1.735   5.150   7.084  0.0348  0.4167  0.9111
   78SLPC   H4S 7116   1.614   5.284   7.069  0.4856  0.6058  1.0556
   78SLPC   C25 7117   1.815   5.355   7.072 -0.3580  0.4307  0.8141
   78SLPC   H5R 7118   1.772   5.450   7.035 -2.0297 -1.0118 -1.2260
   78SLPC   H5S 7119   1.910   5.334   7.018 -1.6566 -2.3076 -0.6609
   78SLPC   C26 7120   1.830   5.367   7.222 -0.0238  0.0893 -0.2347
   78SLPC   H6R 7121   1.874   5.277   7.270  1.9385  0.7236 -0.7483
   78SLPC   H6S 7122   1.725   5.376   7.256 -0.7096  1.0578 -2.4518
   78SLPC   C27 7123   1.915   5.484   7.262  0.0943 -0.3880 -0.0041
   78SLPC   H7R 7124   1.872   5.573   7.210  0.3696  0.1060  0.6035
   78SLPC   H7S 7125   2.020   5.472   7.228  0.2884 -0.6944  0.6799
   78SLPC   C28 7126   1.934   5.512   7.418  0.1120 -0.1651  0.3058
   78SLPC   H8R 7127   2.007   5.595   7.422 -0.9162  1.1440 -3.5956
   78SLPC   H8S 7128   1.975   5.424   7.473 -1.4265 -1.9258 -1.2417
   78SLPC   C29 7129   1.804   5.556   7.481 -0.2981 -0.3161 -0.3148
   78SLPC   H9R 7130   1.744   5.479   7.532  1.1569 -0.9773  0.4924
   78SLPC  C210 7131   1.770   5.689   7.471  0.3366 -0.0853  0.0863
   78SLPC  H10R 7132   1.682   5.731   7.522  1.2362  3.2890 -0.8755
   78SLPC  C211 7133   1.842   5.803   7.402 -0.3796  0.5460 -0.6820
   78SLPC  H11R 7134   1.919   5.768   7.330 -2.6556  1.4578 -3.7647
   78SLPC  H11S 7135   1.888   5.861   7.486  0.4689  0.8000 -1.3145
   78SLPC  C212 7136   1.746   5.901   7.324 -0.2495  0.4894 -0.9590
   78SLPC  H12R 7137   1.762   6.003   7.362  0.5400 -0.2763  0.8750
   78SLPC  C213 7138   1.665   5.878   7.216 -0.4208  0.1812  1.1193
   78SLPC  H13R 7139   1.610   5.962   7.172  0.5738 -0.5516 -1.7833
   78SLPC  C214 7140   1.636   5.743   7.152 -0.3912 -0.2939  0.4326
   78SLPC  H14R 7141   1.526   5.732   7.146 -0.6678  1.8333  0.8765
   78SLPC  H14S 7142   1.683   5.664   7.214 -0.1828 -0.3828  0.1607
   78SLPC  C215 7143   1.687   5.735   7.006 -0.0630  0.0052 -0.2658
   78SLPC  H15R 7144   1.621   5.805   6.951 -0.8472  0.6414  1.4354
   78SLPC  H15S 7145   1.665   5.637   6.958  0.2777  0.8509 -2.2567
   78SLPC  C216 7146   1.830   5.786   6.972  0.1047  0.6889 -0.0106
   78SLPC  H16R 7147   1.902   5.735   7.039  0.9700  2.0291  0.1336
   78SLPC  H16S 7148   1.831   5.895   6.993 -0.1518  1.6076 -3.9273
   78SLPC  C217 7149   1.874   5.785   6.820 -0.1306  0.5933 -1.2485
   78SLPC  H17R 7150   1.977   5.827   6.820 -0.2421  0.8641 -1.0965
   78SLPC  H17S 7151   1.808   5.823   6.739  0.8113 -0.1360 -2.3913
   78SLPC  C218 7152   1.894   5.645   6.765 -0.1068  0.0492  0.2926
   78SLPC  H18R 7153   1.944   5.649   6.665 -1.9074 -0.9013 -0.6865
   78SLPC  H18S 7154   1.791   5.606   6.755  0.8244 -3.8541  3.4216
   78SLPC  H18T 7155   1.949   5.574   6.830  0.8598  0.0640 -0.4796
   78SLPC   C33 7156   1.619   4.605   6.753  0.2582 -0.2168  0.5422
   78SLPC   H3X 7157   1.713   4.551   6.776  1.3159  0.4130 -1.9658
   78SLPC   H3Y 7158   1.554   4.527   6.706 -0.4603  1.0353 -0.6249
   78SLPC   C34 7159   1.589   4.679   6.888 -0.4860  0.5742 -0.3493
   78SLPC   H4X 7160   1.496   4.738   6.875 -1.2067 -1.0152 -3.0488
   78SLPC   H4Y 7161   1.679   4.743   6.906  2.3083 -3.0748 -0.2089
   78SLPC   C35 7162   1.592   4.582   7.011  0.2102  0.5140  0.5694
   78SLPC   H5X 7163   1.691   4.534   7.016 -0.8447 -1.9085 -0.4076
   78SLPC   H5Y 7164   1.527   4.494   6.991  1.1515 -0.3500  1.2132
   78SLPC   C36 7165   1.551   4.646   7.143 -0.5820  0.5281  0.2053
   78SLPC   H6X 7166   1.451   4.693   7.130  0.1021  2.2365  0.8510
   78SLPC   H6Y 7167   1.616   4.735   7.156 -1.8669  1.8547 -1.9003
   78SLPC   C37 7168   1.560   4.543   7.249 -0.2841 -0.3219 -0.0704
   78SLPC   H7X 7169   1.658   4.495   7.269 -1.3376 -1.2949  3.5504
   78SLPC   H7Y 7170   1.478   4.473   7.223 -1.6896  1.3333 -0.2611
   78SLPC   C38 7171   1.536   4.600   7.386 -0.9112  0.5478  0.3401
   78SLPC   H8X 7172   1.431   4.633   7.375 -0.7988  0.3298 -1.6853
   78SLPC   H8Y 7173   1.605   4.679   7.423  0.8063 -0.3667 -0.7720
   78SLPC   C39 7174   1.540   4.503   7.496  0.9673 -0.2735 -0.4451
   78SLPC   H9X 7175   1.641   4.466   7.521  0.8479  0.9401  2.0889
   78SLPC   H9Y 7176   1.483   4.416   7.456 -0.9759  1.2031 -1.0566
   78SLPC  C310 7177   1.471   4.540   7.638  0.2247 -0.4870  1.0025
   78SLPC  H10X 7178   1.477   4.448   7.699  0.2186 -0.6302  0.7895
   78SLPC  H10Y 7179   1.362   4.555   7.620  0.6683  0.2411 -1.4678
   78SLPC  C311 7180   1.530   4.657   7.709  0.4437 -0.9432  0.0330
   78SLPC  H11X 7181   1.551   4.736   7.634 -0.7794 -1.2798 -0.6937
   78SLPC  H11Y 7182   1.626   4.625   7.756  0.5547  0.0055  0.4958
   78SLPC  C312 7183   1.432   4.721   7.811 -0.9746  0.5383 -0.0596
   78SLPC  H12X 7184   1.381   4.641   7.870 -0.3017  1.2600  1.5742
   78SLPC  H12Y 7185   1.348   4.766   7.753 -2.2702 -0.5692  0.8635
   78SLPC  C313 7186   1.506   4.827   7.900 -0.0915 -0.2778  0.0140
   78SLPC  H13X 7187   1.541   4.905   7.829 -3.2842  1.6416  0.3382
   78SLPC  H13Y 7188   1.592   4.771   7.942 -0.9855 -1.1753  0.6845
   78SLPC  C314 7189   1.427   4.888   8.023 -0.0764 -0.7675 -0.1321
   78SLPC  H14X 7190   1.352   4.957   7.978 -1.2344 -3.0719 -1.9662
   78SLPC  H14Y 7191   1.498   4.940   8.091 -1.3070  1.2153 -0.2642
   78SLPC  C315 7192   1.342   4.785   8.095 -0.2281 -0.2866  0.9365
   78SLPC  H15X 7193   1.408   4.702   8.131 -0.9488 -1.8520 -1.1494
   78SLPC  H15Y 7194   1.279   4.745   8.013 -1.4607  3.2323  0.0106
   78SLPC  C316 7195   1.235   4.821   8.200 -0.3947  0.2854  0.7579
   78SLPC  H16X 7196   1.173   4.729   8.211  0.1149 -0.1324  0.1823
   78SLPC  H16Y 7197   1.157   4.884   8.153  0.6966  0.9303 -0.2196
   78SLPC  C317 7198   1.285   4.881   8.332 -0.1668  0.0117 -0.3454
   78SLPC  H17X 7199   1.326   4.978   8.298  0.3347 -0.5713 -1.4758
   78SLPC  H17Y 7200   1.368   4.816   8.369 -0.0121 -0.7674 -1.9428
   78SLPC  C318 7201   1.185   4.891   8.445  0.6836 -0.1083  1.0183
   78SLPC  H18X 7202   1.092   4.940   8.408  0.7829 -0.2296  0.5977
   78SLPC  H18Y 7203   1.229   4.949   8.528  0.4441 -0.7750  1.6290
   78SLPC  H18Z 7204   1.167   4.786   8.479 -0.9549 -0.3181 -0.2976
   79SLPC     N 7205   0.724   2.093   6.256 -0.5616  0.1937  0.0288
   79SLPC   C13 7206   0.616   2.072   6.162 -0.3779 -0.1772 -0.2803
   79SLPC  H13A 7207   0.566   2.164   6.137 -0.2361  0.4099  1.4759
   79SLPC  H13B 7208   0.639   2.027   6.066 -2.7568  0.4392 -1.1955
   79SLPC  H13C 7209   0.543   2.007   6.207 -0.1239  0.0858  0.5252
   79SLPC   C14 7210   0.814   2.192   6.193 -0.5614  0.3400  0.1887
   79SLPC  H14A 7211   0.833   2.161   6.091 -0.0470  1.1375  0.0359
   79SLPC  H14B 7212   0.784   2.296   6.193  1.6022  1.0601 -1.4810
   79SLPC  H14C 7213   0.903   2.206   6.254  0.8263 -0.1508 -1.6203
   79SLPC   C15 7214   0.812   1.968   6.270 -0.7752  0.5468  0.0571
   79SLPC  H15A 7215   0.898   1.982   6.334 -0.6235 -0.4436  0.0788
   79SLPC  H15B 7216   0.756   1.894   6.325  0.7594  0.3833  1.4727
   79SLPC  H15C 7217   0.845   1.923   6.178 -0.2197 -1.6518  1.2750
   79SLPC   C12 7218   0.671   2.137   6.394 -0.7692  0.4323  0.1190
   79SLPC  H12A 7219   0.602   2.219   6.385  0.0506  1.1486  0.3015
   79SLPC  H12B 7220   0.753   2.180   6.449  1.3784 -1.5132 -1.3571
   79SLPC   C11 7221   0.596   2.021   6.477  0.2180 -1.1858  0.5642
   79SLPC  H11A 7222   0.546   2.072   6.562 -0.0024  0.3611 -0.4378
   79SLPC  H11B 7223   0.675   1.948   6.504 -0.2113 -1.1170  2.0800
   79SLPC     P 7224   0.425   1.827   6.419  0.0699  0.4562 -0.2714
   79SLPC   O13 7225   0.286   1.830   6.366  0.3330  0.4483  0.0181
   79SLPC   O14 7226   0.518   1.724   6.362  0.6095 -0.2888  0.2777
   79SLPC   O12 7227   0.492   1.966   6.396  0.3447 -0.4468 -0.4118
   79SLPC   O11 7228   0.417   1.808   6.573 -0.3039  0.1217 -0.0191
   79SLPC    C1 7229   0.354   1.911   6.656  0.1983  0.0217  0.1781
   79SLPC    HA 7230   0.431   1.978   6.700 -0.2908  0.8845 -0.2473
   79SLPC    HB 7231   0.281   1.976   6.602 -3.2215 -1.7858  2.2534
   79SLPC    C2 7232   0.269   1.856   6.780  0.0530 -0.1603  0.1050
   79SLPC    HS 7233   0.188   1.932   6.789 -0.2000 -0.6319  2.8165
   79SLPC   O21 7234   0.354   1.845   6.900 -0.2824  0.4121  0.0083
   79SLPC   C21 7235   0.386   1.961   6.957 -0.1906  0.2293  0.4671
   79SLPC   O22 7236   0.346   2.067   6.919  0.4392 -0.2688  0.0872
   79SLPC   C22 7237   0.483   1.940   7.079 -0.5302 -0.3309 -0.7958
   79SLPC   H2R 7238   0.581   1.902   7.042  1.0362  0.9340  1.7374
   79SLPC   H2S 7239   0.501   2.042   7.119 -1.6787 -0.6527  0.6250
   79SLPC    C3 7240   0.201   1.722   6.746 -0.2888  0.9462  0.1262
   79SLPC    HX 7241   0.273   1.637   6.741 -0.8390  0.4295  0.7908
   79SLPC    HY 7242   0.160   1.721   6.643 -1.3231 -0.7484  0.5079
   79SLPC   O31 7243   0.106   1.693   6.852  0.6718  0.0099  0.4620
   79SLPC   C31 7244  -0.021   1.739   6.837 -0.3052 -0.0596 -0.9311
   79SLPC   O32 7245  -0.063   1.793   6.737  0.0272 -0.4018 -0.1583
   79SLPC   C32 7246  -0.100   1.718   6.966 -0.6172 -0.3239 -0.5286
   79SLPC   H2X 7247  -0.140   1.615   6.969 -0.3394 -0.4802 -1.7244
   79SLPC   H2Y 7248  -0.185   1.791   6.972  1.2343  2.3000 -3.4074
   79SLPC   C23 7249   0.433   1.853   7.200  0.2513  0.5973  0.2884
   79SLPC   H3R 7250   0.460   1.748   7.179  2.8265  0.5864  3.0105
   79SLPC   H3S 7251   0.322   1.860   7.202  0.2272  0.8448 -1.0666
   79SLPC   C24 7252   0.484   1.908   7.333 -0.8906  0.3532 -0.1653
   79SLPC   H4R 7253   0.452   2.013   7.345 -0.4240  0.4392  0.3494
   79SLPC   H4S 7254   0.594   1.902   7.344 -0.8543  0.3754 -0.5106
   79SLPC   C25 7255   0.422   1.840   7.457  0.7163 -0.1686  0.2332
   79SLPC   H5R 7256   0.454   1.735   7.474  2.1786  0.0272 -1.1072
   79SLPC   H5S 7257   0.312   1.853   7.448  0.3891 -2.5782 -0.0738
   79SLPC   C26 7258   0.472   1.917   7.589 -0.2399  0.2911  0.4288
   79SLPC   H6R 7259   0.429   2.018   7.572 -1.5282 -0.2584  0.2448
   79SLPC   H6S 7260   0.582   1.919   7.596 -0.2122 -1.2486  0.8160
   79SLPC   C27 7261   0.419   1.868   7.727  0.7432  0.4961  0.3711
   79SLPC   H7R 7262   0.475   1.777   7.758 -1.4953 -1.1053 -0.0884
   79SLPC   H7S 7263   0.313   1.843   7.706  0.8747 -1.3062  1.6528
   79SLPC   C28 7264   0.433   1.971   7.845  0.3629  0.1086 -0.6489
   79SLPC   H8R 7265   0.370   2.063   7.843 -3.0201 -1.9602  0.5795
   79SLPC   H8S 7266   0.541   1.993   7.848  0.1068  1.3973  0.9597
   79SLPC   C29 7267   0.407   1.904   7.979 -0.7505 -0.2921  0.1928
   79SLPC   H9R 7268   0.298   1.897   7.991 -0.9816 -3.8421 -2.2507
   79SLPC  C210 7269   0.495   1.863   8.063 -0.0563 -0.5244  0.2898
   79SLPC  H10R 7270   0.451   1.833   8.159 -1.1524  0.0815 -0.0111
   79SLPC  C211 7271   0.648   1.858   8.059 -0.2049  1.0132  0.2080
   79SLPC  H11R 7272   0.685   1.797   7.974  1.5206  0.2773  1.4327
   79SLPC  H11S 7273   0.685   1.785   8.134  0.6574  0.4843 -0.6966
   79SLPC  C212 7274   0.719   1.990   8.074 -0.2895  0.0802 -0.4791
   79SLPC  H12R 7275   0.750   2.037   7.979 -2.5456  1.0850 -0.7912
   79SLPC  C213 7276   0.733   2.055   8.188  0.4107 -0.5739  0.7560
   79SLPC  H13R 7277   0.804   2.139   8.189  1.6041 -1.5546  0.4235
   79SLPC  C214 7278   0.686   2.026   8.330 -0.3952 -0.0428 -0.0172
   79SLPC  H14R 7279   0.603   1.952   8.335 -0.8288  0.4022 -0.5344
   79SLPC  H14S 7280   0.648   2.123   8.368 -2.0557 -1.2013  1.3748
   79SLPC  C215 7281   0.801   1.986   8.427 -0.3571  0.3556  0.2285
   79SLPC  H15R 7282   0.858   1.896   8.396  0.8330  2.1266 -3.1527
   79SLPC  H15S 7283   0.746   1.964   8.521 -2.5537  1.4915 -0.7166
   79SLPC  C216 7284   0.904   2.102   8.446 -0.2640  0.0381 -0.3070
   79SLPC  H16R 7285   0.851   2.195   8.477 -0.0932  0.6735 -1.8214
   79SLPC  H16S 7286   0.948   2.126   8.346  1.7540 -2.5509 -0.1428
   79SLPC  C217 7287   1.006   2.062   8.551 -0.4518  0.2615 -0.4234
   79SLPC  H17R 7288   1.082   2.144   8.558  1.1261 -1.1306 -0.5951
   79SLPC  H17S 7289   1.063   1.974   8.514 -0.8712  0.6824 -2.1651
   79SLPC  C218 7290   0.936   2.045   8.682  0.0404  0.7003  0.0867
   79SLPC  H18R 7291   0.998   2.082   8.766 -0.9572  0.7412  0.8165
   79SLPC  H18S 7292   0.903   1.940   8.693 -0.1816  0.5545 -1.6359
   79SLPC  H18T 7293   0.850   2.115   8.690 -0.2553  0.3669 -0.1719
   79SLPC   C33 7294  -0.006   1.733   7.089 -0.4492 -0.2155 -0.2909
   79SLPC   H3X 7295   0.049   1.830   7.089 -1.4449  0.3775 -1.5920
   79SLPC   H3Y 7296   0.061   1.646   7.076 -1.1263 -0.8140  0.1628
   79SLPC   C34 7297  -0.084   1.730   7.219 -0.2750 -0.3058  0.5555
   79SLPC   H4X 7298  -0.153   1.645   7.230  0.2359 -1.3771 -3.1613
   79SLPC   H4Y 7299  -0.146   1.822   7.227  0.5101  0.2193  0.7480
   79SLPC   C35 7300   0.021   1.718   7.335  0.1469  0.3736  0.4846
   79SLPC   H5X 7301   0.114   1.775   7.315 -0.0409  0.4594 -0.1616
   79SLPC   H5Y 7302   0.050   1.611   7.341 -3.1834 -0.6045  1.3407
   79SLPC   C36 7303  -0.043   1.763   7.461  0.4148  0.5528 -0.0906
   79SLPC   H6X 7304  -0.139   1.711   7.480  0.4596  0.4163 -0.2387
   79SLPC   H6Y 7305  -0.060   1.873   7.459  1.5666  0.7634 -2.5025
   79SLPC   C37 7306   0.042   1.743   7.587  0.0091 -0.0849 -0.6265
   79SLPC   H7X 7307   0.148   1.776   7.580 -0.4369  1.3415 -1.0853
   79SLPC   H7Y 7308   0.048   1.637   7.617  0.7630  0.2965  0.6222
   79SLPC   C38 7309  -0.007   1.821   7.710  0.4403  0.0465  0.2477
   79SLPC   H8X 7310  -0.118   1.813   7.706  0.3940  1.1452 -3.0100
   79SLPC   H8Y 7311   0.016   1.929   7.719  0.5933 -0.0330  0.9017
   79SLPC   C39 7312   0.051   1.762   7.839  0.2313  0.1539  0.1034
   79SLPC   H9X 7313   0.157   1.793   7.853  0.3193  0.1453 -0.4986
   79SLPC   H9Y 7314   0.035   1.652   7.835  1.9189 -0.1882  1.3337
   79SLPC  C310 7315  -0.019   1.816   7.968  0.3296 -0.0164 -0.2077
   79SLPC  H10X 7316  -0.125   1.781   7.964 -0.4110  1.9209  0.7361
   79SLPC  H10Y 7317  -0.016   1.927   7.977 -1.9351  0.1184 -0.3800
   79SLPC  C311 7318   0.043   1.756   8.100  0.1218 -0.0380  0.5386
   79SLPC  H11X 7319   0.151   1.781   8.108  1.1613 -3.3362 -1.0369
   79SLPC  H11Y 7320   0.031   1.647   8.082 -1.0906  0.3176 -0.9685
   79SLPC  C312 7321  -0.024   1.811   8.230 -0.1164 -0.3270  0.1834
   79SLPC  H12X 7322  -0.117   1.756   8.258 -0.2992 -0.9033 -1.4441
   79SLPC  H12Y 7323  -0.048   1.919   8.227  1.5945  0.1473  1.8303
   79SLPC  C313 7324   0.079   1.795   8.345  0.2423 -0.8966 -0.4557
   79SLPC  H13X 7325   0.160   1.866   8.316 -0.9556 -0.2680 -2.5407
   79SLPC  H13Y 7326   0.114   1.691   8.357  2.4217 -0.2304 -0.6306
   79SLPC  C314 7327   0.018   1.836   8.481 -0.2317 -0.1891  0.0108
   79SLPC  H14X 7328  -0.069   1.773   8.508 -0.4611  0.2950  0.4187
   79SLPC  H14Y 7329  -0.024   1.938   8.478 -2.7637 -1.0645  1.7537
   79SLPC  C315 7330   0.120   1.825   8.596  0.0002  0.0231 -0.1008
   79SLPC  H15X 7331   0.170   1.726   8.588  2.5913  1.3762 -3.6634
   79SLPC  H15Y 7332   0.075   1.831   8.697  3.6571  1.4532  1.6501
   79SLPC  C316 7333   0.232   1.929   8.605  0.0127  0.1864 -0.0391
   79SLPC  H16X 7334   0.186   2.020   8.648 -0.0175  1.4150 -2.4725
   79SLPC  H16Y 7335   0.276   1.956   8.506  0.2323  2.9289  0.7343
   79SLPC  C317 7336   0.340   1.881   8.707  1.1071  0.1502 -0.1833
   79SLPC  H17X 7337   0.380   1.784   8.670  3.7770  0.2992  2.0196
   79SLPC  H17Y 7338   0.298   1.853   8.806 -0.9553 -0.9774 -1.2979
   79SLPC  C318 7339   0.460   1.968   8.727  0.3657 -0.6122  0.8920
   79SLPC  H18X 7340   0.428   2.059   8.783  0.9562  0.1239  0.0513
   79SLPC  H18Y 7341   0.499   1.997   8.627  0.1184 -2.7734  0.1082
   79SLPC  H18Z 7342   0.550   1.927   8.778  2.0635  2.5824  0.7558
   80SLPC     N 7343   1.392   1.189   6.263 -0.1929 -0.0729  0.1367
   80SLPC   C13 7344   1.315   1.158   6.139 -0.7102 -0.3031 -0.6390
   80SLPC  H13A 7345   1.228   1.216   6.113 -0.0537 -0.4150 -3.4274
   80SLPC  H13B 7346   1.385   1.164   6.057 -1.0248 -0.0923 -0.8941
   80SLPC  H13C 7347   1.273   1.058   6.145 -0.9776 -0.3792 -2.9314
   80SLPC   C14 7348   1.441   1.334   6.242  0.9053 -0.1087 -0.1272
   80SLPC  H14A 7349   1.366   1.412   6.241 -0.4049 -1.3166 -1.0801
   80SLPC  H14B 7350   1.512   1.363   6.318 -1.3958  2.3339  1.2923
   80SLPC  H14C 7351   1.496   1.348   6.150  0.4614 -1.3786 -0.6111
   80SLPC   C15 7352   1.517   1.114   6.283  0.1807 -0.1988 -1.1585
   80SLPC  H15A 7353   1.563   1.146   6.375 -1.7751 -0.5534  0.0118
   80SLPC  H15B 7354   1.490   1.012   6.307 -0.9673  0.7577  2.2695
   80SLPC  H15C 7355   1.585   1.133   6.201  0.7923 -0.9293 -0.8282
   80SLPC   C12 7356   1.312   1.187   6.391 -0.1922  0.1178 -0.3600
   80SLPC  H12A 7357   1.372   1.223   6.474  3.0644 -1.7860 -1.7131
   80SLPC  H12B 7358   1.280   1.087   6.418 -1.9957  0.7266 -0.0813
   80SLPC   C11 7359   1.177   1.266   6.394  0.3158  0.8474 -0.2496
   80SLPC  H11A 7360   1.191   1.375   6.377  0.6970  0.5713 -1.9108
   80SLPC  H11B 7361   1.139   1.270   6.498  2.3495 -0.0176  0.5697
   80SLPC     P 7362   1.000   1.074   6.336  0.0876 -0.3284  0.3873
   80SLPC   O13 7363   0.932   1.038   6.213  0.2712 -0.1842 -0.4762
   80SLPC   O14 7364   1.102   0.974   6.386 -0.1554 -0.5157  0.5626
   80SLPC   O12 7365   1.079   1.212   6.301  0.4363  0.0496 -0.4960
   80SLPC   O11 7366   0.891   1.110   6.448 -0.0585  0.0314 -0.6070
   80SLPC    C1 7367   0.827   1.240   6.460 -0.5477  0.0212  0.0651
   80SLPC    HA 7368   0.899   1.317   6.424 -0.5966 -1.7328 -4.3641
   80SLPC    HB 7369   0.745   1.241   6.385 -0.0057  1.9412 -0.5605
   80SLPC    C2 7370   0.781   1.282   6.606 -0.4751  0.0317 -0.7735
   80SLPC    HS 7371   0.752   1.390   6.604 -0.1539  0.1163 -0.9487
   80SLPC   O21 7372   0.883   1.249   6.700 -0.5890 -0.1043  0.3725
   80SLPC   C21 7373   0.989   1.323   6.706  0.4788 -1.1438 -0.2905
   80SLPC   O22 7374   1.000   1.428   6.642  0.0314 -0.0576  0.2907
   80SLPC   C22 7375   1.094   1.255   6.791  0.6018 -0.4036  0.0077
   80SLPC   H2R 7376   1.163   1.198   6.724  1.0009  0.6706 -0.5101
   80SLPC   H2S 7377   1.147   1.334   6.849  1.3501 -1.2864  0.5689
   80SLPC    C3 7378   0.669   1.188   6.652  0.9145 -0.4215  0.2621
   80SLPC    HX 7379   0.707   1.084   6.651  0.0220 -0.7598  0.5444
   80SLPC    HY 7380   0.587   1.195   6.577  0.7741  1.5859  0.5357
   80SLPC   O31 7381   0.616   1.221   6.784  0.1257 -0.1861  0.1965
   80SLPC   C31 7382   0.538   1.327   6.797  0.7028  0.4612 -0.6633
   80SLPC   O32 7383   0.499   1.403   6.710 -0.6579  0.4525 -0.4980
   80SLPC   C32 7384   0.501   1.335   6.949 -0.1689 -0.0812 -0.3677
   80SLPC   H2X 7385   0.587   1.332   7.018 -0.6968 -0.3232  0.2869
   80SLPC   H2Y 7386   0.435   1.248   6.969  0.5086 -0.6159 -0.4155
   80SLPC   C23 7387   1.052   1.157   6.904  0.0152 -0.4763 -0.1379
   80SLPC   H3R 7388   1.148   1.132   6.955  0.4361  1.4468  0.0940
   80SLPC   H3S 7389   1.004   1.063   6.870  0.5762 -1.0587  0.6394
   80SLPC   C24 7390   0.969   1.215   7.020 -0.2479 -0.3823 -0.5785
   80SLPC   H4R 7391   0.864   1.231   6.988 -0.7949  0.8669  1.6201
   80SLPC   H4S 7392   1.006   1.314   7.057  0.3027 -0.4412 -0.9524
   80SLPC   C25 7393   0.949   1.123   7.143  0.6777  0.0755  0.2556
   80SLPC   H5R 7394   1.047   1.093   7.186  0.0204  0.6881  2.2610
   80SLPC   H5S 7395   0.901   1.032   7.101  2.8040 -0.9272 -0.1648
   80SLPC   C26 7396   0.861   1.189   7.253  0.0274 -0.1366  0.0098
   80SLPC   H6R 7397   0.758   1.203   7.214  0.9936  3.4276 -1.6922
   80SLPC   H6S 7398   0.897   1.291   7.281 -3.2059  0.6180  1.8603
   80SLPC   C27 7399   0.879   1.108   7.379 -0.3353  0.1763 -0.8005
   80SLPC   H7R 7400   0.980   1.061   7.388 -0.9961 -0.8766  4.1928
   80SLPC   H7S 7401   0.814   1.019   7.394 -1.9108  1.4455  0.2101
   80SLPC   C28 7402   0.849   1.183   7.511  0.2813  0.1272 -0.2490
   80SLPC   H8R 7403   0.925   1.265   7.511  0.5360 -0.1075  0.2282
   80SLPC   H8S 7404   0.889   1.117   7.591  1.5503  1.2595  0.0924
   80SLPC   C29 7405   0.713   1.215   7.552  0.5825 -0.7001 -1.0602
   80SLPC   H9R 7406   0.679   1.314   7.520  1.0646 -0.8483 -2.0815
   80SLPC  C210 7407   0.640   1.134   7.630 -0.9826 -0.5080 -0.1638
   80SLPC  H10R 7408   0.538   1.164   7.659 -0.9171 -0.2153 -0.2277
   80SLPC  C211 7409   0.676   0.999   7.677 -1.4896  0.1981  0.0412
   80SLPC  H11R 7410   0.725   1.015   7.775 -1.9363 -1.3182  0.5320
   80SLPC  H11S 7411   0.751   0.951   7.610 -3.3746 -1.7612 -0.7593
   80SLPC  C212 7412   0.559   0.919   7.688  0.8819  0.3948 -0.0484
   80SLPC  H12R 7413   0.507   0.893   7.594  1.6122  0.3233 -0.4382
   80SLPC  C213 7414   0.496   0.885   7.800 -0.1554 -0.2359  0.2858
   80SLPC  H13R 7415   0.400   0.832   7.792 -0.9720  1.0771  0.9652
   80SLPC  C214 7416   0.539   0.919   7.938 -0.9081 -0.1742  0.5180
   80SLPC  H14R 7417   0.614   1.001   7.929  0.3523 -1.4157 -0.9301
   80SLPC  H14S 7418   0.582   0.830   7.988 -1.9558  0.3812  2.5100
   80SLPC  C215 7419   0.426   0.974   8.022 -0.0351 -0.4601 -0.2929
   80SLPC  H15R 7420   0.354   0.892   8.043  0.4338 -0.5127  1.2640
   80SLPC  H15S 7421   0.371   1.065   7.990  0.9825  0.6521  1.0204
   80SLPC  C216 7422   0.481   0.990   8.163 -0.3662 -0.9611 -0.1930
   80SLPC  H16R 7423   0.554   1.074   8.160  2.3657 -3.2136  0.0983
   80SLPC  H16S 7424   0.531   0.900   8.202  0.4805 -1.4006 -2.1512
   80SLPC  C217 7425   0.372   1.035   8.257 -0.3471 -0.3994  0.0784
   80SLPC  H17R 7426   0.280   0.978   8.233 -0.6559 -0.1651  0.6877
   80SLPC  H17S 7427   0.334   1.136   8.233  0.5317 -0.6105 -2.5248
   80SLPC  C218 7428   0.404   1.042   8.406  0.1558  0.2702  0.0051
   80SLPC  H18R 7429   0.495   1.102   8.427 -0.7875  1.5906  0.4929
   80SLPC  H18S 7430   0.433   0.947   8.457 -1.2753 -0.6846 -0.8774
   80SLPC  H18T 7431   0.319   1.078   8.468  1.5169  1.4063  1.2697
   80SLPC   C33 7432   0.438   1.475   6.977  1.1922 -0.9690 -0.4262
   80SLPC   H3X 7433   0.363   1.500   6.899  2.6550 -0.7459 -1.8304
   80SLPC   H3Y 7434   0.516   1.554   6.988 -0.7671  1.0806 -0.5750
   80SLPC   C34 7435   0.361   1.498   7.107 -0.0309 -0.5725  1.3691
   80SLPC   H4X 7436   0.270   1.437   7.090 -1.3296  1.7555 -0.6925
   80SLPC   H4Y 7437   0.335   1.605   7.120  0.0746 -0.2151 -0.8861
   80SLPC   C35 7438   0.438   1.458   7.227 -0.6700  1.5843 -0.3688
   80SLPC   H5X 7439   0.532   1.514   7.244 -0.1464  0.2762  1.3189
   80SLPC   H5Y 7440   0.461   1.350   7.216 -0.1491  1.7466 -0.8883
   80SLPC   C36 7441   0.352   1.483   7.354 -0.0797 -0.5658  0.1576
   80SLPC   H6X 7442   0.252   1.442   7.327  0.6009 -2.7974  0.8643
   80SLPC   H6Y 7443   0.334   1.589   7.381  0.3141 -0.0565 -1.4505
   80SLPC   C37 7444   0.398   1.397   7.485  0.6669  0.2524  0.5409
   80SLPC   H7X 7445   0.503   1.430   7.496  0.4661  1.6166 -1.1623
   80SLPC   H7Y 7446   0.403   1.289   7.457 -0.9595  0.2914 -0.0360
   80SLPC   C38 7447   0.300   1.420   7.604  0.0068  0.5056 -0.1463
   80SLPC   H8X 7448   0.198   1.386   7.576 -0.8782  1.3285  1.8753
   80SLPC   H8Y 7449   0.292   1.530   7.617 -0.0336  0.8747 -2.7262
   80SLPC   C39 7450   0.333   1.334   7.731 -0.7646 -0.9145  0.8687
   80SLPC   H9X 7451   0.442   1.344   7.750 -0.3206  1.4560 -2.0887
   80SLPC   H9Y 7452   0.308   1.229   7.703 -0.7649 -0.0374 -2.9701
   80SLPC  C310 7453   0.246   1.372   7.848 -0.4137 -0.2579  0.0792
   80SLPC  H10X 7454   0.255   1.282   7.913  0.6923 -0.4769 -0.3614
   80SLPC  H10Y 7455   0.141   1.388   7.816 -0.8961 -0.1786  1.6091
   80SLPC  C311 7456   0.292   1.505   7.915 -0.3198 -0.0560 -0.4593
   80SLPC  H11X 7457   0.203   1.570   7.906 -0.2456  0.0862 -0.1882
   80SLPC  H11Y 7458   0.374   1.545   7.850  0.2976  1.4838  1.1936
   80SLPC  C312 7459   0.349   1.505   8.059  0.5504 -0.0196  0.0730
   80SLPC  H12X 7460   0.378   1.605   8.097 -0.4880 -0.4938  2.2945
   80SLPC  H12Y 7461   0.442   1.443   8.052 -1.8740 -4.0800  0.7121
   80SLPC  C313 7462   0.256   1.436   8.159 -0.0312  0.4545 -0.2415
   80SLPC  H13X 7463   0.243   1.331   8.126  0.6693  0.6250 -1.0978
   80SLPC  H13Y 7464   0.149   1.463   8.148 -1.1023 -2.6010  1.4798
   80SLPC  C314 7465   0.310   1.436   8.299  0.3514 -0.3708 -0.2041
   80SLPC  H14X 7466   0.332   1.539   8.335  0.3944  0.2701 -1.9829
   80SLPC  H14Y 7467   0.404   1.376   8.294  0.6677  0.1286 -0.2705
   80SLPC  C315 7468   0.203   1.385   8.395 -0.5082  0.1404 -0.2042
   80SLPC  H15X 7469   0.181   1.280   8.369 -1.1310  0.3278 -0.4517
   80SLPC  H15Y 7470   0.108   1.431   8.361  0.3681  1.6995 -0.6783
   80SLPC  C316 7471   0.232   1.399   8.540  0.3945  0.2725  0.0658
   80SLPC  H16X 7472   0.265   1.503   8.559  0.4514  0.3395 -0.4059
   80SLPC  H16Y 7473   0.314   1.334   8.578  0.1584  0.8535  1.6639
   80SLPC  C317 7474   0.105   1.363   8.635 -0.5206  0.6543  0.9336
   80SLPC  H17X 7475   0.084   1.260   8.600 -0.2014 -0.2126  3.0976
   80SLPC  H17Y 7476   0.014   1.416   8.600 -1.3688 -1.8738 -0.9855
   80SLPC  C318 7477   0.130   1.373   8.788  0.3406 -0.4066  0.0510
   80SLPC  H18X 7478   0.169   1.473   8.817 -0.3671 -0.6678  2.0418
   80SLPC  H18Y 7479   0.210   1.304   8.824  1.0794 -0.3521 -1.4348
   80SLPC  H18Z 7480   0.035   1.354   8.841 -0.1468  1.2653 -0.1654
   81SAPS     N 7481   0.519   1.413  11.373 -0.3920 -0.4114  0.4506
   81SAPS   HN1 7482   0.560   1.456  11.287 -1.3823 -1.9927 -0.8879
   81SAPS   HN2 7483   0.444   1.356  11.329 -2.2775  2.7178 -0.7179
   81SAPS   HN3 7484   0.473   1.485  11.431 -1.2882 -0.9860  0.4660
   81SAPS   C12 7485   0.618   1.328  11.441 -0.2292 -0.0255 -0.3737
   81SAPS  H12A 7486   0.703   1.385  11.475 -0.3762  0.8675 -1.4121
   81SAPS   C13 7487   0.552   1.247  11.560 -0.2992 -0.0157  0.0153
   81SAPS  O13A 7488   0.434   1.258  11.584  0.1125  0.0488 -0.6186
   81SAPS  O13B 7489   0.630   1.187  11.642 -0.0573  0.5491 -0.1707
   81SAPS   C11 7490   0.670   1.213  11.342  0.3422 -0.0121 -0.3048
   81SAPS  H11A 7491   0.580   1.154  11.315 -0.6159  1.1421  0.2652
   81SAPS  H11B 7492   0.742   1.150  11.399 -3.0491 -2.6315  1.4640
   81SAPS     P 7493   0.778   1.131  11.122 -0.0834  0.1862  0.3020
   81SAPS   O13 7494   0.916   1.073  11.146  0.0692 -0.2898 -0.6411
   81SAPS   O14 7495   0.668   1.033  11.120 -0.3007  0.0304 -0.4857
   81SAPS   O12 7496   0.743   1.247  11.228  0.4789  0.4276  0.0462
   81SAPS   O11 7497   0.777   1.204  10.985  0.5182 -0.0058 -0.2977
   81SAPS    C1 7498   0.662   1.271  10.934  0.3938 -0.1063 -0.2702
   81SAPS    HA 7499   0.586   1.298  11.009  0.1756 -2.9723  0.6353
   81SAPS    HB 7500   0.694   1.362  10.877 -0.0784 -0.4658 -1.1270
   81SAPS    C2 7501   0.593   1.189  10.816 -0.1101 -0.8027 -0.6587
   81SAPS    HS 7502   0.539   1.114  10.877 -3.1051  0.7030 -1.2647
   81SAPS   O21 7503   0.693   1.131  10.731 -0.1592  0.0259 -0.3984
   81SAPS   C21 7504   0.647   1.051  10.639  0.1870 -0.5650 -0.1997
   81SAPS   O22 7505   0.533   1.018  10.617  0.7103  0.5787  0.1737
   81SAPS   C22 7506   0.746   1.002  10.538  0.3108  0.1667  0.0002
   81SAPS   H2R 7507   0.831   0.972  10.603 -1.0867 -2.6345  0.6812
   81SAPS   H2S 7508   0.703   0.912  10.488  1.6749  0.5971 -2.0858
   81SAPS    C3 7509   0.489   1.273  10.742  0.8151 -0.2078  0.6335
   81SAPS    HX 7510   0.431   1.325  10.822  1.3756  0.9475  0.3018
   81SAPS    HY 7511   0.414   1.209  10.692 -0.2697 -0.1482  2.1235
   81SAPS   O31 7512   0.558   1.364  10.654  0.6264  0.3834 -0.4287
   81SAPS   C31 7513   0.476   1.434  10.588 -0.7373 -0.5876  0.3659
   81SAPS   O32 7514   0.358   1.441  10.603 -0.1118 -0.0452 -0.1936
   81SAPS   C32 7515   0.558   1.510  10.479  0.0816  0.2775 -0.2749
   81SAPS   H2X 7516   0.663   1.523  10.513 -0.0650  0.7077  0.0158
   81SAPS   H2Y 7517   0.504   1.606  10.466 -0.6599 -0.2136 -0.9509
   81SAPS   C23 7518   0.787   1.111  10.425  0.5859  0.6322 -0.1986
   81SAPS   H3R 7519   0.826   1.199  10.480  0.2041  0.0344  1.0619
   81SAPS   H3S 7520   0.692   1.135  10.372 -0.4250 -0.7203  0.9262
   81SAPS   C24 7521   0.889   1.060  10.313 -0.2442 -0.2005 -0.3147
   81SAPS   H4R 7522   0.989   1.050  10.360  0.1703 -1.1244 -1.3364
   81SAPS   H4S 7523   0.913   1.134  10.234  2.4195  0.6785  1.2180
   81SAPS   C25 7524   0.841   0.937  10.245 -0.0627  0.7177  0.0212
   81SAPS   H5R 7525   0.850   0.851  10.312  0.2968 -0.7462 -1.8250
   81SAPS   C26 7526   0.799   0.926  10.115  0.3106 -0.1968  0.8343
   81SAPS   H6R 7527   0.743   0.836  10.085 -1.0386  1.1046 -0.6991
   81SAPS   C27 7528   0.785   1.038  10.018  0.1654 -0.1617  0.1163
   81SAPS   H7R 7529   0.733   1.121  10.072  1.8558 -0.8213  2.9834
   81SAPS   H7S 7530   0.722   1.017   9.929  0.0995 -1.4255  0.4449
   81SAPS   C28 7531   0.918   1.073   9.963  0.0044  0.4649  0.2956
   81SAPS   H8R 7532   0.998   1.055  10.037  0.2459  1.1329  0.2079
   81SAPS   C29 7533   0.949   1.114   9.836 -0.1494  0.1685 -0.7357
   81SAPS   H9R 7534   1.057   1.116   9.815 -0.0886  1.2315 -0.4094
   81SAPS  C210 7535   0.855   1.120   9.716  0.0303 -0.7749 -0.4248
   81SAPS  H10R 7536   0.835   1.226   9.688 -1.5046 -0.4867  1.5126
   81SAPS  H10S 7537   0.749   1.092   9.736 -0.7711  1.7815 -0.7231
   81SAPS  C211 7538   0.903   1.057   9.590 -0.8448 -0.1696 -0.0326
   81SAPS  H11R 7539   0.984   1.113   9.540 -0.9803  1.6468  1.6473
   81SAPS  C212 7540   0.858   0.949   9.534  0.7295 -0.0212 -0.2131
   81SAPS  H12R 7541   0.900   0.919   9.437  0.3481  1.0250 -0.7151
   81SAPS  C213 7542   0.750   0.857   9.597  0.2210 -0.3014 -0.0605
   81SAPS  H13R 7543   0.653   0.910   9.605 -0.2890 -1.5210  3.9750
   81SAPS  H13S 7544   0.774   0.829   9.702  0.6880 -0.6584 -0.2557
   81SAPS  C214 7545   0.739   0.725   9.516 -0.4277 -0.4233  0.6061
   81SAPS  H14R 7546   0.806   0.644   9.545  0.6996  0.9313  1.9361
   81SAPS  C215 7547   0.660   0.704   9.407 -0.4453 -0.4787  0.2654
   81SAPS  H15R 7548   0.667   0.603   9.363 -2.2687 -0.6388  0.2790
   81SAPS  C216 7549   0.553   0.796   9.340 -0.3241  0.4167 -0.3081
   81SAPS  H16R 7550   0.590   0.856   9.253 -0.6745 -0.1403 -0.8498
   81SAPS  H16S 7551   0.524   0.873   9.415  0.1492 -0.0396  0.3581
   81SAPS  C217 7552   0.415   0.733   9.300 -0.1949  1.1511  0.3297
   81SAPS  H17R 7553   0.350   0.812   9.257 -0.0609  0.6829 -0.7566
   81SAPS  H17S 7554   0.356   0.691   9.384 -1.9357 -0.5105 -1.6054
   81SAPS  C218 7555   0.436   0.619   9.191 -0.0884 -0.7715 -0.2997
   81SAPS  H18R 7556   0.502   0.533   9.215  1.1457 -0.9729 -3.8132
   81SAPS  H18S 7557   0.485   0.664   9.102  1.6514 -0.2001  0.9038
   81SAPS  C219 7558   0.297   0.566   9.156  0.0724  0.5224 -0.0461
   81SAPS  H19R 7559   0.232   0.648   9.117 -0.1062  0.1586 -0.5128
   81SAPS  H19S 7560   0.247   0.527   9.248 -0.6300  3.0727  0.7558
   81SAPS  C220 7561   0.304   0.462   9.040  0.6018 -0.7675  0.6760
   81SAPS  H20R 7562   0.306   0.517   8.944 -2.3918 -0.0204  0.9421
   81SAPS  H20S 7563   0.205   0.413   9.029  0.9747 -1.2821 -0.5287
   81SAPS  H20T 7564   0.393   0.396   9.052  0.5258 -0.8971  0.5264
   81SAPS   C33 7565   0.565   1.436  10.336  0.5879  0.4124  0.0274
   81SAPS   H3X 7566   0.620   1.342  10.356  0.7548  0.5226  0.0861
   81SAPS   H3Y 7567   0.616   1.498  10.260  0.1100  0.6056 -0.1406
   81SAPS   C34 7568   0.424   1.405  10.281 -0.2660  0.5442 -0.5477
   81SAPS   H4X 7569   0.372   1.501  10.261 -0.6887  0.6423  0.9024
   81SAPS   H4Y 7570   0.355   1.356  10.353 -0.7114  0.8511 -0.7599
   81SAPS   C35 7571   0.432   1.311  10.154 -0.2033 -0.2066 -0.4600
   81SAPS   H5X 7572   0.334   1.259  10.146  0.6840 -2.0739  0.3839
   81SAPS   H5Y 7573   0.508   1.234  10.178 -0.3831 -0.1183  0.4356
   81SAPS   C36 7574   0.473   1.387  10.029 -0.0086 -0.3747 -0.5467
   81SAPS   H6X 7575   0.567   1.445  10.037  0.1544 -0.8336  1.4233
   81SAPS   H6Y 7576   0.393   1.464  10.023 -0.2222 -0.4827  0.7177
   81SAPS   C37 7577   0.462   1.294   9.906 -0.2477  0.2155  0.3102
   81SAPS   H7X 7578   0.358   1.261   9.885  0.1068 -1.0249  0.3684
   81SAPS   H7Y 7579   0.528   1.208   9.932 -2.7402 -1.4396  1.6024
   81SAPS   C38 7580   0.518   1.364   9.783 -0.6806 -0.2899  0.0538
   81SAPS   H8X 7581   0.628   1.370   9.797 -0.8636 -0.0057  1.5195
   81SAPS   H8Y 7582   0.484   1.468   9.762 -0.3187 -0.4007 -1.1352
   81SAPS   C39 7583   0.489   1.290   9.649  0.3889 -0.3786 -0.1294
   81SAPS   H9X 7584   0.382   1.307   9.625  0.2597 -3.1080 -1.9564
   81SAPS   H9Y 7585   0.493   1.180   9.658 -1.1514 -0.4314  0.0894
   81SAPS  C310 7586   0.579   1.360   9.540  0.1369 -0.0252  0.2374
   81SAPS  H10X 7587   0.688   1.345   9.554  0.1942  1.4307  1.6805
   81SAPS  H10Y 7588   0.560   1.469   9.557 -0.6488 -0.0425 -0.4467
   81SAPS  C311 7589   0.528   1.345   9.386 -0.5840  0.1004 -0.5378
   81SAPS  H11X 7590   0.557   1.439   9.335  0.2414  0.3912  0.4445
   81SAPS  H11Y 7591   0.417   1.340   9.397 -0.3217  0.5707  3.6824
   81SAPS  C312 7592   0.585   1.227   9.299  0.0626 -0.1432  0.0972
   81SAPS  H12X 7593   0.566   1.131   9.353  2.3801  0.0068  1.3210
   81SAPS  H12Y 7594   0.695   1.227   9.285 -0.0542  0.1559 -0.8875
   81SAPS  C313 7595   0.514   1.208   9.170  0.4020  0.0727  0.0535
   81SAPS  H13X 7596   0.522   1.302   9.111  2.6418  0.2245  0.5232
   81SAPS  H13Y 7597   0.409   1.181   9.195  0.8402 -0.7982  1.0319
   81SAPS  C314 7598   0.578   1.103   9.075 -1.1717 -0.0882  0.4836
   81SAPS  H14X 7599   0.584   1.009   9.134  0.8058  0.0156  0.5244
   81SAPS  H14Y 7600   0.687   1.124   9.073 -1.1804  0.5948  3.4251
   81SAPS  C315 7601   0.534   1.108   8.930 -0.0781 -0.0732 -0.3845
   81SAPS  H15X 7602   0.594   1.039   8.866  1.9038  2.2278 -1.1603
   81SAPS  H15Y 7603   0.554   1.206   8.883  0.9523  0.3288  0.8309
   81SAPS  C316 7604   0.384   1.069   8.916  0.0259  0.6839  0.5530
   81SAPS  H16X 7605   0.319   1.155   8.942  0.8836  1.5742 -0.1741
   81SAPS  H16Y 7606   0.362   0.990   8.991 -2.0796  0.5450 -0.1481
   81SAPS  C317 7607   0.345   1.018   8.776 -0.2351 -0.1891 -0.5219
   81SAPS  H17X 7608   0.420   0.941   8.749 -0.0861 -0.7744  1.3526
   81SAPS  H17Y 7609   0.356   1.098   8.700 -0.8305  0.4752  0.0615
   81SAPS  C318 7610   0.199   0.975   8.758  0.6030 -0.4125 -0.1324
   81SAPS  H18X 7611   0.182   0.878   8.808 -1.3614 -0.5487 -0.9942
   81SAPS  H18Y 7612   0.179   0.961   8.650 -0.2538 -0.1619 -0.0129
   81SAPS  H18Z 7613   0.126   1.053   8.790  2.1965  2.0869 -2.1844
   82SAPS     N 7614   1.009   1.615  10.832  0.0400 -0.1001 -0.0884
   82SAPS   HN1 7615   0.918   1.663  10.841  0.5384  1.0875 -0.9902
   82SAPS   HN2 7616   1.063   1.657  10.753 -0.0450  1.4161  0.6208
   82SAPS   HN3 7617   0.992   1.516  10.804  2.4974  0.1071 -2.9223
   82SAPS   C12 7618   1.086   1.624  10.963  1.0172  0.3306  0.1418
   82SAPS  H12A 7619   1.141   1.717  10.957  0.2677  0.8230  0.7123
   82SAPS   C13 7620   0.989   1.624  11.085 -0.0205  0.1935  0.3084
   82SAPS  O13A 7621   0.862   1.640  11.068  0.0541 -0.0813 -0.3126
   82SAPS  O13B 7622   1.046   1.619  11.194  0.0765 -0.0384 -0.5764
   82SAPS   C11 7623   1.189   1.507  10.971 -0.5576 -0.0260  0.9732
   82SAPS  H11A 7624   1.124   1.417  10.964 -0.6949  0.2097 -2.2565
   82SAPS  H11B 7625   1.242   1.522  11.068  4.3781  1.0476 -1.5538
   82SAPS     P 7626   1.425   1.460  10.858 -0.0670  0.3245 -0.1941
   82SAPS   O13 7627   1.513   1.557  10.792 -0.0512 -0.3124  0.5166
   82SAPS   O14 7628   1.462   1.430  10.996  0.4311  1.0529  0.2027
   82SAPS   O12 7629   1.278   1.517  10.858 -0.0760 -0.4249 -0.0205
   82SAPS   O11 7630   1.422   1.334  10.757  0.2049  0.3848 -0.9445
   82SAPS    C1 7631   1.336   1.319  10.646  0.2534 -0.3321 -0.5457
   82SAPS    HA 7632   1.323   1.211  10.626 -0.5398 -0.8715  2.4129
   82SAPS    HB 7633   1.233   1.345  10.678  0.5964 -0.2921  0.5469
   82SAPS    C2 7634   1.388   1.392  10.519  0.0608 -0.7049  0.7396
   82SAPS    HS 7635   1.394   1.502  10.536  1.1455  0.1319 -3.7515
   82SAPS   O21 7636   1.297   1.359  10.411 -0.1091 -0.3886 -0.1653
   82SAPS   C21 7637   1.192   1.433  10.399 -0.1369 -0.1351 -0.2556
   82SAPS   O22 7638   1.160   1.530  10.467  0.4292 -0.7030  0.0977
   82SAPS   C22 7639   1.104   1.381  10.279  0.7691 -0.5692 -0.2804
   82SAPS   H2R 7640   1.121   1.276  10.250  0.5070 -0.8176  0.4537
   82SAPS   H2S 7641   0.995   1.397  10.295  1.1110  2.2083 -0.0692
   82SAPS    C3 7642   1.540   1.351  10.501  0.0301 -0.3118  0.0917
   82SAPS    HX 7643   1.550   1.245  10.472  1.1839  0.4631 -2.6213
   82SAPS    HY 7644   1.575   1.362  10.606 -3.4953 -1.5028  1.5687
   82SAPS   O31 7645   1.606   1.444  10.412 -0.1596 -0.6589 -0.0523
   82SAPS   C31 7646   1.739   1.439  10.416  0.5824  0.0718  0.4034
   82SAPS   O32 7647   1.798   1.357  10.481  0.3124 -0.0692  0.5332
   82SAPS   C32 7648   1.804   1.558  10.336 -0.4412  0.3187 -0.4224
   82SAPS   H2X 7649   1.843   1.643  10.397  1.7062 -0.5971 -0.4341
   82SAPS   H2Y 7650   1.721   1.595  10.272 -0.7254  1.7612  0.7200
   82SAPS   C23 7651   1.145   1.465  10.156 -0.2410  0.1382 -0.1440
   82SAPS   H3R 7652   1.254   1.454  10.141 -0.3301  1.2912 -1.9775
   82SAPS   H3S 7653   1.110   1.566  10.188  1.7927  1.1376 -0.9563
   82SAPS   C24 7654   1.067   1.429  10.027 -0.2031  0.0528 -0.7254
   82SAPS   H4R 7655   0.957   1.431  10.037 -0.2384 -1.9163 -0.3037
   82SAPS   H4S 7656   1.098   1.322  10.023  1.0948  0.2159  2.1834
   82SAPS   C25 7657   1.119   1.477   9.893  0.1155 -0.1587  1.3265
   82SAPS   H5R 7658   1.225   1.460   9.871 -0.1256 -2.3582  1.6704
   82SAPS   C26 7659   1.043   1.521   9.788 -0.5277  0.3376 -0.1000
   82SAPS   H6R 7660   1.092   1.553   9.695  0.8534  2.3428  1.2501
   82SAPS   C27 7661   0.894   1.537   9.796 -0.4023  0.3488 -0.0675
   82SAPS   H7R 7662   0.861   1.572   9.896 -1.0244 -1.8902  0.5659
   82SAPS   H7S 7663   0.847   1.439   9.776  0.6441 -0.5477  1.6471
   82SAPS   C28 7664   0.832   1.623   9.688 -0.0526  0.2126 -0.1758
   82SAPS   H8R 7665   0.790   1.714   9.734  1.0752  1.0647 -0.7849
   82SAPS   C29 7666   0.839   1.617   9.556 -0.3046  0.0098  0.4387
   82SAPS   H9R 7667   0.785   1.693   9.498 -1.0800  0.7712  2.0845
   82SAPS  C210 7668   0.915   1.511   9.475  0.2254  0.0605 -0.8920
   82SAPS  H10R 7669   0.850   1.484   9.389 -1.0160 -0.1177  0.0643
   82SAPS  H10S 7670   0.919   1.426   9.546  0.3833  0.7789 -0.0180
   82SAPS  C211 7671   1.059   1.539   9.424 -0.1934 -1.0976 -0.4676
   82SAPS  H11R 7672   1.081   1.642   9.394 -1.2772 -0.3019  1.2636
   82SAPS  C212 7673   1.160   1.454   9.406  0.1952  0.9393  0.6372
   82SAPS  H12R 7674   1.261   1.485   9.375  0.4655  0.5831  1.1480
   82SAPS  C213 7675   1.141   1.310   9.425 -0.4242 -0.1122  0.3770
   82SAPS  H13R 7676   1.054   1.263   9.375  1.9429 -1.0819 -3.2530
   82SAPS  H13S 7677   1.112   1.282   9.528 -2.1170 -1.0784 -0.3373
   82SAPS  C214 7678   1.273   1.246   9.388  0.2174 -0.7535 -0.9141
   82SAPS  H14R 7679   1.345   1.277   9.465  1.7650 -0.1525 -2.5352
   82SAPS  C215 7680   1.305   1.145   9.301  0.8082 -0.2635 -0.2130
   82SAPS  H15R 7681   1.411   1.113   9.303  1.3717  1.2434 -2.1312
   82SAPS  C216 7682   1.215   1.086   9.195 -0.0974  0.1482 -0.3971
   82SAPS  H16R 7683   1.269   1.025   9.120 -2.3721 -1.8291 -0.5176
   82SAPS  H16S 7684   1.173   1.169   9.135 -0.6654  0.2018  0.0654
   82SAPS  C217 7685   1.106   0.999   9.256  0.0781  0.0555 -0.6211
   82SAPS  H17R 7686   1.033   1.064   9.307  1.6164  1.7487 -0.4965
   82SAPS  H17S 7687   1.155   0.943   9.338 -1.6099  1.2743  1.3052
   82SAPS  C218 7688   1.040   0.908   9.159  0.0616 -0.2917 -0.5669
   82SAPS  H18R 7689   0.979   0.833   9.212 -0.0360 -0.6817 -1.2232
   82SAPS  H18S 7690   1.116   0.846   9.106  0.6162  0.1256 -0.2806
   82SAPS  C219 7691   0.951   0.979   9.067 -0.1204  0.4475  0.0967
   82SAPS  H19R 7692   1.013   1.043   9.001  0.7640  1.2775  1.6636
   82SAPS  H19S 7693   0.891   1.048   9.130 -0.3449  0.5578 -0.2363
   82SAPS  C220 7694   0.868   0.890   8.971  0.6594 -0.0088 -0.1818
   82SAPS  H20R 7695   0.936   0.827   8.910 -2.0213 -2.5257 -0.7909
   82SAPS  H20S 7696   0.809   0.958   8.905 -2.2517 -3.4470 -1.4497
   82SAPS  H20T 7697   0.793   0.825   9.021  2.5754 -1.0935  1.4161
   82SAPS   C33 7698   1.920   1.525  10.246 -0.5999 -0.2054  0.3298
   82SAPS   H3X 7699   1.983   1.445  10.290  1.2223  0.8567 -0.2378
   82SAPS   H3Y 7700   1.989   1.612  10.246 -0.5838 -0.2129 -0.1786
   82SAPS   C34 7701   1.877   1.498  10.105  0.4416  0.4432  0.6904
   82SAPS   H4X 7702   1.813   1.580  10.065 -1.4496 -1.6334 -0.7866
   82SAPS   H4Y 7703   1.801   1.418  10.109 -1.1027  1.8939  1.5975
   82SAPS   C35 7704   1.999   1.485  10.013  0.9989 -0.1492 -0.4275
   82SAPS   H5X 7705   2.067   1.399  10.032 -0.4389 -1.2105  0.0582
   82SAPS   H5Y 7706   2.068   1.572  10.025 -2.9150  3.6018 -2.4218
   82SAPS   C36 7707   1.953   1.492   9.871 -1.0077 -0.6124  0.8145
   82SAPS   H6X 7708   1.915   1.595   9.852 -0.3014 -0.5841 -0.6106
   82SAPS   H6Y 7709   1.873   1.420   9.844 -0.0768 -1.7892  1.1241
   82SAPS   C37 7710   2.073   1.469   9.768 -0.1733  0.0872 -0.0372
   82SAPS   H7X 7711   2.153   1.399   9.802  0.3227  0.5219 -0.2860
   82SAPS   H7Y 7712   2.121   1.569   9.768  0.6150 -0.2773 -0.3620
   82SAPS   C38 7713   2.037   1.434   9.621 -0.0539 -0.4666 -0.8511
   82SAPS   H8X 7714   2.130   1.430   9.559  0.1700 -0.9848 -0.4826
   82SAPS   H8Y 7715   1.960   1.500   9.576  1.6708  3.5084  1.4761
   82SAPS   C39 7716   1.978   1.290   9.607  0.6133  0.1296 -0.4062
   82SAPS   H9X 7717   1.881   1.287   9.662  2.0219  2.8458  2.4829
   82SAPS   H9Y 7718   2.046   1.216   9.653  2.1115  0.2236 -2.3323
   82SAPS  C310 7719   1.951   1.259   9.460  0.8401  0.4990 -0.6477
   82SAPS  H10X 7720   2.037   1.250   9.391  0.4895 -0.0764 -1.0229
   82SAPS  H10Y 7721   1.893   1.343   9.417 -2.1758 -0.1984  1.6633
   82SAPS  C311 7722   1.861   1.136   9.448  0.5949  0.1195 -0.3684
   82SAPS  H11X 7723   1.767   1.155   9.504  1.4027  0.9003  0.7639
   82SAPS  H11Y 7724   1.898   1.045   9.497 -1.5364 -0.2425  0.6698
   82SAPS  C312 7725   1.819   1.111   9.304  0.4992  0.0159 -0.1030
   82SAPS  H12X 7726   1.909   1.096   9.241  0.8899  0.2438  0.3969
   82SAPS  H12Y 7727   1.764   1.202   9.274 -0.3543 -0.8124 -1.1647
   82SAPS  C313 7728   1.720   0.989   9.284  0.1035  0.3500  0.0862
   82SAPS  H13X 7729   1.648   0.988   9.369  0.5363 -2.6776  0.5266
   82SAPS  H13Y 7730   1.784   0.900   9.298 -1.3931 -0.5133  1.9572
   82SAPS  C314 7731   1.660   0.983   9.136 -0.8813  0.5384  0.2944
   82SAPS  H14X 7732   1.737   0.975   9.057 -0.6086 -1.0790  0.6891
   82SAPS  H14Y 7733   1.598   1.075   9.121 -0.1033  0.8335 -1.3363
   82SAPS  C315 7734   1.575   0.858   9.111 -0.0523  0.1098 -0.2324
   82SAPS  H15X 7735   1.468   0.883   9.128 -0.3332 -0.0327 -1.6441
   82SAPS  H15Y 7736   1.605   0.767   9.168 -3.1134 -1.3311 -0.7247
   82SAPS  C316 7737   1.572   0.818   8.961 -0.1230 -0.1957  0.2825
   82SAPS  H16X 7738   1.556   0.895   8.883  0.3531 -3.0803 -2.9094
   82SAPS  H16Y 7739   1.487   0.749   8.944 -0.1820 -0.5105  1.7056
   82SAPS  C317 7740   1.708   0.753   8.925 -0.3529 -0.0053 -0.2014
   82SAPS  H17X 7741   1.711   0.651   8.970 -1.3380  0.6237  1.3344
   82SAPS  H17Y 7742   1.790   0.815   8.967  0.3558  0.6328 -2.3725
   82SAPS  C318 7743   1.728   0.724   8.772  0.0825 -0.7724 -0.2140
   82SAPS  H18X 7744   1.828   0.676   8.773  0.7393  0.3061  3.4124
   82SAPS  H18Y 7745   1.740   0.822   8.721 -0.3829 -0.8803 -0.5284
   82SAPS  H18Z 7746   1.662   0.645   8.731 -0.5525 -0.3632  0.0078
   83SAPS     N 7747   2.300   2.486  11.103  0.6115 -0.2848  0.2698
   83SAPS   HN1 7748   2.368   2.411  11.081 -1.9100 -2.8972  0.9224
   83SAPS   HN2 7749   2.278   2.534  11.013  0.3768 -1.5872 -0.3848
   83SAPS   HN3 7750   2.340   2.558  11.167  0.6040  0.7754 -0.8560
   83SAPS   C12 7751   2.163   2.449  11.159  0.6584  0.0056  0.5537
   83SAPS  H12A 7752   2.121   2.373  11.095 -1.8055  0.3703  1.6285
   83SAPS   C13 7753   2.171   2.384  11.296 -0.2499  0.7965  0.4665
   83SAPS  O13A 7754   2.285   2.378  11.345  0.7883  0.6359  0.2485
   83SAPS  O13B 7755   2.074   2.335  11.353 -0.2140 -0.7275  0.1645
   83SAPS   C11 7756   2.076   2.575  11.154 -0.7720  0.3696 -0.0166
   83SAPS  H11A 7757   2.123   2.649  11.222  0.5072  1.5613 -2.0960
   83SAPS  H11B 7758   1.972   2.549  11.181  0.1181 -2.6181  0.9465
   83SAPS     P 7759   2.000   2.754  10.988  0.0699 -0.2014  0.0764
   83SAPS   O13 7760   1.875   2.768  11.071 -0.0126 -0.0893  0.2247
   83SAPS   O14 7761   2.092   2.868  11.000 -0.0104  0.5508  0.7264
   83SAPS   O12 7762   2.072   2.624  11.019 -0.0251 -0.0532  0.1371
   83SAPS   O11 7763   1.955   2.740  10.836 -0.4903  0.3400  0.3582
   83SAPS    C1 7764   1.977   2.626  10.755  0.2266  0.2149 -0.0796
   83SAPS    HA 7765   1.982   2.532  10.813 -2.2550 -0.1847 -0.4293
   83SAPS    HB 7766   1.880   2.613  10.704 -1.8329  0.8232  3.3611
   83SAPS    C2 7767   2.094   2.653  10.655 -0.0674  0.2450  0.0123
   83SAPS    HS 7768   2.184   2.676  10.716  0.8896  1.4312 -1.7600
   83SAPS   O21 7769   2.055   2.764  10.579 -0.0066  0.2251  0.0695
   83SAPS   C21 7770   2.156   2.817  10.505  0.2514  0.1719 -0.5176
   83SAPS   O22 7771   2.271   2.813  10.534 -0.3602 -0.5783  0.1432
   83SAPS   C22 7772   2.091   2.900  10.394 -0.3472 -0.7433  0.2739
   83SAPS   H2R 7773   2.032   2.826  10.336  0.7549 -1.7843  0.4372
   83SAPS   H2S 7774   2.028   2.981  10.436  2.2654  0.6507  1.7887
   83SAPS    C3 7775   2.131   2.523  10.577  0.1098 -0.0837  0.6100
   83SAPS    HX 7776   2.029   2.497  10.540 -1.0123  1.8479  2.1171
   83SAPS    HY 7777   2.154   2.445  10.653 -3.0435 -0.2404  1.5533
   83SAPS   O31 7778   2.233   2.538  10.481  0.9855 -0.3564  0.2814
   83SAPS   C31 7779   2.355   2.511  10.518 -0.3966  0.0780  0.5206
   83SAPS   O32 7780   2.391   2.470  10.629 -0.1418 -0.2071  1.2097
   83SAPS   C32 7781   2.460   2.551  10.406  0.4765  0.3435  0.2242
   83SAPS   H2X 7782   2.560   2.512  10.436  0.3791 -1.2623 -1.3483
   83SAPS   H2Y 7783   2.453   2.661  10.401 -1.0942  0.2986  0.8013
   83SAPS   C23 7784   2.203   2.958  10.298  0.2885  0.2652  0.3656
   83SAPS   H3R 7785   2.285   3.006  10.355 -0.0151  1.6639 -0.3036
   83SAPS   H3S 7786   2.152   3.045  10.250 -0.9560  0.0643  1.2800
   83SAPS   C24 7787   2.244   2.856  10.192 -0.0931 -0.0842 -0.6976
   83SAPS   H4R 7788   2.155   2.821  10.137 -0.5225 -0.1036 -0.0096
   83SAPS   H4S 7789   2.288   2.766  10.241  0.8569  1.8896  2.3877
   83SAPS   C25 7790   2.348   2.929  10.114 -0.4596 -0.0445 -0.6156
   83SAPS   H5R 7791   2.431   2.959  10.180  0.7955 -2.9565 -0.6895
   83SAPS   C26 7792   2.358   2.949   9.984  0.0095 -0.2215  0.2703
   83SAPS   H6R 7793   2.433   3.014   9.936 -2.6567  2.4984 -0.5066
   83SAPS   C27 7794   2.260   2.900   9.881 -0.3742  0.3958 -0.7235
   83SAPS   H7R 7795   2.205   2.813   9.923 -0.2559 -0.2873 -1.9225
   83SAPS   H7S 7796   2.314   2.859   9.793  1.1554 -0.4035  0.5254
   83SAPS   C28 7797   2.150   3.000   9.851  0.3232  0.0159 -0.3749
   83SAPS   H8R 7798   2.098   3.040   9.939  3.0158 -1.1855  1.8952
   83SAPS   C29 7799   2.112   3.038   9.727 -0.3689 -0.3764 -0.1672
   83SAPS   H9R 7800   2.050   3.129   9.730 -1.7463 -1.3153  1.0761
   83SAPS  C210 7801   2.164   3.000   9.590 -0.4063 -0.2336 -0.1215
   83SAPS  H10R 7802   2.197   2.894   9.582 -4.1353 -1.5767  0.1934
   83SAPS  H10S 7803   2.251   3.064   9.569 -1.0839  0.8831  0.3969
   83SAPS  C211 7804   2.068   3.024   9.479  0.2273  0.8336 -0.4489
   83SAPS  H11R 7805   1.973   3.071   9.510  1.4793  2.1207  1.7142
   83SAPS  C212 7806   2.102   3.020   9.349  0.4877  0.3137 -0.1341
   83SAPS  H12R 7807   2.030   3.050   9.271 -1.7796 -0.7006  1.4617
   83SAPS  C213 7808   2.232   2.979   9.292 -0.2679 -0.2724  0.1223
   83SAPS  H13R 7809   2.289   2.910   9.357  0.0120  1.6095  1.9838
   83SAPS  H13S 7810   2.286   3.073   9.269 -3.7821  1.7261 -0.7606
   83SAPS  C214 7811   2.207   2.907   9.159 -0.1856 -0.1428 -0.1893
   83SAPS  H14R 7812   2.196   2.798   9.171 -0.2280 -0.3490 -1.8257
   83SAPS  C215 7813   2.188   2.967   9.038 -0.6227 -0.3029  0.2291
   83SAPS  H15R 7814   2.164   2.901   8.953  0.3738 -0.8111  0.3299
   83SAPS  C216 7815   2.193   3.115   9.016  0.6067  0.0232  0.5954
   83SAPS  H16R 7816   2.298   3.150   9.010  1.2505 -1.9786 -0.8883
   83SAPS  H16S 7817   2.120   3.163   9.086  0.3738 -0.3368  0.6013
   83SAPS  C217 7818   2.125   3.160   8.881 -0.3652  0.5380 -0.1500
   83SAPS  H17R 7819   2.121   3.271   8.882  0.7018  0.5831  0.7542
   83SAPS  H17S 7820   2.024   3.116   8.872  0.6440 -2.2073  0.7934
   83SAPS  C218 7821   2.201   3.119   8.754  0.1693 -0.8317  0.3425
   83SAPS  H18R 7822   2.219   3.009   8.756 -0.6781 -1.0305 -1.3535
   83SAPS  H18S 7823   2.304   3.157   8.742 -0.0045  0.6890  2.9316
   83SAPS  C219 7824   2.137   3.146   8.615  0.1291 -0.4578  0.5977
   83SAPS  H19R 7825   2.055   3.074   8.593  0.4143 -1.2182  1.8677
   83SAPS  H19S 7826   2.205   3.132   8.529 -1.4795  2.2413 -1.2451
   83SAPS  C220 7827   2.083   3.291   8.598 -0.2718  0.2085  0.4874
   83SAPS  H20R 7828   2.154   3.373   8.620 -1.6075  1.5835 -0.1827
   83SAPS  H20S 7829   1.999   3.311   8.668  1.8711 -0.8876  3.5949
   83SAPS  H20T 7830   2.047   3.314   8.496  0.1789  0.0410  0.2915
   83SAPS   C33 7831   2.437   2.490  10.265  0.3097  0.6131 -0.2319
   83SAPS   H3X 7832   2.340   2.521  10.221  1.0892  1.4911 -1.4206
   83SAPS   H3Y 7833   2.435   2.381  10.283  0.5310  1.0424  2.9711
   83SAPS   C34 7834   2.549   2.535  10.166 -0.0725 -0.4034 -0.9801
   83SAPS   H4X 7835   2.649   2.496  10.194 -0.6187 -1.4340 -0.3970
   83SAPS   H4Y 7836   2.555   2.646  10.163  2.1116 -0.5118 -2.0497
   83SAPS   C35 7837   2.526   2.493  10.021 -0.2878 -0.6351 -0.3653
   83SAPS   H5X 7838   2.512   2.383  10.029  0.3582 -0.9132 -2.4002
   83SAPS   H5Y 7839   2.623   2.499   9.967 -0.3301  2.5643 -0.2601
   83SAPS   C36 7840   2.410   2.569   9.955 -0.1146  0.3057 -0.2423
   83SAPS   H6X 7841   2.430   2.676   9.937 -2.9590  0.7840 -0.8979
   83SAPS   H6Y 7842   2.319   2.563  10.019 -0.5948 -0.9637 -1.0029
   83SAPS   C37 7843   2.381   2.501   9.817  0.4162  0.2266  0.1581
   83SAPS   H7X 7844   2.402   2.392   9.824  0.0772  0.0173 -1.6398
   83SAPS   H7Y 7845   2.456   2.538   9.745 -0.9118 -2.3224 -2.7466
   83SAPS   C38 7846   2.242   2.516   9.761 -0.2301 -0.3626  0.1517
   83SAPS   H8X 7847   2.222   2.625   9.753  0.9675  0.0829  2.3646
   83SAPS   H8Y 7848   2.156   2.473   9.816 -1.2583 -0.1630 -1.2297
   83SAPS   C39 7849   2.237   2.464   9.617 -0.7615  0.0141  0.0140
   83SAPS   H9X 7850   2.218   2.355   9.632  2.8335 -0.4943  2.0259
   83SAPS   H9Y 7851   2.329   2.467   9.555  0.0218  0.4085  1.1717
   83SAPS  C310 7852   2.129   2.524   9.530 -0.5087 -0.5311  0.0622
   83SAPS  H10X 7853   2.134   2.634   9.546 -0.6802 -0.6844  1.2300
   83SAPS  H10Y 7854   2.032   2.478   9.560 -0.1202 -0.9512  0.7194
   83SAPS  C311 7855   2.142   2.502   9.382 -0.5283 -0.2329 -0.3971
   83SAPS  H11X 7856   2.136   2.393   9.365  3.9169 -1.0241  1.9084
   83SAPS  H11Y 7857   2.243   2.536   9.349  0.6269  0.1532  3.1782
   83SAPS  C312 7858   2.043   2.596   9.306 -0.0678  0.7688 -0.1592
   83SAPS  H12X 7859   2.079   2.699   9.328 -0.0132  0.9625 -1.1040
   83SAPS  H12Y 7860   1.940   2.587   9.344 -0.3109  0.4241 -0.8725
   83SAPS  C313 7861   2.040   2.575   9.154 -0.3160  0.0172  0.9660
   83SAPS  H13X 7862   2.142   2.599   9.118 -0.4084 -2.4688 -1.2467
   83SAPS  H13Y 7863   1.965   2.644   9.109  1.2437  1.4421  0.4355
   83SAPS  C314 7864   1.991   2.433   9.112 -0.5290  0.6986 -0.0336
   83SAPS  H14X 7865   1.903   2.404   9.173  1.4235  0.2045  2.7442
   83SAPS  H14Y 7866   2.071   2.364   9.147 -1.9092 -1.5160 -1.0329
   83SAPS  C315 7867   1.962   2.404   8.962  0.0023  0.4574 -0.3534
   83SAPS  H15X 7868   1.934   2.499   8.912 -1.7624  1.0347  1.5883
   83SAPS  H15Y 7869   1.875   2.336   8.957 -0.2768  0.4968  2.4631
   83SAPS  C316 7870   2.075   2.336   8.890 -0.1947 -0.1055 -0.0657
   83SAPS  H16X 7871   2.046   2.291   8.793 -0.8262 -2.4743  1.1381
   83SAPS  H16Y 7872   2.116   2.245   8.940  2.3554  0.3314 -1.2310
   83SAPS  C317 7873   2.194   2.434   8.864 -0.0815  0.1015  0.6992
   83SAPS  H17X 7874   2.279   2.369   8.834 -0.3293 -1.0564  2.3706
   83SAPS  H17Y 7875   2.212   2.486   8.961  1.0950 -1.5858  1.4341
   83SAPS  C318 7876   2.169   2.533   8.747 -0.1901  0.2986  0.3117
   83SAPS  H18X 7877   2.256   2.521   8.678 -1.5532 -0.1446 -1.3989
   83SAPS  H18Y 7878   2.175   2.640   8.775 -0.1715  0.7955 -1.4588
   83SAPS  H18Z 7879   2.082   2.502   8.686 -1.0337  1.3055  0.9860
   84SAPS     N 7880   2.725   2.368  11.168  0.0992  0.2700 -0.3382
   84SAPS   HN1 7881   2.688   2.461  11.140 -0.1467  0.3275  0.1677
   84SAPS   HN2 7882   2.663   2.343  11.247 -1.4772 -3.5770 -2.5172
   84SAPS   HN3 7883   2.820   2.381  11.208 -0.1520  0.6928  0.1307
   84SAPS   C12 7884   2.711   2.256  11.075  0.4162 -0.7719  0.7493
   84SAPS  H12A 7885   2.711   2.164  11.132 -0.0562 -0.1599  1.7713
   84SAPS   C13 7886   2.571   2.234  11.009  0.5375  0.6407  0.5599
   84SAPS  O13A 7887   2.477   2.318  11.019  0.0256  0.0840 -0.7150
   84SAPS  O13B 7888   2.553   2.132  10.938 -0.5414  0.1103  0.1541
   84SAPS   C11 7889   2.825   2.255  10.967  0.2076  0.3789  0.2682
   84SAPS  H11A 7890   2.846   2.361  10.939  1.8376 -0.5586 -2.3404
   84SAPS  H11B 7891   2.801   2.218  10.865  0.5735  1.1444 -0.1018
   84SAPS     P 7892   3.088   2.203  10.950 -0.1285 -0.1817  0.4603
   84SAPS   O13 7893   3.107   2.344  10.907  0.1931  0.1222 -0.1506
   84SAPS   O14 7894   3.188   2.142  11.042  1.0002  0.0359 -0.2606
   84SAPS   O12 7895   2.942   2.201  11.016 -0.7463  0.3865  0.3485
   84SAPS   O11 7896   3.087   2.124  10.813  0.1126 -0.0073  0.3795
   84SAPS    C1 7897   3.164   2.162  10.699 -0.0431 -0.2162 -0.5481
   84SAPS    HA 7898   3.126   2.258  10.659 -0.2850 -0.3235 -0.5778
   84SAPS    HB 7899   3.273   2.168  10.720 -0.0668  2.0215 -0.8765
   84SAPS    C2 7900   3.158   2.044  10.601 -0.3174 -1.0931 -0.2838
   84SAPS    HS 7901   3.226   2.080  10.520 -0.8147  1.5146  0.3402
   84SAPS   O21 7902   3.020   2.031  10.562  0.7256 -0.4226 -0.0939
   84SAPS   C21 7903   2.987   2.121  10.473 -0.1627 -0.4146  0.7828
   84SAPS   O22 7904   3.058   2.211  10.430 -0.5516 -0.0681 -0.5011
   84SAPS   C22 7905   2.842   2.088  10.432  0.5941  0.0688 -0.9263
   84SAPS   H2R 7906   2.852   1.979  10.412  1.4193 -0.1978  0.6995
   84SAPS   H2S 7907   2.770   2.099  10.516 -1.9489  0.1141 -3.0057
   84SAPS    C3 7908   3.211   1.907  10.657 -1.1918 -0.4452  0.1745
   84SAPS    HX 7909   3.135   1.862  10.725  0.6887 -2.3690  1.1121
   84SAPS    HY 7910   3.288   1.933  10.731  0.6847 -2.4515 -0.9494
   84SAPS   O31 7911   3.257   1.820  10.557  0.2443  0.3019  0.9636
   84SAPS   C31 7912   3.172   1.724  10.527  0.5528 -0.2361  0.0904
   84SAPS   O32 7913   3.058   1.716  10.568 -0.0240 -0.1218  0.0513
   84SAPS   C32 7914   3.239   1.630  10.424  0.9765 -0.1557 -0.1515
   84SAPS   H2X 7915   3.258   1.531  10.470  0.3974  0.1093  0.6731
   84SAPS   H2Y 7916   3.337   1.668  10.390  1.4853 -1.5198 -0.2903
   84SAPS   C23 7917   2.794   2.147  10.303  0.2973 -0.0526 -0.8099
   84SAPS   H3R 7918   2.863   2.221  10.258 -1.6466  2.2766 -0.2137
   84SAPS   H3S 7919   2.702   2.209  10.313  0.9428  0.5808  2.1581
   84SAPS   C24 7920   2.760   2.036  10.191  0.5829 -0.1867 -1.0368
   84SAPS   H4R 7921   2.832   1.951  10.191  1.0292  0.1831 -0.6748
   84SAPS   H4S 7922   2.767   2.092  10.096 -1.2879 -1.3808 -1.9241
   84SAPS   C25 7923   2.623   1.978  10.203  0.2938 -0.1694 -0.0734
   84SAPS   H5R 7924   2.592   1.938  10.301 -0.6807  2.0920  0.6054
   84SAPS   C26 7925   2.523   1.983  10.115  0.0705 -0.2660 -0.2543
   84SAPS   H6R 7926   2.428   1.943  10.152  0.3375 -2.5362 -1.8045
   84SAPS   C27 7927   2.524   2.047   9.980  0.8440  0.1565  0.3509
   84SAPS   H7R 7928   2.548   1.965   9.909  0.9545 -0.3979  1.0172
   84SAPS   H7S 7929   2.617   2.103   9.958 -1.1198  2.9861 -1.3294
   84SAPS   C28 7930   2.394   2.123   9.936 -0.1552  0.4874  0.1773
   84SAPS   H8R 7931   2.367   2.196  10.014  1.3893 -0.2741  1.4776
   84SAPS   C29 7932   2.329   2.122   9.819 -0.4986  0.3391 -0.5520
   84SAPS   H9R 7933   2.243   2.189   9.803 -1.8742 -1.0036  0.8619
   84SAPS  C210 7934   2.370   2.044   9.697 -0.8657 -0.0839 -0.0815
   84SAPS  H10R 7935   2.283   2.018   9.633  0.7598 -2.9492 -1.3059
   84SAPS  H10S 7936   2.411   1.949   9.737  1.8458  1.0583  0.0463
   84SAPS  C211 7937   2.471   2.099   9.604  0.7050 -0.1833 -0.0978
   84SAPS  H11R 7938   2.572   2.104   9.648  0.6641  0.1448 -0.0390
   84SAPS  C212 7939   2.466   2.104   9.471  0.1504 -0.4755  0.6553
   84SAPS  H12R 7940   2.554   2.136   9.413 -1.1990  3.8084  0.6473
   84SAPS  C213 7941   2.352   2.067   9.378 -0.1441 -0.1588 -0.4702
   84SAPS  H13R 7942   2.265   2.038   9.440 -0.8567 -1.0413 -1.8427
   84SAPS  H13S 7943   2.380   1.980   9.314  0.8843  0.8864 -1.4985
   84SAPS  C214 7944   2.323   2.183   9.290  0.3976  0.5528  0.1434
   84SAPS  H14R 7945   2.328   2.278   9.345 -0.5731 -0.3609  1.8946
   84SAPS  C215 7946   2.305   2.186   9.163  0.1168  0.4148 -0.4267
   84SAPS  H15R 7947   2.274   2.284   9.123 -0.6551  1.8266  3.1954
   84SAPS  C216 7948   2.330   2.078   9.063 -0.0952  0.5199  0.0138
   84SAPS  H16R 7949   2.308   2.103   8.957 -1.5606 -2.4323 -0.4953
   84SAPS  H16S 7950   2.265   1.989   9.082 -0.6139  1.0728  0.9189
   84SAPS  C217 7951   2.479   2.034   9.055  0.5165 -0.5754 -0.0882
   84SAPS  H17R 7952   2.486   1.948   8.985 -0.4226 -0.7303 -0.0029
   84SAPS  H17S 7953   2.516   1.996   9.153  0.2722  1.0275  0.6626
   84SAPS  C218 7954   2.567   2.152   9.013 -0.2477  0.2633 -0.4086
   84SAPS  H18R 7955   2.585   2.228   9.092  1.4506 -1.7307  1.1997
   84SAPS  H18S 7956   2.533   2.203   8.920 -0.5352  1.9423  0.5561
   84SAPS  C219 7957   2.711   2.095   8.976  0.5926  0.0530 -0.3429
   84SAPS  H19R 7958   2.735   2.020   9.055  2.2377 -2.4770 -3.0689
   84SAPS  H19S 7959   2.785   2.178   8.970 -0.1012  0.6158 -1.4073
   84SAPS  C220 7960   2.701   2.014   8.851  0.2780  0.1816  0.4136
   84SAPS  H20R 7961   2.800   2.012   8.799  0.5880  4.0054  0.5949
   84SAPS  H20S 7962   2.620   2.050   8.784  0.5888  0.5470  0.2278
   84SAPS  H20T 7963   2.680   1.910   8.883  1.1117  0.0434  0.5459
   84SAPS   C33 7964   3.160   1.603  10.286 -0.0582  0.7087 -0.0090
   84SAPS   H3X 7965   3.109   1.697  10.255 -1.2983  0.1537  0.2799
   84SAPS   H3Y 7966   3.082   1.523  10.288 -1.3179  1.8742 -0.7463
   84SAPS   C34 7967   3.258   1.554  10.177 -0.2382  0.3142 -0.9026
   84SAPS   H4X 7968   3.317   1.466  10.211  0.0307  0.5830 -0.6626
   84SAPS   H4Y 7969   3.327   1.637  10.151  0.8310 -0.7338 -1.5448
   84SAPS   C35 7970   3.186   1.529  10.049  0.3128 -0.2836  0.2480
   84SAPS   H5X 7971   3.098   1.597  10.050  0.6687  0.1771  0.4655
   84SAPS   H5Y 7972   3.135   1.431  10.057 -0.5353  0.1140 -0.1423
   84SAPS   C36 7973   3.263   1.552   9.915  0.1597 -0.3528 -0.0380
   84SAPS   H6X 7974   3.296   1.658   9.906 -0.9976 -0.1606 -3.4731
   84SAPS   H6Y 7975   3.185   1.540   9.838  1.2176 -0.7715 -1.0705
   84SAPS   C37 7976   3.377   1.455   9.884  0.1315 -1.1668  0.1041
   84SAPS   H7X 7977   3.362   1.352   9.921  0.6746 -1.6517 -1.0128
   84SAPS   H7Y 7978   3.458   1.505   9.942 -1.2700  0.9547  0.3606
   84SAPS   C38 7979   3.412   1.445   9.732 -0.1316  0.3067  0.1629
   84SAPS   H8X 7980   3.452   1.542   9.696 -1.3755  0.5909 -0.5135
   84SAPS   H8Y 7981   3.321   1.437   9.668  0.7417  1.4342 -1.2707
   84SAPS   C39 7982   3.503   1.322   9.727  0.7103  0.1768 -0.3599
   84SAPS   H9X 7983   3.442   1.229   9.713  0.3630  0.4074 -0.3930
   84SAPS   H9Y 7984   3.573   1.308   9.812  1.9939  1.8506 -1.1002
   84SAPS  C310 7985   3.596   1.318   9.598 -1.2905  0.0397  0.6334
   84SAPS  H10X 7986   3.653   1.223   9.607  0.6192  0.8093 -2.0395
   84SAPS  H10Y 7987   3.675   1.397   9.605 -0.8997 -0.1401 -1.2072
   84SAPS  C311 7988   3.527   1.329   9.458  0.0509 -0.2418 -0.1137
   84SAPS  H11X 7989   3.466   1.421   9.450 -0.3133 -0.1998  2.3854
   84SAPS  H11Y 7990   3.470   1.236   9.436 -2.1741  0.6089  1.7604
   84SAPS  C312 7991   3.626   1.362   9.346 -0.0909 -0.1012 -0.1486
   84SAPS  H12X 7992   3.687   1.268   9.343 -0.3675 -0.3077  0.5511
   84SAPS  H12Y 7993   3.690   1.447   9.376 -1.5563  0.3129  2.0270
   84SAPS  C313 7994   3.568   1.373   9.198  0.6311  0.5686  0.3974
   84SAPS  H13X 7995   3.656   1.370   9.130 -0.1186 -1.7982 -0.5598
   84SAPS  H13Y 7996   3.513   1.466   9.173 -0.3237 -0.7770 -3.1553
   84SAPS  C314 7997   3.475   1.255   9.157  0.1439  0.2582 -1.1275
   84SAPS  H14X 7998   3.372   1.263   9.199 -0.2483 -0.3833 -1.9565
   84SAPS  H14Y 7999   3.516   1.164   9.206 -1.3171 -0.7036 -1.6450
   84SAPS  C315 8000   3.473   1.244   9.006  0.3002  0.3539  0.4872
   84SAPS  H15X 8001   3.573   1.233   8.959  0.6424  4.1510  0.0525
   84SAPS  H15Y 8002   3.427   1.340   8.972  0.3097  0.6010  1.1733
   84SAPS  C316 8003   3.379   1.126   8.964  0.0442 -0.4209  0.8822
   84SAPS  H16X 8004   3.351   1.133   8.857 -2.4651 -0.8312  1.4701
   84SAPS  H16Y 8005   3.285   1.125   9.022  0.0498 -1.9108  0.8941
   84SAPS  C317 8006   3.435   0.984   8.988 -0.3621  0.3013 -0.4683
   84SAPS  H17X 8007   3.345   0.921   8.973 -0.9247  0.6699  1.1599
   84SAPS  H17Y 8008   3.450   0.962   9.096 -0.4342  2.4000  0.0270
   84SAPS  C318 8009   3.547   0.945   8.897  0.1923  0.3197  0.0784
   84SAPS  H18X 8010   3.568   0.836   8.906 -0.7768  0.2263  1.3809
   84SAPS  H18Y 8011   3.644   0.990   8.926  0.4573  0.1566 -0.5330
   84SAPS  H18Z 8012   3.530   0.968   8.789 -0.0326 -0.0971  0.0215
   85SAPS     N 8013   1.904   4.137  11.489  0.4085 -0.2917  0.3373
   85SAPS   HN1 8014   1.885   4.064  11.560  1.5234 -1.6491 -0.7020
   85SAPS   HN2 8015   2.002   4.167  11.509  0.6297  0.4654 -1.6239
   85SAPS   HN3 8016   1.837   4.216  11.496  0.8983  0.5819 -2.8767
   85SAPS   C12 8017   1.902   4.065  11.356  0.6921 -0.5999  0.6211
   85SAPS  H12A 8018   1.974   4.112  11.291  0.2778 -1.0748 -0.1968
   85SAPS   C13 8019   1.939   3.915  11.370  0.2423 -0.0121 -0.0549
   85SAPS  O13A 8020   1.935   3.858  11.482 -0.1886 -0.2043  0.0286
   85SAPS  O13B 8021   1.926   3.845  11.264  0.4753 -0.8564 -0.3404
   85SAPS   C11 8022   1.766   4.070  11.282  0.0936 -0.8846 -0.0265
   85SAPS  H11A 8023   1.701   4.001  11.340 -0.0114 -1.4710 -0.8152
   85SAPS  H11B 8024   1.768   4.027  11.180  0.1032  2.6425 -1.6694
   85SAPS     P 8025   1.653   4.269  11.153 -0.1320 -0.0846  0.4167
   85SAPS   O13 8026   1.601   4.168  11.055  0.2473 -0.3482  0.9975
   85SAPS   O14 8027   1.553   4.369  11.193  0.2747  1.1869 -0.0863
   85SAPS   O12 8028   1.718   4.206  11.286 -0.1475  0.8645  0.0120
   85SAPS   O11 8029   1.776   4.342  11.093  0.4391 -0.4079 -0.5482
   85SAPS    C1 8030   1.890   4.283  11.041 -0.8771 -0.1159  0.1116
   85SAPS    HA 8031   1.976   4.353  11.044 -1.8665  1.0879  2.4331
   85SAPS    HB 8032   1.938   4.203  11.102  1.6821 -0.1769 -1.7882
   85SAPS    C2 8033   1.856   4.227  10.897 -0.6933 -0.3827  0.9712
   85SAPS    HS 8034   1.777   4.149  10.900 -2.4777  0.8040 -4.1387
   85SAPS   O21 8035   1.984   4.195  10.842 -0.0309 -0.1206  0.2806
   85SAPS   C21 8036   2.026   4.073  10.839 -0.2560 -0.2272  0.5736
   85SAPS   O22 8037   1.965   3.983  10.892 -0.1221 -0.5175 -0.1169
   85SAPS   C22 8038   2.156   4.065  10.757  0.0210 -0.2211 -0.1450
   85SAPS   H2R 8039   2.194   4.167  10.735 -1.9785  1.5862  3.7698
   85SAPS   H2S 8040   2.216   4.005  10.828 -1.2522 -0.8639  0.4278
   85SAPS    C3 8041   1.782   4.323  10.806 -0.1338  0.4018  0.5000
   85SAPS    HX 8042   1.837   4.419  10.809 -0.0979  0.4504 -1.0220
   85SAPS    HY 8043   1.679   4.334  10.846 -0.4773  0.5388 -0.4000
   85SAPS   O31 8044   1.780   4.273  10.671 -0.3736 -0.0446  0.1726
   85SAPS   C31 8045   1.691   4.338  10.599 -0.5596 -1.0720 -0.0126
   85SAPS   O32 8046   1.641   4.446  10.628  0.2746  0.3569 -0.5231
   85SAPS   C32 8047   1.688   4.280  10.457  0.3674  0.2835  0.2951
   85SAPS   H2X 8048   1.738   4.181  10.459 -1.0884 -0.4681  0.5777
   85SAPS   H2Y 8049   1.747   4.346  10.389 -1.9294 -1.4735 -3.7900
   85SAPS   C23 8050   2.128   3.993  10.621 -0.0182  0.6584  0.6907
   85SAPS   H3R 8051   2.096   3.889  10.642  0.5854 -0.1641 -2.1093
   85SAPS   H3S 8052   2.231   3.987  10.578 -0.4388 -2.0201 -0.1399
   85SAPS   C24 8053   2.023   4.068  10.528 -0.0165 -0.6777  0.4334
   85SAPS   H4R 8054   1.930   4.096  10.582 -1.3959 -1.4358 -1.4452
   85SAPS   H4S 8055   1.983   3.996  10.454  1.6427 -3.4453  2.0451
   85SAPS   C25 8056   2.092   4.199  10.478  0.1270  0.0979  0.0571
   85SAPS   H5R 8057   2.137   4.264  10.554 -1.7121  0.2881  1.0350
   85SAPS   C26 8058   2.099   4.242  10.347 -0.0152 -0.3668  0.1402
   85SAPS   H6R 8059   2.153   4.334  10.320  0.8519 -1.3290 -1.5439
   85SAPS   C27 8060   2.054   4.163  10.227 -0.2647 -0.5508 -0.1257
   85SAPS   H7R 8061   2.058   4.055  10.254  1.0710 -0.2956  0.8259
   85SAPS   H7S 8062   2.126   4.196  10.149  0.3961 -1.2471  0.1732
   85SAPS   C28 8063   1.908   4.192  10.202 -0.6273  0.8921  0.3012
   85SAPS   H8R 8064   1.846   4.192  10.293  1.4384  1.0124  1.7827
   85SAPS   C29 8065   1.857   4.206  10.076  0.3377  1.0612  0.4710
   85SAPS   H9R 8066   1.748   4.217  10.066  0.3517 -0.0110 -1.4301
   85SAPS  C210 8067   1.938   4.185   9.947  0.2020  0.0868 -0.0477
   85SAPS  H10R 8068   1.992   4.088   9.950 -1.7297 -1.0141  2.1017
   85SAPS  H10S 8069   2.017   4.263   9.939 -1.1654  1.8190  2.1085
   85SAPS  C211 8070   1.854   4.209   9.827 -0.4258  0.6298  0.2938
   85SAPS  H11R 8071   1.755   4.256   9.838 -1.0505 -0.6492  0.2787
   85SAPS  C212 8072   1.889   4.170   9.702 -0.4671  0.5492 -0.1005
   85SAPS  H12R 8073   1.835   4.220   9.620 -1.2152 -0.6300 -0.3418
   85SAPS  C213 8074   2.020   4.105   9.660 -0.5738 -0.5864  0.0760
   85SAPS  H13R 8075   2.010   4.031   9.577  3.2581 -3.6029  2.0199
   85SAPS  H13S 8076   2.062   4.042   9.741 -0.1346 -2.3447 -1.4370
   85SAPS  C214 8077   2.118   4.214   9.624 -0.5983  0.0863 -0.8773
   85SAPS  H14R 8078   2.176   4.243   9.713 -1.0646  0.1179 -0.5786
   85SAPS  C215 8079   2.111   4.289   9.510 -0.3843  0.1227 -0.5648
   85SAPS  H15R 8080   2.186   4.367   9.493 -1.5158  2.2013  3.0721
   85SAPS  C216 8081   2.015   4.273   9.396 -0.3938  0.2927 -0.1328
   85SAPS  H16R 8082   1.933   4.348   9.410  0.7792  1.5588  0.1855
   85SAPS  H16S 8083   1.967   4.173   9.408  1.3132 -0.6104 -0.6064
   85SAPS  C217 8084   2.084   4.271   9.261 -0.1626  0.0128  0.3992
   85SAPS  H17R 8085   2.148   4.181   9.252  1.6263  1.1856  0.9128
   85SAPS  H17S 8086   2.143   4.363   9.244 -0.1173 -0.5005 -2.6177
   85SAPS  C218 8087   1.977   4.288   9.152 -0.0028 -0.3042  0.1252
   85SAPS  H18R 8088   1.947   4.395   9.152 -0.4432 -0.4037  1.5706
   85SAPS  H18S 8089   1.888   4.227   9.179 -0.6637  0.8564  0.6430
   85SAPS  C219 8090   2.026   4.262   9.006  0.2589 -0.0486 -0.8807
   85SAPS  H19R 8091   2.009   4.153   9.000 -1.4139 -0.3954  4.4776
   85SAPS  H19S 8092   2.128   4.305   9.001  0.9506 -1.1170  1.8766
   85SAPS  C220 8093   1.925   4.329   8.913 -0.5566 -0.4877  0.7114
   85SAPS  H20R 8094   1.927   4.438   8.935 -0.0408 -0.2377 -0.4753
   85SAPS  H20S 8095   1.824   4.283   8.919 -2.0735  2.4094 -0.5996
   85SAPS  H20T 8096   1.961   4.312   8.809 -1.6979  2.2526 -0.2163
   85SAPS   C33 8097   1.535   4.262  10.401 -0.1265 -0.0854 -0.0709
   85SAPS   H3X 8098   1.489   4.363  10.413 -2.0054 -1.1397  2.6087
   85SAPS   H3Y 8099   1.477   4.200  10.473 -0.2919 -1.7843 -1.6032
   85SAPS   C34 8100   1.530   4.224  10.255  0.3924  0.7081 -0.1066
   85SAPS   H4X 8101   1.594   4.134  10.247 -2.6705 -2.0550  3.2929
   85SAPS   H4Y 8102   1.550   4.309  10.186 -1.3019  1.4466  0.2452
   85SAPS   C35 8103   1.393   4.168  10.227  0.0068 -0.0810  0.4317
   85SAPS   H5X 8104   1.319   4.247  10.250 -0.1666 -0.2948  0.6194
   85SAPS   H5Y 8105   1.373   4.085  10.298 -1.2261  0.5435  0.8427
   85SAPS   C36 8106   1.377   4.128  10.077 -0.3822  0.6651 -0.3689
   85SAPS   H6X 8107   1.290   4.059  10.083  0.9115 -0.9164  1.7322
   85SAPS   H6Y 8108   1.460   4.062  10.043 -0.6666  1.5843 -3.1374
   85SAPS   C37 8109   1.342   4.238   9.975 -0.0210 -0.8843 -0.6728
   85SAPS   H7X 8110   1.428   4.307   9.988  0.5307 -1.9043  1.4066
   85SAPS   H7Y 8111   1.257   4.302  10.006 -0.0823 -0.3095 -1.9501
   85SAPS   C38 8112   1.341   4.214   9.832 -0.8466  0.1441  0.4580
   85SAPS   H8X 8113   1.347   4.316   9.787  1.0628 -0.2527 -0.2670
   85SAPS   H8Y 8114   1.248   4.168   9.791 -0.2102  0.6647 -1.7230
   85SAPS   C39 8115   1.458   4.120   9.798  0.0585  0.1831 -0.1254
   85SAPS   H9X 8116   1.417   4.019   9.819 -1.4521  1.1671  2.0043
   85SAPS   H9Y 8117   1.548   4.139   9.860 -0.7018 -1.5153  1.6198
   85SAPS  C310 8118   1.482   4.124   9.641 -0.1838 -0.0187 -0.3977
   85SAPS  H10X 8119   1.539   4.217   9.621  1.7197 -0.9641  0.3732
   85SAPS  H10Y 8120   1.389   4.129   9.580 -0.2447 -1.0484 -0.4057
   85SAPS  C311 8121   1.576   4.008   9.609  0.6711  0.3190 -0.2237
   85SAPS  H11X 8122   1.510   3.919   9.619 -0.0911  0.6583 -1.8733
   85SAPS  H11Y 8123   1.651   4.000   9.690  0.1905  1.3184  0.3422
   85SAPS  C312 8124   1.644   3.991   9.471  0.7491 -0.5571  0.1245
   85SAPS  H12X 8125   1.691   4.091   9.461 -3.0571  1.2896 -1.3396
   85SAPS  H12Y 8126   1.568   3.994   9.390  0.4216  1.6215  0.4378
   85SAPS  C313 8127   1.725   3.868   9.453  1.0883 -0.4213 -0.4439
   85SAPS  H13X 8128   1.666   3.773   9.452  0.9127 -0.3409 -2.7271
   85SAPS  H13Y 8129   1.795   3.858   9.539  2.0850 -0.6542 -1.2537
   85SAPS  C314 8130   1.802   3.873   9.324  0.4214 -0.0130  0.3787
   85SAPS  H14X 8131   1.856   3.969   9.311 -1.7254  1.0328 -1.3705
   85SAPS  H14Y 8132   1.727   3.883   9.243  1.2991 -2.3538 -0.8218
   85SAPS  C315 8133   1.881   3.745   9.319 -0.0392  0.0949 -0.2521
   85SAPS  H15X 8134   1.858   3.671   9.400  1.3348 -0.8307 -0.6836
   85SAPS  H15Y 8135   1.990   3.763   9.327 -0.1589  0.3505  1.0807
   85SAPS  C316 8136   1.848   3.669   9.184 -0.3305 -0.2193 -0.4820
   85SAPS  H16X 8137   1.843   3.741   9.100 -3.8616  1.5738  1.0383
   85SAPS  H16Y 8138   1.749   3.619   9.180  0.2587 -1.4579  0.0691
   85SAPS  C317 8139   1.958   3.575   9.143 -0.1672 -0.0976  0.9143
   85SAPS  H17X 8140   1.955   3.495   9.220  0.6549  0.1717  1.2338
   85SAPS  H17Y 8141   2.056   3.626   9.148  0.5243 -1.2340 -0.5017
   85SAPS  C318 8142   1.932   3.516   9.011 -0.0463  0.2631  0.1635
   85SAPS  H18X 8143   1.940   3.588   8.927 -0.9344  0.3570  0.1469
   85SAPS  H18Y 8144   1.838   3.458   9.017 -0.8665  1.4312 -0.7413
   85SAPS  H18Z 8145   2.008   3.436   9.004  0.7984  0.9284  1.3756
   86SAPS     N 8146   4.180   3.796  11.242  0.0886  0.3046  0.1301
   86SAPS   HN1 8147   4.254   3.809  11.314  0.9264 -1.4489 -0.3733
   86SAPS   HN2 8148   4.108   3.872  11.237 -1.6996 -1.2178  1.3660
   86SAPS   HN3 8149   4.131   3.709  11.269 -0.9867  0.6055 -0.7854
   86SAPS   C12 8150   4.259   3.787  11.119 -0.2494  0.9105 -0.1578
   86SAPS  H12A 8151   4.294   3.885  11.090 -0.0381  1.1923  0.9923
   86SAPS   C13 8152   4.382   3.699  11.149  0.8122 -0.3383  0.4897
   86SAPS  O13A 8153   4.410   3.655  11.264  0.1707 -0.6777 -0.6078
   86SAPS  O13B 8154   4.472   3.697  11.060  0.0809 -0.2499  0.2873
   86SAPS   C11 8155   4.171   3.739  10.999 -0.8884 -0.0262  0.2901
   86SAPS  H11A 8156   4.126   3.642  11.028  1.6146 -1.2683  0.2974
   86SAPS  H11B 8157   4.251   3.720  10.925 -0.7254  4.0456 -0.8101
   86SAPS     P 8158   4.076   3.911  10.824 -0.1518 -0.3039 -0.0369
   86SAPS   O13 8159   3.938   3.948  10.788 -0.0427  0.1544  0.3460
   86SAPS   O14 8160   4.167   4.030  10.833  0.7573  0.2976 -0.5619
   86SAPS   O12 8161   4.068   3.836  10.964 -0.1332  0.1955  0.4136
   86SAPS   O11 8162   4.149   3.810  10.726 -0.0124  0.7642 -0.0175
   86SAPS    C1 8163   4.098   3.684  10.680 -0.0734 -0.8105 -0.1600
   86SAPS    HA 8164   4.154   3.607  10.738 -0.8397 -1.8761 -0.8185
   86SAPS    HB 8165   3.995   3.672  10.720 -1.5858  1.4557 -3.0383
   86SAPS    C2 8166   4.092   3.668  10.524  0.1643  0.1303 -0.3780
   86SAPS    HS 8167   4.072   3.562  10.495  0.5709 -0.0491 -0.0207
   86SAPS   O21 8168   4.209   3.710  10.461  0.7385  0.4172  0.1916
   86SAPS   C21 8169   4.323   3.655  10.497 -0.1914  0.8003 -0.2534
   86SAPS   O22 8170   4.338   3.563  10.575  0.1902  0.1516 -0.2297
   86SAPS   C22 8171   4.438   3.710  10.415  0.3278 -0.3151 -0.2492
   86SAPS   H2R 8172   4.468   3.806  10.461 -0.3108 -0.4429  0.4598
   86SAPS   H2S 8173   4.518   3.634  10.431 -0.7180 -1.4031  0.0071
   86SAPS    C3 8174   3.980   3.768  10.471 -0.7312  1.1764  0.1863
   86SAPS    HX 8175   4.015   3.871  10.493 -1.7472  1.6850 -0.4837
   86SAPS    HY 8176   3.882   3.757  10.523 -0.5843  0.8724  0.3971
   86SAPS   O31 8177   3.965   3.766  10.326  0.1644 -0.0088  0.4959
   86SAPS   C31 8178   3.897   3.666  10.284 -1.0384 -0.5138  0.1180
   86SAPS   O32 8179   3.827   3.590  10.348 -0.5592 -0.1718 -0.1549
   86SAPS   C32 8180   3.903   3.659  10.135 -0.1012 -0.3053  0.1724
   86SAPS   H2X 8181   3.982   3.588  10.103 -2.5982 -2.5599 -1.4057
   86SAPS   H2Y 8182   3.929   3.762  10.103 -1.0015 -0.2641 -0.4660
   86SAPS   C23 8183   4.405   3.734  10.268  0.2917 -0.4517 -0.1175
   86SAPS   H3R 8184   4.478   3.803  10.222  2.4054 -1.0368  2.1665
   86SAPS   H3S 8185   4.303   3.778  10.265  0.6472  0.5042  1.1140
   86SAPS   C24 8186   4.414   3.605  10.181  0.0104 -0.6637  0.7124
   86SAPS   H4R 8187   4.381   3.519  10.242  1.3953 -0.1080  2.3304
   86SAPS   H4S 8188   4.522   3.590  10.162  0.7943  3.2467  1.0823
   86SAPS   C25 8189   4.320   3.623  10.064 -0.5301 -0.5233 -0.5297
   86SAPS   H5R 8190   4.212   3.615  10.083 -0.6310 -1.4397 -1.3888
   86SAPS   C26 8191   4.353   3.645   9.934  0.5215 -0.6934 -0.0621
   86SAPS   H6R 8192   4.270   3.659   9.863 -0.2624 -1.3346  0.6982
   86SAPS   C27 8193   4.494   3.655   9.882 -0.2479 -0.2690 -0.1334
   86SAPS   H7R 8194   4.528   3.557   9.844  0.6657 -0.1161  0.2563
   86SAPS   H7S 8195   4.579   3.677   9.951 -0.6732  0.5047  0.1651
   86SAPS   C28 8196   4.499   3.750   9.768 -1.0321  0.3076 -0.6936
   86SAPS   H8R 8197   4.512   3.854   9.801  2.7367  0.3125 -1.7336
   86SAPS   C29 8198   4.507   3.730   9.636 -0.4851 -0.0459  0.3932
   86SAPS   H9R 8199   4.496   3.815   9.568 -1.0766  0.2288  0.8331
   86SAPS  C210 8200   4.519   3.601   9.572  1.0700 -0.1766  0.2951
   86SAPS  H10R 8201   4.427   3.571   9.519  0.1232  1.5713  0.8908
   86SAPS  H10S 8202   4.540   3.522   9.647  1.0268 -2.0577 -1.5598
   86SAPS  C211 8203   4.644   3.601   9.480 -0.0875  0.2769  0.6833
   86SAPS  H11R 8204   4.741   3.615   9.529  0.8811  0.4872 -1.2109
   86SAPS  C212 8205   4.642   3.592   9.347 -0.2594  0.9992  0.4322
   86SAPS  H12R 8206   4.740   3.577   9.300  0.5409 -0.9308  2.5186
   86SAPS  C213 8207   4.520   3.573   9.260  0.2864  0.4246 -0.1311
   86SAPS  H13R 8208   4.527   3.637   9.169  2.2046  2.5402  1.3905
   86SAPS  H13S 8209   4.425   3.602   9.309  0.5575  0.4071  0.4136
   86SAPS  C214 8210   4.505   3.437   9.204 -0.6693  0.3686 -0.4296
   86SAPS  H14R 8211   4.573   3.365   9.251 -0.4375  2.7911  3.3561
   86SAPS  C215 8212   4.416   3.399   9.108 -0.7601 -0.1433 -0.0550
   86SAPS  H15R 8213   4.418   3.293   9.080 -0.4537 -0.4545  1.1111
   86SAPS  C216 8214   4.326   3.497   9.032 -0.1970 -0.2711  0.1338
   86SAPS  H16R 8215   4.282   3.574   9.098 -0.6273  0.5741 -1.1121
   86SAPS  H16S 8216   4.239   3.441   8.991 -0.2734  0.2167 -0.3734
   86SAPS  C217 8217   4.395   3.567   8.911 -0.8335 -0.0465 -0.0714
   86SAPS  H17R 8218   4.444   3.491   8.846  0.8542  0.9554 -0.0382
   86SAPS  H17S 8219   4.468   3.647   8.937 -0.0442 -0.7948  0.0878
   86SAPS  C218 8220   4.300   3.647   8.825  0.9899 -0.4103 -0.0350
   86SAPS  H18R 8221   4.247   3.723   8.888  1.9151  2.6076 -2.6248
   86SAPS  H18S 8222   4.218   3.582   8.788  1.6173 -1.2813  0.0887
   86SAPS  C219 8223   4.363   3.711   8.703 -0.4430 -0.0892 -0.2433
   86SAPS  H19R 8224   4.386   3.621   8.643 -1.0034 -2.2143  2.5431
   86SAPS  H19S 8225   4.453   3.769   8.731 -0.5258  0.6256 -1.3957
   86SAPS  C220 8226   4.266   3.804   8.635  0.2937  0.3634 -0.2064
   86SAPS  H20R 8227   4.168   3.751   8.625  0.9109 -0.8734  0.1092
   86SAPS  H20S 8228   4.303   3.840   8.537 -0.0087  1.4117  0.0489
   86SAPS  H20T 8229   4.257   3.897   8.695  0.7292  1.0807 -1.2263
   86SAPS   C33 8230   3.765   3.613  10.074 -0.0812  0.3497  0.6973
   86SAPS   H3X 8231   3.682   3.686  10.087  0.1641  0.9084 -0.7197
   86SAPS   H3Y 8232   3.747   3.513  10.119 -0.6808 -0.1818 -0.6703
   86SAPS   C34 8233   3.770   3.584   9.923  0.7560 -1.0037  0.5244
   86SAPS   H4X 8234   3.863   3.527   9.902 -0.6659 -2.3812 -2.6695
   86SAPS   H4Y 8235   3.782   3.682   9.873  0.1022 -1.0354  0.2978
   86SAPS   C35 8236   3.643   3.520   9.868 -0.4363 -0.1166  0.5780
   86SAPS   H5X 8237   3.546   3.572   9.871 -0.4624  0.0637 -1.8699
   86SAPS   H5Y 8238   3.638   3.423   9.923  0.6438 -0.6373 -0.1856
   86SAPS   C36 8239   3.662   3.493   9.722 -0.6206 -0.5174  0.4567
   86SAPS   H6X 8240   3.752   3.431   9.703 -0.8867 -0.4222 -1.3046
   86SAPS   H6Y 8241   3.681   3.587   9.666  1.6461 -0.6820  0.8842
   86SAPS   C37 8242   3.551   3.424   9.644 -0.1502 -0.5755 -0.5901
   86SAPS   H7X 8243   3.473   3.494   9.609  1.1065  1.3147  0.2052
   86SAPS   H7Y 8244   3.510   3.352   9.719  3.1248 -1.5776  0.4224
   86SAPS   C38 8245   3.599   3.338   9.528 -0.0000  0.2399 -0.1722
   86SAPS   H8X 8246   3.665   3.260   9.572  0.9848 -0.5963 -2.8798
   86SAPS   H8Y 8247   3.664   3.398   9.460  1.0541 -0.4824  0.1627
   86SAPS   C39 8248   3.489   3.268   9.451  0.0172 -0.4649  0.1896
   86SAPS   H9X 8249   3.425   3.342   9.400  0.3616 -0.7284 -0.6368
   86SAPS   H9Y 8250   3.420   3.212   9.518 -2.3716 -0.6701 -2.3150
   86SAPS  C310 8251   3.539   3.175   9.343 -0.1054  0.9563 -0.8222
   86SAPS  H10X 8252   3.529   3.072   9.383  2.8793  1.0722  0.4262
   86SAPS  H10Y 8253   3.649   3.187   9.331 -0.3589  2.3325 -2.1725
   86SAPS  C311 8254   3.479   3.201   9.206 -0.0760 -0.1248 -0.8037
   86SAPS  H11X 8255   3.492   3.309   9.186  1.2914  0.4928  2.7093
   86SAPS  H11Y 8256   3.370   3.182   9.217 -0.6252  2.5049 -0.9824
   86SAPS  C312 8257   3.539   3.117   9.092 -0.2765 -0.1974 -0.1312
   86SAPS  H12X 8258   3.503   3.012   9.100  0.3173 -0.4379 -0.5955
   86SAPS  H12Y 8259   3.649   3.128   9.098 -0.4063  1.4744 -0.3365
   86SAPS  C313 8260   3.506   3.170   8.950 -0.3839 -0.2918 -0.2473
   86SAPS  H13X 8261   3.512   3.280   8.960 -2.0013 -0.0795 -1.3264
   86SAPS  H13Y 8262   3.405   3.152   8.908  0.2845  1.3719 -2.7302
   86SAPS  C314 8263   3.601   3.122   8.850 -0.4462  0.2027 -0.4749
   86SAPS  H14X 8264   3.703   3.163   8.864  0.6052 -1.6178 -2.2892
   86SAPS  H14Y 8265   3.566   3.154   8.750  1.1272  2.0793 -0.4857
   86SAPS  C315 8266   3.609   2.962   8.849  0.0166  0.6167 -0.4409
   86SAPS  H15X 8267   3.511   2.915   8.871  0.9780 -0.6012  1.4926
   86SAPS  H15Y 8268   3.681   2.940   8.930 -0.9631  2.7912  1.1270
   86SAPS  C316 8269   3.671   2.917   8.715  0.5385 -0.0431 -0.0793
   86SAPS  H16X 8270   3.779   2.944   8.726  0.0458  1.3981  1.6096
   86SAPS  H16Y 8271   3.622   2.976   8.635  0.3279  0.1181  0.1676
   86SAPS  C317 8272   3.659   2.767   8.684 -0.1561 -0.4709  0.1646
   86SAPS  H17X 8273   3.551   2.741   8.674 -1.2038  3.2855  0.0964
   86SAPS  H17Y 8274   3.705   2.717   8.771 -1.9456 -0.1137  1.3860
   86SAPS  C318 8275   3.726   2.726   8.555 -0.1898 -0.3934 -0.0383
   86SAPS  H18X 8276   3.826   2.774   8.546  0.0046 -0.9788 -1.3409
   86SAPS  H18Y 8277   3.663   2.753   8.468 -0.5233 -1.7690 -0.2476
   86SAPS  H18Z 8278   3.734   2.615   8.547  0.2114 -0.2843 -1.4636
   87SAPS     N 8279   3.916   4.788  10.985  0.0477 -0.2907  0.2315
   87SAPS   HN1 8280   3.978   4.849  11.041  0.1828 -1.3631  1.2985
   87SAPS   HN2 8281   3.970   4.715  10.934  0.7310 -0.9609  1.8595
   87SAPS   HN3 8282   3.864   4.837  10.909 -0.9512 -0.8529  0.5290
   87SAPS   C12 8283   3.834   4.705  11.076  1.1116 -0.1824  0.2142
   87SAPS  H12A 8284   3.901   4.640  11.130  0.5135 -0.4570  0.6480
   87SAPS   C13 8285   3.758   4.772  11.195  0.3011  0.6163 -0.0660
   87SAPS  O13A 8286   3.785   4.896  11.216 -0.8566  0.3046  0.1067
   87SAPS  O13B 8287   3.702   4.693  11.280  0.0373 -0.4778 -0.0740
   87SAPS   C11 8288   3.723   4.623  10.999  0.1535 -0.4688  0.4479
   87SAPS  H11A 8289   3.680   4.691  10.922  1.6966 -0.9543 -0.9069
   87SAPS  H11B 8290   3.643   4.594  11.071 -1.1958 -2.7101 -1.8004
   87SAPS     P 8291   3.671   4.394  10.877 -0.0527  0.3304  0.6286
   87SAPS   O13 8292   3.738   4.273  10.822 -0.9866 -0.2665  0.4261
   87SAPS   O14 8293   3.558   4.366  10.972 -0.0504  0.2040  0.3005
   87SAPS   O12 8294   3.769   4.496  10.943  0.1410  0.2249 -0.4074
   87SAPS   O11 8295   3.617   4.474  10.758  0.3802 -0.0025  0.0342
   87SAPS    C1 8296   3.685   4.576  10.691  0.8143 -0.8030  0.0265
   87SAPS    HA 8297   3.632   4.673  10.698  0.5346 -1.0226  1.2938
   87SAPS    HB 8298   3.786   4.608  10.727  0.7243  2.5073 -2.2309
   87SAPS    C2 8299   3.701   4.542  10.539  0.8748  0.2678 -0.3041
   87SAPS    HS 8300   3.598   4.526  10.501  0.9406 -0.0811 -0.3330
   87SAPS   O21 8301   3.785   4.428  10.518 -0.3280  0.3373  0.5998
   87SAPS   C21 8302   3.717   4.318  10.473 -0.3420  0.7236  0.0184
   87SAPS   O22 8303   3.595   4.301  10.473  0.6478  0.5275 -0.4008
   87SAPS   C22 8304   3.816   4.219  10.410 -1.5833 -0.2309 -0.3587
   87SAPS   H2R 8305   3.882   4.279  10.342 -0.8586  1.5728  1.8280
   87SAPS   H2S 8306   3.877   4.186  10.497 -1.0482  0.1605 -0.5788
   87SAPS    C3 8307   3.771   4.648  10.453  0.0451  0.1133  0.1227
   87SAPS    HX 8308   3.881   4.641  10.465  0.3855 -1.9261 -2.9446
   87SAPS    HY 8309   3.729   4.744  10.489 -0.2951 -0.3466  0.9792
   87SAPS   O31 8310   3.747   4.636  10.313 -0.0408 -0.4616 -0.1365
   87SAPS   C31 8311   3.770   4.732  10.230  0.0755  0.0243 -0.4211
   87SAPS   O32 8312   3.816   4.840  10.263  0.4106  0.1536 -0.6219
   87SAPS   C32 8313   3.699   4.701  10.098 -1.0063  0.7719  0.1839
   87SAPS   H2X 8314   3.595   4.739  10.108 -1.6339 -1.1016  1.2535
   87SAPS   H2Y 8315   3.691   4.591  10.091  2.0572  0.3078  2.3771
   87SAPS   C23 8316   3.753   4.097  10.339 -0.5897 -0.5430  0.0053
   87SAPS   H3R 8317   3.663   4.062  10.393  0.7565 -3.0489  0.7975
   87SAPS   H3S 8318   3.828   4.015  10.339 -0.1645 -0.2206  2.4377
   87SAPS   C24 8319   3.718   4.129  10.193  0.4253  0.5425  0.0697
   87SAPS   H4R 8320   3.813   4.144  10.137  1.8180  1.1169  2.4679
   87SAPS   H4S 8321   3.676   4.232  10.191  1.8431  1.1611  0.8947
   87SAPS   C25 8322   3.631   4.030  10.132  0.0812  0.6400  0.2869
   87SAPS   H5R 8323   3.573   3.968  10.202  0.7566 -2.0410 -1.3619
   87SAPS   C26 8324   3.624   4.001  10.000  0.0307  0.4438  0.1488
   87SAPS   H6R 8325   3.549   3.925   9.976  1.1847 -0.9145  0.7101
   87SAPS   C27 8326   3.699   4.063   9.886 -0.3354 -0.1164  1.0033
   87SAPS   H7R 8327   3.711   4.171   9.912 -0.0700  0.0716  0.1340
   87SAPS   H7S 8328   3.634   4.071   9.796  0.3392  1.2195  0.6041
   87SAPS   C28 8329   3.838   4.008   9.853  0.3828  0.0818 -0.4720
   87SAPS   H8R 8330   3.907   3.997   9.938  0.9111 -1.8028 -1.0876
   87SAPS   C29 8331   3.877   3.957   9.735 -0.5977 -0.3366  0.1100
   87SAPS   H9R 8332   3.979   3.921   9.715 -0.5385 -0.4901  0.6704
   87SAPS  C210 8333   3.786   3.958   9.607 -0.0801 -0.1859 -0.0181
   87SAPS  H10R 8334   3.768   4.061   9.571 -0.9536 -0.3918 -0.2013
   87SAPS  H10S 8335   3.682   3.934   9.639  0.8783 -1.2865  2.5163
   87SAPS  C211 8336   3.842   3.857   9.506  0.6265  0.3416 -0.4036
   87SAPS  H11R 8337   3.909   3.781   9.549 -1.0311  0.4548  2.6572
   87SAPS  C212 8338   3.797   3.848   9.380 -0.2947  0.1239  0.2698
   87SAPS  H12R 8339   3.845   3.781   9.307  0.9633 -0.2874  1.4330
   87SAPS  C213 8340   3.687   3.931   9.317  0.0893  0.0764  0.0670
   87SAPS  H13R 8341   3.725   4.035   9.303  0.5789  0.0226  0.8957
   87SAPS  H13S 8342   3.599   3.942   9.384 -1.6191 -2.2270 -1.6617
   87SAPS  C214 8343   3.634   3.884   9.185 -0.0939 -0.9807  0.3452
   87SAPS  H14R 8344   3.552   3.810   9.186  0.5783 -1.7500  1.9780
   87SAPS  C215 8345   3.661   3.936   9.064 -0.2057  0.0914 -0.7150
   87SAPS  H15R 8346   3.617   3.905   8.968 -0.5355  0.2246 -0.6065
   87SAPS  C216 8347   3.757   4.048   9.036 -0.1676 -0.2979 -0.0342
   87SAPS  H16R 8348   3.831   4.069   9.116  0.9062  1.3178 -1.3726
   87SAPS  H16S 8349   3.705   4.142   9.008  3.8986  2.4558  0.7041
   87SAPS  C217 8350   3.839   4.017   8.904  0.3479  0.4173 -0.1037
   87SAPS  H17R 8351   3.773   3.990   8.819 -0.0113  0.4445  0.1636
   87SAPS  H17S 8352   3.913   3.937   8.925 -0.4031 -0.1533  0.4167
   87SAPS  C218 8353   3.922   4.132   8.843  0.0306  0.3422 -0.2167
   87SAPS  H18R 8354   3.995   4.173   8.916 -0.1292  0.9293 -0.3802
   87SAPS  H18S 8355   3.856   4.216   8.813 -0.4421  0.4050  0.9719
   87SAPS  C219 8356   4.009   4.079   8.723 -0.1290  0.0156 -0.2669
   87SAPS  H19R 8357   3.935   4.035   8.652 -0.0455 -1.2062  0.3889
   87SAPS  H19S 8358   4.070   3.995   8.761  2.1864 -0.0649 -3.6773
   87SAPS  C220 8359   4.096   4.187   8.654  0.8296 -0.2965 -0.4758
   87SAPS  H20R 8360   4.118   4.266   8.729 -0.0026 -1.7963  1.4128
   87SAPS  H20S 8361   4.042   4.220   8.563 -2.2416 -3.4224  0.0061
   87SAPS  H20T 8362   4.192   4.142   8.619  0.1319 -1.1131 -1.4083
   87SAPS   C33 8363   3.782   4.767   9.984  0.4796 -0.6664  0.5075
   87SAPS   H3X 8364   3.891   4.746   9.994  0.3910 -1.7720 -0.6688
   87SAPS   H3Y 8365   3.782   4.877  10.001  1.2483 -0.9467  2.7572
   87SAPS   C34 8366   3.734   4.745   9.838 -0.7415 -0.2227 -0.9532
   87SAPS   H4X 8367   3.630   4.776   9.814 -2.2696 -2.9841  1.4796
   87SAPS   H4Y 8368   3.725   4.635   9.828 -1.2656 -0.4514  1.4627
   87SAPS   C35 8369   3.829   4.786   9.721  0.1361 -1.4751 -0.7400
   87SAPS   H5X 8370   3.919   4.722   9.734  1.2123  0.2697  1.3464
   87SAPS   H5Y 8371   3.855   4.895   9.724 -0.6544 -1.2926  1.6772
   87SAPS   C36 8372   3.778   4.749   9.583  0.1632  0.2866 -0.8382
   87SAPS   H6X 8373   3.683   4.803   9.565  0.3758  0.5903 -1.0490
   87SAPS   H6Y 8374   3.764   4.639   9.577 -0.8045  0.3535 -0.0912
   87SAPS   C37 8375   3.877   4.787   9.467 -0.3401  0.6438  0.1127
   87SAPS   H7X 8376   3.971   4.729   9.481 -0.3746  1.0115  2.3672
   87SAPS   H7Y 8377   3.908   4.894   9.474  2.4383 -0.0614 -0.2825
   87SAPS   C38 8378   3.809   4.762   9.332 -0.4540 -0.7035 -0.1411
   87SAPS   H8X 8379   3.703   4.795   9.336 -1.0144 -2.3738 -0.5938
   87SAPS   H8Y 8380   3.810   4.651   9.323  0.4950 -0.6631 -0.7117
   87SAPS   C39 8381   3.891   4.842   9.231  0.2182 -0.6324 -0.4082
   87SAPS   H9X 8382   3.999   4.816   9.239  0.8182  1.0149 -2.4351
   87SAPS   H9Y 8383   3.884   4.952   9.239 -0.3244 -0.7388  0.7474
   87SAPS  C310 8384   3.857   4.815   9.085 -0.0170 -0.6167 -0.1074
   87SAPS  H10X 8385   3.749   4.833   9.064  0.2763 -0.3415 -1.4280
   87SAPS  H10Y 8386   3.890   4.713   9.057 -1.6676 -1.0584 -0.5958
   87SAPS  C311 8387   3.941   4.901   8.985 -0.2196  0.0310 -0.2052
   87SAPS  H11X 8388   4.045   4.874   9.014  0.4615  1.4026 -1.2327
   87SAPS  H11Y 8389   3.930   5.011   8.998  0.6730  0.3234 -1.7105
   87SAPS  C312 8390   3.908   4.863   8.838 -0.3155  0.4550  0.2019
   87SAPS  H12X 8391   3.799   4.883   8.829  0.0020  2.1992 -0.2276
   87SAPS  H12Y 8392   3.931   4.759   8.805 -0.8032  0.2511  0.4986
   87SAPS  C313 8393   3.964   4.949   8.731 -0.1127  0.7457 -0.0096
   87SAPS  H13X 8394   4.074   4.943   8.718 -0.1436 -0.2323  0.0867
   87SAPS  H13Y 8395   3.931   5.055   8.736  0.2207  0.8229  0.6142
   87SAPS  C314 8396   3.920   4.890   8.589 -0.5908  0.0979 -0.7273
   87SAPS  H14X 8397   3.809   4.883   8.588 -0.4943 -3.5208 -1.4750
   87SAPS  H14Y 8398   3.951   4.784   8.580  0.2930  0.4235 -1.6618
   87SAPS  C315 8399   3.952   4.968   8.474  0.7944 -0.0993  0.2479
   87SAPS  H15X 8400   3.914   4.928   8.377 -0.3971  0.1164  0.6133
   87SAPS  H15Y 8401   4.062   4.964   8.460  0.7575  1.1103 -0.4382
   87SAPS  C316 8402   3.893   5.107   8.467 -0.2955  0.5520  0.3105
   87SAPS  H16X 8403   3.935   5.168   8.550 -0.6535 -2.0490  2.5063
   87SAPS  H16Y 8404   3.782   5.109   8.470 -0.5752 -1.4017 -3.3286
   87SAPS  C317 8405   3.931   5.191   8.339 -0.9447 -0.0841  0.5546
   87SAPS  H17X 8406   4.042   5.191   8.329 -1.0511  1.6014 -1.1516
   87SAPS  H17Y 8407   3.890   5.293   8.350  0.4777  1.1458 -3.7622
   87SAPS  C318 8408   3.862   5.129   8.211 -0.1472 -0.3558 -0.9042
   87SAPS  H18X 8409   3.898   5.206   8.139  1.8563 -0.6049 -0.2280
   87SAPS  H18Y 8410   3.753   5.129   8.230  0.2891 -1.0525  2.1325
   87SAPS  H18Z 8411   3.892   5.025   8.187  0.4979 -0.4427  0.2372
   88SAPS     N 8412   6.207   3.674  10.863  1.3243 -0.3450  0.3955
   88SAPS   HN1 8413   6.179   3.711  10.769  0.3782  1.3685  1.3028
   88SAPS   HN2 8414   6.304   3.696  10.891  1.7203  0.5878 -1.5308
   88SAPS   HN3 8415   6.201   3.570  10.857 -0.7085 -0.1974 -1.3667
   88SAPS   C12 8416   6.107   3.728  10.964  0.2014  0.2595 -0.2835
   88SAPS  H12A 8417   6.131   3.676  11.056  0.7904 -0.7728 -1.0035
   88SAPS   C13 8418   6.126   3.873  11.001 -0.7631 -0.1119  0.1737
   88SAPS  O13A 8419   6.212   3.941  10.940 -0.2252  0.5417 -0.0054
   88SAPS  O13B 8420   6.067   3.917  11.102 -0.0036  0.3530 -0.0579
   88SAPS   C11 8421   5.963   3.693  10.902 -0.3779 -0.3841  0.1793
   88SAPS  H11A 8422   5.952   3.774  10.827  2.0462 -0.3618 -0.2258
   88SAPS  H11B 8423   5.896   3.701  10.990  1.2838 -0.0864  1.4748
   88SAPS     P 8424   5.836   3.468  10.858 -0.5282 -0.0171  0.4134
   88SAPS   O13 8425   5.854   3.404  10.988 -0.3600  0.0944 -0.1771
   88SAPS   O14 8426   5.713   3.546  10.839 -0.0720  0.9927  0.2026
   88SAPS   O12 8427   5.961   3.567  10.838 -0.3145  0.3585 -0.0100
   88SAPS   O11 8428   5.844   3.364  10.742 -0.5006  0.2458 -0.2965
   88SAPS    C1 8429   5.962   3.296  10.718 -0.3704  0.0160  0.3137
   88SAPS    HA 8430   6.041   3.310  10.794 -0.3626 -2.9146  0.9918
   88SAPS    HB 8431   5.941   3.188  10.733  1.8562 -0.4572  0.3450
   88SAPS    C2 8432   6.020   3.319  10.575 -0.1405 -0.3597 -0.4251
   88SAPS    HS 8433   5.937   3.330  10.502  0.6616 -0.3745 -1.3625
   88SAPS   O21 8434   6.101   3.212  10.530 -0.1394  0.1252  0.1989
   88SAPS   C21 8435   6.036   3.122  10.465 -0.3396  0.2083 -0.3386
   88SAPS   O22 8436   5.914   3.110  10.450  0.4248  0.1691 -0.0800
   88SAPS   C22 8437   6.128   3.008  10.425  0.2807 -0.2871  0.2095
   88SAPS   H2R 8438   6.214   3.001  10.495  0.5311  0.6269  0.0008
   88SAPS   H2S 8439   6.061   2.920  10.435 -0.4786  0.1403 -0.8647
   88SAPS    C3 8440   6.107   3.450  10.561 -0.6128  0.0875  0.4615
   88SAPS    HX 8441   6.187   3.439  10.637 -0.6877 -1.7477  0.3166
   88SAPS    HY 8442   6.058   3.544  10.594  0.0988  0.0906  1.5671
   88SAPS   O31 8443   6.165   3.457  10.435  0.0479 -0.5505  0.3288
   88SAPS   C31 8444   6.106   3.528  10.343 -0.4582 -0.0101 -0.4767
   88SAPS   O32 8445   5.993   3.573  10.348  0.4279  0.4557 -0.1923
   88SAPS   C32 8446   6.199   3.557  10.228 -0.1448  0.4849 -0.1887
   88SAPS   H2X 8447   6.237   3.455  10.203  2.4689  1.5532 -0.9510
   88SAPS   H2Y 8448   6.280   3.624  10.262  2.4307 -2.6650  0.3893
   88SAPS   C23 8449   6.174   3.020  10.276 -0.4143  0.7051 -0.7143
   88SAPS   H3R 8450   6.090   3.025  10.204 -0.7405  0.3714 -0.3679
   88SAPS   H3S 8451   6.220   2.924  10.244 -0.7315  1.0651 -2.3036
   88SAPS   C24 8452   6.269   3.141  10.266 -0.7386  0.1245  0.5879
   88SAPS   H4R 8453   6.350   3.126  10.340  0.4705 -1.6381 -0.9856
   88SAPS   H4S 8454   6.218   3.233  10.303 -0.0102 -0.0377  2.0525
   88SAPS   C25 8455   6.313   3.161  10.120 -0.6530 -0.2217 -1.2399
   88SAPS   H5R 8456   6.228   3.153  10.051 -0.3384 -2.6250 -1.4294
   88SAPS   C26 8457   6.435   3.165  10.060  0.7646  0.4094 -0.6941
   88SAPS   H6R 8458   6.441   3.190   9.953  0.9579  1.4031 -0.4608
   88SAPS   C27 8459   6.565   3.150  10.141  0.2337 -0.1160 -0.1429
   88SAPS   H7R 8460   6.548   3.143  10.251  0.0712 -3.1261 -0.2773
   88SAPS   H7S 8461   6.626   3.242  10.135  0.7980 -0.3972  0.9488
   88SAPS   C28 8462   6.638   3.027  10.099 -0.3432  0.1410  0.4659
   88SAPS   H8R 8463   6.625   2.943  10.169  0.9561 -0.2220  0.3001
   88SAPS   C29 8464   6.729   3.009   9.995 -0.1673 -0.3875  0.8472
   88SAPS   H9R 8465   6.774   2.909   9.984  0.0331 -0.2079 -0.0218
   88SAPS  C210 8466   6.766   3.106   9.884  0.3055 -0.1031 -0.0562
   88SAPS  H10R 8467   6.876   3.110   9.872  0.1383  0.7897 -1.7372
   88SAPS  H10S 8468   6.724   3.207   9.906  0.8500 -0.2535  1.8102
   88SAPS  C211 8469   6.713   3.061   9.755 -0.1149  0.1569  0.3795
   88SAPS  H11R 8470   6.710   2.954   9.734 -0.7948  0.5183 -1.5169
   88SAPS  C212 8471   6.656   3.133   9.657  0.1097  0.0031  0.4997
   88SAPS  H12R 8472   6.622   3.087   9.563  1.9146  0.3468 -0.3607
   88SAPS  C213 8473   6.644   3.284   9.653  0.8816 -0.3441 -0.3292
   88SAPS  H13R 8474   6.726   3.328   9.592 -0.0022 -0.0776 -1.3528
   88SAPS  H13S 8475   6.652   3.333   9.752  0.6940  1.6416 -1.2423
   88SAPS  C214 8476   6.503   3.317   9.600  0.2345 -0.1319 -0.5859
   88SAPS  H14R 8477   6.422   3.312   9.674 -0.7226 -2.5989 -1.7113
   88SAPS  C215 8478   6.469   3.347   9.473 -0.2122 -0.1285  0.3720
   88SAPS  H15R 8479   6.364   3.349   9.438  0.1977  0.0442 -0.8867
   88SAPS  C216 8480   6.562   3.355   9.352  0.4330  0.0229 -0.2589
   88SAPS  H16R 8481   6.644   3.419   9.391 -1.6945  3.7579 -1.3562
   88SAPS  H16S 8482   6.508   3.419   9.279  2.3712  0.0032 -1.8031
   88SAPS  C217 8483   6.605   3.232   9.277  0.1687 -0.2893  0.3674
   88SAPS  H17R 8484   6.508   3.185   9.248 -0.1459  1.2518 -1.3117
   88SAPS  H17S 8485   6.661   3.159   9.340  0.0282 -1.2054 -0.5394
   88SAPS  C218 8486   6.677   3.257   9.147  0.0823  0.4890  0.2647
   88SAPS  H18R 8487   6.782   3.289   9.164  1.0764 -2.2725 -0.1758
   88SAPS  H18S 8488   6.622   3.345   9.106 -0.7471  1.2465  2.7708
   88SAPS  C219 8489   6.684   3.127   9.058  0.0249 -0.1086  0.1397
   88SAPS  H19R 8490   6.731   3.046   9.119  0.1111  0.2611  0.5683
   88SAPS  H19S 8491   6.765   3.140   8.983  0.8175 -0.0091  1.0020
   88SAPS  C220 8492   6.550   3.093   8.993  0.0967  0.1998  0.1084
   88SAPS  H20R 8493   6.520   3.175   8.924  0.9254 -0.6521 -1.3196
   88SAPS  H20S 8494   6.475   3.081   9.073  0.4873  0.3117  0.4954
   88SAPS  H20T 8495   6.551   2.997   8.936  0.2674  0.9174 -1.1229
   88SAPS   C33 8496   6.122   3.609  10.092 -0.8811  0.7500 -0.4631
   88SAPS   H3X 8497   6.075   3.706  10.119 -0.6986  0.8675 -0.5674
   88SAPS   H3Y 8498   6.036   3.542  10.068 -0.2598 -0.6535  0.9744
   88SAPS   C34 8499   6.215   3.615   9.966  0.0865 -0.0352 -0.0228
   88SAPS   H4X 8500   6.246   3.514   9.931 -2.7083 -0.6563 -1.0060
   88SAPS   H4Y 8501   6.306   3.667  10.001  0.2633 -1.1145  1.1708
   88SAPS   C35 8502   6.161   3.680   9.843  0.2119  0.2459  0.5660
   88SAPS   H5X 8503   6.139   3.788   9.853 -1.5155  0.0904 -1.0754
   88SAPS   H5Y 8504   6.065   3.640   9.804 -0.3653  1.4422  0.7019
   88SAPS   C36 8505   6.253   3.666   9.724  0.6012  0.2349  0.3564
   88SAPS   H6X 8506   6.282   3.559   9.714 -1.2545 -0.2523 -0.0735
   88SAPS   H6Y 8507   6.342   3.729   9.746  0.5036  0.3559  0.4031
   88SAPS   C37 8508   6.173   3.708   9.598 -0.4379  0.2741 -0.5212
   88SAPS   H7X 8509   6.111   3.796   9.623 -0.4794  0.4356 -1.1822
   88SAPS   H7Y 8510   6.103   3.630   9.560  0.0962 -0.1919 -0.5491
   88SAPS   C38 8511   6.255   3.749   9.483  0.4406  0.2881  0.1937
   88SAPS   H8X 8512   6.336   3.679   9.453 -1.4243 -1.9704  0.1321
   88SAPS   H8Y 8513   6.316   3.839   9.507  1.7960 -0.5482  0.0139
   88SAPS   C39 8514   6.158   3.784   9.370 -0.0587 -0.8566  0.6118
   88SAPS   H9X 8515   6.076   3.846   9.413 -0.3622  0.2756 -1.4298
   88SAPS   H9Y 8516   6.103   3.694   9.334 -0.5974 -0.2348 -0.1576
   88SAPS  C310 8517   6.224   3.855   9.245 -0.5390  0.7103 -0.0894
   88SAPS  H10X 8518   6.324   3.896   9.270 -0.6411  1.8492 -1.4210
   88SAPS  H10Y 8519   6.151   3.926   9.199 -0.6474 -0.6982 -2.2211
   88SAPS  C311 8520   6.238   3.750   9.124 -0.2698  0.1780 -0.8769
   88SAPS  H11X 8521   6.143   3.704   9.093 -0.7070  0.7220 -0.3716
   88SAPS  H11Y 8522   6.306   3.669   9.159 -0.9055 -0.6341 -1.4929
   88SAPS  C312 8523   6.296   3.811   8.996  0.2787  0.2239 -0.0615
   88SAPS  H12X 8524   6.397   3.852   9.017  1.0801 -1.2525 -0.9286
   88SAPS  H12Y 8525   6.227   3.893   8.965 -0.4265 -0.7108 -1.0042
   88SAPS  C313 8526   6.293   3.712   8.883 -1.0313  0.4298  0.0266
   88SAPS  H13X 8527   6.195   3.661   8.889  0.1857 -2.1737 -0.6402
   88SAPS  H13Y 8528   6.364   3.630   8.909 -0.4899  0.2686 -1.8025
   88SAPS  C314 8529   6.325   3.753   8.743 -0.0477  0.3137 -0.1814
   88SAPS  H14X 8530   6.417   3.815   8.739 -0.3074  0.7002 -0.1894
   88SAPS  H14Y 8531   6.235   3.809   8.708  0.1441 -0.5117 -2.1119
   88SAPS  C315 8532   6.342   3.643   8.646  0.2962  0.2567  0.0668
   88SAPS  H15X 8533   6.247   3.585   8.644  0.5747 -0.1911 -0.5572
   88SAPS  H15Y 8534   6.418   3.565   8.666  0.4581  0.4314  0.1284
   88SAPS  C316 8535   6.357   3.691   8.495  0.1062  0.0148  0.4687
   88SAPS  H16X 8536   6.454   3.738   8.467 -0.8212  2.4161  1.0954
   88SAPS  H16Y 8537   6.282   3.772   8.489  0.0837  0.0275  0.8969
   88SAPS  C317 8538   6.314   3.586   8.389 -0.6389  0.4175 -0.2982
   88SAPS  H17X 8539   6.212   3.551   8.417  0.0766 -2.3741 -0.8596
   88SAPS  H17Y 8540   6.376   3.495   8.404 -0.1110  0.9725  0.9954
   88SAPS  C318 8541   6.298   3.637   8.246 -0.1249 -0.1828 -0.0087
   88SAPS  H18X 8542   6.259   3.558   8.179  1.0743  0.9504 -2.1556
   88SAPS  H18Y 8543   6.399   3.669   8.212 -0.8517  2.2368 -0.1448
   88SAPS  H18Z 8544   6.219   3.716   8.244 -1.2873 -1.3356 -1.3148
   89SAPS     N 8545   4.554   5.427  10.502 -0.0231  0.3171 -0.0377
   89SAPS   HN1 8546   4.590   5.508  10.448 -0.4172  0.2381 -0.4362
   89SAPS   HN2 8547   4.635   5.363  10.505  0.1024  0.4774 -0.0317
   89SAPS   HN3 8548   4.471   5.392  10.449 -1.5164  2.4932  0.6903
   89SAPS   C12 8549   4.520   5.477  10.636  0.5922 -0.1156 -0.8126
   89SAPS  H12A 8550   4.464   5.565  10.608  0.0290 -0.4402 -0.7008
   89SAPS   C13 8551   4.428   5.387  10.720 -0.4062  0.1415 -0.3207
   89SAPS  O13A 8552   4.395   5.273  10.677  0.3836 -0.2035  0.1459
   89SAPS  O13B 8553   4.369   5.435  10.822 -0.3850  0.0357  0.7114
   89SAPS   C11 8554   4.653   5.504  10.713  0.2923  0.2271  0.3423
   89SAPS  H11A 8555   4.686   5.409  10.760  0.0185 -1.2364 -2.2651
   89SAPS  H11B 8556   4.633   5.572  10.799 -1.8534 -1.1436  1.0310
   89SAPS     P 8557   4.894   5.599  10.674 -0.5081 -0.1378 -0.0755
   89SAPS   O13 8558   4.927   5.533  10.805 -0.2778 -0.4767  0.6714
   89SAPS   O14 8559   4.988   5.573  10.560 -0.2450  0.7913  0.5432
   89SAPS   O12 8560   4.758   5.549  10.629  0.7827 -0.2783  0.6231
   89SAPS   O11 8561   4.866   5.753  10.699  0.2697  0.6054 -0.3609
   89SAPS    C1 8562   4.770   5.840  10.634 -0.2925 -0.0842 -0.1265
   89SAPS    HA 8563   4.675   5.784  10.627  0.0160 -0.5720 -0.4749
   89SAPS    HB 8564   4.737   5.928  10.692 -0.5176 -1.2881  1.6410
   89SAPS    C2 8565   4.831   5.880  10.501  0.0546 -0.7101  0.2814
   89SAPS    HS 8566   4.845   5.784  10.448  1.4457  0.3982 -1.4888
   89SAPS   O21 8567   4.960   5.938  10.538  0.5336 -0.4491  0.4201
   89SAPS   C21 8568   5.067   5.900  10.473 -0.6849  0.6273 -0.0048
   89SAPS   O22 8569   5.066   5.811  10.386 -0.5399 -0.0153 -0.2002
   89SAPS   C22 8570   5.186   5.987  10.514 -0.1950  0.0748  0.7783
   89SAPS   H2R 8571   5.166   6.035  10.612  0.8234 -0.5156  1.2937
   89SAPS   H2S 8572   5.269   5.917  10.540 -1.9491 -1.1424  3.4717
   89SAPS    C3 8573   4.748   5.978  10.418  0.7737  0.5161  0.2980
   89SAPS    HX 8574   4.735   6.067  10.482  1.9890  0.4463  0.6544
   89SAPS    HY 8575   4.642   5.945  10.408  0.0756  2.3713  1.1454
   89SAPS   O31 8576   4.810   6.015  10.297 -0.1863 -0.3042 -0.3523
   89SAPS   C31 8577   4.820   5.919  10.210 -0.0616  0.2431  0.5376
   89SAPS   O32 8578   4.777   5.806  10.218 -0.7804 -0.1982  0.1290
   89SAPS   C32 8579   4.900   5.962  10.089  0.1441  0.5548 -0.6812
   89SAPS   H2X 8580   4.998   5.908  10.093 -0.4483 -0.5183  0.0228
   89SAPS   H2Y 8581   4.909   6.072  10.099  0.6479  0.4615  0.0152
   89SAPS   C23 8582   5.225   6.089  10.394 -0.0796  0.3775  0.6438
   89SAPS   H3R 8583   5.315   6.148  10.420  1.4510 -0.5557 -2.1707
   89SAPS   H3S 8584   5.144   6.166  10.384  0.1466  0.5275 -0.1135
   89SAPS   C24 8585   5.247   6.034  10.256  0.2472  0.8620 -0.0386
   89SAPS   H4R 8586   5.269   6.117  10.186 -0.4727  1.2966  0.2466
   89SAPS   H4S 8587   5.167   5.975  10.205  1.1131 -0.1653 -0.2707
   89SAPS   C25 8588   5.365   5.930  10.250 -0.4989 -0.0841 -0.5119
   89SAPS   H5R 8589   5.345   5.843  10.313 -0.5911  0.1481 -0.2199
   89SAPS   C26 8590   5.483   5.936  10.184  0.2312 -0.0771 -1.1195
   89SAPS   H6R 8591   5.558   5.858  10.198 -1.6971 -1.8759 -0.3115
   89SAPS   C27 8592   5.523   6.065  10.118 -0.0369 -0.9078 -0.3985
   89SAPS   H7R 8593   5.633   6.082  10.116 -0.2855  0.7527 -0.8419
   89SAPS   H7S 8594   5.497   6.151  10.183  1.1505 -0.1456 -0.8971
   89SAPS   C28 8595   5.462   6.093   9.982 -0.3046 -0.1467  0.1971
   89SAPS   H8R 8596   5.363   6.142   9.983 -0.5888 -0.2108  5.7107
   89SAPS   C29 8597   5.522   6.076   9.865 -0.9172  0.0008  0.2160
   89SAPS   H9R 8598   5.462   6.101   9.777  0.4429 -1.6460 -1.2624
   89SAPS  C210 8599   5.667   6.024   9.843  0.2981 -0.3947  0.3873
   89SAPS  H10R 8600   5.667   5.937   9.774  0.9967 -0.3544  0.3352
   89SAPS  H10S 8601   5.711   5.970   9.929  0.6842 -1.0933 -0.2299
   89SAPS  C211 8602   5.749   6.142   9.801  0.2024  1.0631  0.0117
   89SAPS  H11R 8603   5.824   6.185   9.868  2.5994 -0.8178 -1.3000
   89SAPS  C212 8604   5.761   6.189   9.676 -0.3076 -0.4190  0.0785
   89SAPS  H12R 8605   5.811   6.286   9.658  0.8638 -0.7895  1.2205
   89SAPS  C213 8606   5.674   6.135   9.571  0.0502  0.8264 -0.7262
   89SAPS  H13R 8607   5.598   6.212   9.544  0.3325  1.4629  0.2447
   89SAPS  H13S 8608   5.620   6.041   9.594  1.8449  0.2354  1.4602
   89SAPS  C214 8609   5.773   6.101   9.455 -0.0330 -0.3636  0.5056
   89SAPS  H14R 8610   5.881   6.090   9.475  0.1630  0.7895  0.1207
   89SAPS  C215 8611   5.737   6.112   9.325 -0.2489  0.2683  0.3743
   89SAPS  H15R 8612   5.811   6.068   9.256 -1.2956 -1.2385  0.1656
   89SAPS  C216 8613   5.599   6.142   9.275 -0.0957 -0.7197 -0.3752
   89SAPS  H16R 8614   5.584   6.251   9.293 -0.4297 -1.0438  1.5756
   89SAPS  H16S 8615   5.522   6.092   9.337 -1.0934  2.2661  1.0262
   89SAPS  C217 8616   5.581   6.087   9.130  0.1432  0.5232 -0.6365
   89SAPS  H17R 8617   5.476   6.089   9.095  0.2614 -3.4350 -1.7257
   89SAPS  H17S 8618   5.602   5.978   9.137  0.6989  0.6774  0.3782
   89SAPS  C218 8619   5.671   6.152   9.018 -0.3305 -0.3786 -0.8795
   89SAPS  H18R 8620   5.656   6.103   8.920  1.6440  0.3074 -1.5639
   89SAPS  H18S 8621   5.780   6.148   9.038 -0.1567  3.1212 -0.4025
   89SAPS  C219 8622   5.628   6.291   8.994  0.1557 -0.7667  0.7800
   89SAPS  H19R 8623   5.685   6.361   9.058  0.0738  0.3911 -0.3638
   89SAPS  H19S 8624   5.523   6.310   9.023  0.3210  0.3386  0.7148
   89SAPS  C220 8625   5.662   6.328   8.850 -0.5494 -0.1928 -0.0269
   89SAPS  H20R 8626   5.594   6.276   8.780 -0.7300  0.4203 -0.3217
   89SAPS  H20S 8627   5.769   6.319   8.824 -0.4342  1.5446 -0.2812
   89SAPS  H20T 8628   5.646   6.438   8.837  1.0355  0.7039  3.9138
   89SAPS   C33 8629   4.848   5.921   9.952 -0.7410 -0.4073  0.0178
   89SAPS   H3X 8630   4.760   5.986   9.932  0.4448  1.4606  0.6444
   89SAPS   H3Y 8631   4.806   5.818   9.962 -0.7926 -0.2794  1.3721
   89SAPS   C34 8632   4.965   5.931   9.851 -0.0559 -0.0901 -0.0678
   89SAPS   H4X 8633   5.034   5.845   9.859  0.0917 -0.1314 -1.5604
   89SAPS   H4Y 8634   5.017   6.024   9.883  0.1081 -0.1076 -0.2868
   89SAPS   C35 8635   4.903   5.938   9.707  0.6806  0.0235  0.1826
   89SAPS   H5X 8636   4.849   6.035   9.697  0.9865  0.4115  1.9229
   89SAPS   H5Y 8637   4.821   5.865   9.694  1.0042 -0.1217 -1.2590
   89SAPS   C36 8638   4.997   5.931   9.588 -0.1374 -0.0506  0.1258
   89SAPS   H6X 8639   5.045   5.832   9.598  2.2787  0.8366 -1.7066
   89SAPS   H6Y 8640   5.077   6.006   9.606  0.1755  0.1870 -1.9951
   89SAPS   C37 8641   4.917   5.957   9.456 -0.0738  0.3530  0.3832
   89SAPS   H7X 8642   4.890   6.065   9.455 -0.8487  0.2004  1.7317
   89SAPS   H7Y 8643   4.823   5.898   9.458  0.6054 -0.7981 -0.5074
   89SAPS   C38 8644   4.996   5.922   9.328  0.4180 -0.1655  0.3089
   89SAPS   H8X 8645   5.021   5.814   9.321  0.3374 -0.0774 -2.1437
   89SAPS   H8Y 8646   5.095   5.972   9.319  1.0300 -1.6895 -2.5275
   89SAPS   C39 8647   4.922   5.958   9.200  0.0067  0.1500  0.3433
   89SAPS   H9X 8648   4.942   6.063   9.169 -3.0917 -0.0579 -3.0325
   89SAPS   H9Y 8649   4.813   5.937   9.210 -0.4440  0.8431 -2.3605
   89SAPS  C310 8650   4.973   5.882   9.073  0.1948 -0.5464 -0.3249
   89SAPS  H10X 8651   4.958   5.773   9.090 -2.4367 -0.3493 -0.9100
   89SAPS  H10Y 8652   5.083   5.891   9.065  0.0695  0.4478 -1.0779
   89SAPS  C311 8653   4.900   5.932   8.944 -0.1391  0.5217  0.9720
   89SAPS  H11X 8654   4.893   6.042   8.932 -1.2924  0.2764 -0.8876
   89SAPS  H11Y 8655   4.796   5.894   8.947 -0.1587  0.6388  2.6966
   89SAPS  C312 8656   4.961   5.858   8.818  0.1118  0.0785 -0.1352
   89SAPS  H12X 8657   4.998   5.757   8.845  2.2327  0.8295 -0.0699
   89SAPS  H12Y 8658   5.058   5.905   8.793  0.9725 -1.3032  0.5298
   89SAPS  C313 8659   4.873   5.847   8.696 -0.1765 -0.2053  0.6710
   89SAPS  H13X 8660   4.825   5.946   8.680  0.4937 -0.0845 -0.6974
   89SAPS  H13Y 8661   4.794   5.778   8.734  0.2124 -4.1430 -4.5029
   89SAPS  C314 8662   4.938   5.785   8.570  0.7793  0.1773 -0.6930
   89SAPS  H14X 8663   4.853   5.756   8.505  0.3906 -1.3127  0.4446
   89SAPS  H14Y 8664   4.994   5.694   8.601  0.4342  1.2905  3.8223
   89SAPS  C315 8665   5.040   5.871   8.498 -0.3827 -0.1399 -0.4012
   89SAPS  H15X 8666   5.131   5.855   8.561 -1.2632  2.1255  1.6252
   89SAPS  H15Y 8667   5.014   5.979   8.503  1.4258  0.4298 -2.1335
   89SAPS  C316 8668   5.047   5.827   8.349  0.1107 -1.0575  0.2421
   89SAPS  H16X 8669   4.944   5.821   8.308  0.6011 -0.1607 -1.1834
   89SAPS  H16Y 8670   5.095   5.727   8.344  2.9879  0.1924  0.9568
   89SAPS  C317 8671   5.118   5.925   8.261 -0.1914  0.3909  0.2519
   89SAPS  H17X 8672   5.094   6.031   8.286 -2.7758  0.4047 -1.8628
   89SAPS  H17Y 8673   5.085   5.923   8.155  0.8907  1.1182 -0.1233
   89SAPS  C318 8674   5.276   5.910   8.282  0.0762  0.4021  0.1536
   89SAPS  H18X 8675   5.309   5.806   8.262  2.8620  1.4431 -1.2926
   89SAPS  H18Y 8676   5.293   5.943   8.386  1.3841 -0.7288  0.3197
   89SAPS  H18Z 8677   5.322   5.976   8.205  1.6377  0.1235  0.8266
   90SAPS     N 8678   0.432   5.677  10.893  0.5859 -0.0264  0.0076
   90SAPS   HN1 8679   0.519   5.735  10.899  1.5578 -1.4750  0.3619
   90SAPS   HN2 8680   0.430   5.652  10.792 -1.1787  3.0116 -0.8577
   90SAPS   HN3 8681   0.352   5.741  10.914 -1.2961 -2.5000  0.7578
   90SAPS   C12 8682   0.443   5.564  10.987 -1.1667  0.3332 -0.7874
   90SAPS  H12A 8683   0.464   5.603  11.086 -1.1967 -1.7373  0.0908
   90SAPS   C13 8684   0.320   5.477  11.003  0.0271 -0.8941  0.1496
   90SAPS  O13A 8685   0.211   5.506  10.936  0.5629  0.4405  0.0983
   90SAPS  O13B 8686   0.316   5.393  11.096  0.8652 -0.1750  0.2855
   90SAPS   C11 8687   0.573   5.478  10.943 -0.1636 -0.3001 -0.4363
   90SAPS  H11A 8688   0.554   5.426  10.846  2.5687  0.1239 -1.2853
   90SAPS  H11B 8689   0.580   5.402  11.024 -1.5835 -1.4571 -1.3289
   90SAPS     P 8690   0.770   5.580  10.797  0.1645 -0.0472 -0.2063
   90SAPS   O13 8691   0.889   5.665  10.826 -0.0192 -0.1535  0.3783
   90SAPS   O14 8692   0.800   5.444  10.742 -0.3532 -0.2042  0.2246
   90SAPS   O12 8693   0.695   5.551  10.938 -0.0190 -0.3676 -0.2672
   90SAPS   O11 8694   0.663   5.642  10.701  0.0480  0.1448  0.4060
   90SAPS    C1 8695   0.701   5.737  10.602  0.3859 -0.8850  0.5147
   90SAPS    HA 8696   0.746   5.820  10.660 -1.5940  0.6773 -0.0589
   90SAPS    HB 8697   0.752   5.700  10.510 -0.5226  0.8256 -0.7506
   90SAPS    C2 8698   0.573   5.798  10.527 -0.5770 -0.6606 -0.2090
   90SAPS    HS 8699   0.513   5.849  10.605  0.3458 -0.2150  0.2356
   90SAPS   O21 8700   0.507   5.701  10.454  0.3389  0.2807  0.5862
   90SAPS   C21 8701   0.434   5.617  10.519  0.3482 -0.4547  0.2240
   90SAPS   O22 8702   0.387   5.636  10.632 -0.2569 -0.4788 -0.7398
   90SAPS   C22 8703   0.400   5.496  10.425  0.7452  0.0508 -0.0095
   90SAPS   H2R 8704   0.498   5.451  10.400  0.9226  0.0281  0.6988
   90SAPS   H2S 8705   0.353   5.421  10.492 -1.8279  0.5158 -1.1499
   90SAPS    C3 8706   0.614   5.923  10.439  0.5777  0.3634 -0.1138
   90SAPS    HX 8707   0.659   5.986  10.518 -1.4756 -0.4372  1.8135
   90SAPS    HY 8708   0.518   5.966  10.403  0.0218 -1.2863 -0.6963
   90SAPS   O31 8709   0.706   5.904  10.334  0.4777  0.0029 -0.2931
   90SAPS   C31 8710   0.688   5.996  10.234 -0.3436  0.1731 -0.0815
   90SAPS   O32 8711   0.609   6.083  10.244 -0.0843 -0.9321 -0.4011
   90SAPS   C32 8712   0.786   5.975  10.120 -0.3649  0.0340 -0.3317
   90SAPS   H2X 8713   0.857   5.891  10.134  1.7112  1.5285 -1.3090
   90SAPS   H2Y 8714   0.851   6.065  10.116 -1.2550  0.7777  1.1086
   90SAPS   C23 8715   0.309   5.525  10.304 -0.7634 -0.4101  0.2139
   90SAPS   H3R 8716   0.351   5.601  10.235 -0.2403 -1.0390 -0.1702
   90SAPS   H3S 8717   0.217   5.579  10.335 -1.1526  0.0233 -1.5946
   90SAPS   C24 8718   0.254   5.418  10.213  0.1064  0.0687  0.3385
   90SAPS   H4R 8719   0.322   5.330  10.210  1.7069  1.0758  3.3282
   90SAPS   H4S 8720   0.261   5.465  10.113  1.0349  1.6331  1.1136
   90SAPS   C25 8721   0.113   5.374  10.251  0.4981  0.7757 -0.0239
   90SAPS   H5R 8722   0.131   5.284  10.310  2.3327 -0.0116 -1.6389
   90SAPS   C26 8723  -0.009   5.417  10.226  0.0524  0.3395  0.0551
   90SAPS   H6R 8724  -0.098   5.369  10.270 -1.6423  1.2155 -2.1952
   90SAPS   C27 8725  -0.051   5.530  10.147  0.7848 -0.8094  0.9738
   90SAPS   H7R 8726  -0.000   5.510  10.050  0.6161  0.4923  0.5988
   90SAPS   H7S 8727  -0.006   5.623  10.189 -0.1478  0.4059 -0.5648
   90SAPS   C28 8728  -0.201   5.546  10.131 -0.4324  0.4035  0.2748
   90SAPS   H8R 8729  -0.267   5.536  10.219 -0.4799 -0.6700  0.1298
   90SAPS   C29 8730  -0.273   5.554  10.024 -0.4438  0.1467  0.9057
   90SAPS   H9R 8731  -0.382   5.564  10.035 -0.2784  2.4212  1.0310
   90SAPS  C210 8732  -0.230   5.547   9.879 -0.4742  0.0815 -0.0950
   90SAPS  H10R 8733  -0.129   5.591   9.882 -0.6586  0.5000  3.2131
   90SAPS  H10S 8734  -0.301   5.608   9.819 -0.3319  1.3683  1.0017
   90SAPS  C211 8735  -0.224   5.399   9.834  0.4441  0.5180  0.0566
   90SAPS  H11R 8736  -0.184   5.333   9.912 -1.7336  0.7924  1.4952
   90SAPS  C212 8737  -0.280   5.346   9.723 -0.8256  0.0805  0.3004
   90SAPS  H12R 8738  -0.261   5.241   9.694  1.2208  0.2145  1.0547
   90SAPS  C213 8739  -0.360   5.423   9.613 -0.5777 -0.8013 -0.6563
   90SAPS  H13R 8740  -0.426   5.497   9.664  0.9709  1.2482 -1.4687
   90SAPS  H13S 8741  -0.412   5.360   9.538 -2.1534  1.6877 -1.7808
   90SAPS  C214 8742  -0.255   5.503   9.540  0.3191  0.4291 -0.4935
   90SAPS  H14R 8743  -0.199   5.575   9.601 -1.4144 -0.1131  1.9067
   90SAPS  C215 8744  -0.228   5.508   9.406  0.6093 -0.6530 -0.4812
   90SAPS  H15R 8745  -0.145   5.577   9.385 -0.8363  2.0096  1.9070
   90SAPS  C216 8746  -0.289   5.442   9.291 -0.0134 -0.3014  0.4968
   90SAPS  H16R 8747  -0.354   5.357   9.320  0.2646 -0.8619 -0.4940
   90SAPS  H16S 8748  -0.205   5.391   9.238  1.9391  1.7239  1.4845
   90SAPS  C217 8749  -0.357   5.534   9.192 -0.3267  0.2104  0.6217
   90SAPS  H17R 8750  -0.283   5.611   9.163 -1.1381  1.3760  1.5367
   90SAPS  H17S 8751  -0.438   5.591   9.243 -1.0856 -0.9644  0.7646
   90SAPS  C218 8752  -0.411   5.461   9.065 -0.5537  0.0250 -0.4778
   90SAPS  H18R 8753  -0.521   5.476   9.067 -0.4413  0.8917  1.2004
   90SAPS  H18S 8754  -0.379   5.354   9.060  1.1758  0.5483 -1.6484
   90SAPS  C219 8755  -0.361   5.526   8.942  0.2298  0.2817 -0.5895
   90SAPS  H19R 8756  -0.390   5.633   8.933 -0.9241  0.0975  0.6082
   90SAPS  H19S 8757  -0.403   5.479   8.850 -1.6215 -0.4162  0.5604
   90SAPS  C220 8758  -0.209   5.519   8.933 -0.0737  0.0172  0.6447
   90SAPS  H20R 8759  -0.169   5.542   8.832  0.6739  2.3229  1.3890
   90SAPS  H20S 8760  -0.177   5.418   8.966  2.4843  1.3016  2.4172
   90SAPS  H20T 8761  -0.150   5.582   9.003 -1.2997  1.5196  0.3832
   90SAPS   C33 8762   0.723   5.968   9.978  0.6217  0.1471  0.3373
   90SAPS   H3X 8763   0.802   5.998   9.906  0.5098 -0.9068 -0.2425
   90SAPS   H3Y 8764   0.644   6.047   9.973 -0.4027 -0.8408  0.4407
   90SAPS   C34 8765   0.663   5.836   9.942 -0.2636 -0.0022 -0.0252
   90SAPS   H4X 8766   0.559   5.827   9.980 -0.0040 -2.6880  0.2209
   90SAPS   H4Y 8767   0.719   5.755   9.994  0.9782  1.7444  1.5391
   90SAPS   C35 8768   0.657   5.806   9.785  0.2031  0.5377 -0.2907
   90SAPS   H5X 8769   0.602   5.889   9.736  1.2150  0.3527 -1.8119
   90SAPS   H5Y 8770   0.611   5.706   9.766  4.3486 -1.3907 -1.3918
   90SAPS   C36 8771   0.789   5.813   9.720 -0.9466  0.0534 -0.2200
   90SAPS   H6X 8772   0.864   5.777   9.794 -2.2633 -0.2783  1.0086
   90SAPS   H6Y 8773   0.808   5.921   9.708 -1.8522  0.4519  1.5215
   90SAPS   C37 8774   0.804   5.736   9.590 -0.3890 -0.3978 -0.1726
   90SAPS   H7X 8775   0.790   5.628   9.609 -0.3982 -0.3837 -0.1007
   90SAPS   H7Y 8776   0.907   5.762   9.556 -0.0209 -1.1003  0.3809
   90SAPS   C38 8777   0.702   5.784   9.481  0.4759  0.3762  0.1615
   90SAPS   H8X 8778   0.711   5.894   9.467  0.3636  0.2874 -0.6393
   90SAPS   H8Y 8779   0.600   5.755   9.515  0.7252 -1.3646 -0.4908
   90SAPS   C39 8780   0.730   5.716   9.348  0.2271 -0.1214 -0.4466
   90SAPS   H9X 8781   0.742   5.609   9.373 -0.9731 -0.3938 -0.9682
   90SAPS   H9Y 8782   0.827   5.759   9.314 -0.4730 -0.1732 -2.6442
   90SAPS  C310 8783   0.632   5.735   9.237 -0.0775  0.3456  0.1005
   90SAPS  H10X 8784   0.647   5.843   9.218  2.4143  0.0338 -0.0606
   90SAPS  H10Y 8785   0.525   5.727   9.266  0.3481  1.6151  2.2150
   90SAPS  C311 8786   0.670   5.662   9.110 -0.3719  0.0412  0.6370
   90SAPS  H11X 8787   0.609   5.712   9.031 -1.0882 -0.6245  0.7490
   90SAPS  H11Y 8788   0.647   5.553   9.114 -1.0232  0.1665  0.5288
   90SAPS  C312 8789   0.817   5.674   9.064  0.3120  0.4543 -0.7106
   90SAPS  H12X 8790   0.886   5.619   9.131 -1.6780 -3.3613 -1.5308
   90SAPS  H12Y 8791   0.853   5.778   9.081  2.4699 -0.2516 -0.6841
   90SAPS  C313 8792   0.850   5.615   8.921 -0.2560  0.0944  0.7337
   90SAPS  H13X 8793   0.794   5.521   8.904  1.5994 -0.9717  0.2487
   90SAPS  H13Y 8794   0.959   5.596   8.931  0.1880  1.7654 -0.4719
   90SAPS  C314 8795   0.831   5.721   8.806 -0.1790 -0.7373  0.4789
   90SAPS  H14X 8796   0.883   5.682   8.716 -1.1871  0.3526 -0.6269
   90SAPS  H14Y 8797   0.882   5.815   8.836  0.4811 -1.0673  0.3879
   90SAPS  C315 8798   0.690   5.760   8.756 -0.7288 -0.6000  0.0807
   90SAPS  H15X 8799   0.620   5.781   8.840 -1.1495 -1.0710 -0.1472
   90SAPS  H15Y 8800   0.650   5.665   8.715 -1.9367  0.8926 -2.4132
   90SAPS  C316 8801   0.689   5.862   8.636 -0.5112  0.4485  0.3877
   90SAPS  H16X 8802   0.596   5.844   8.579  0.0691  3.3236 -1.6815
   90SAPS  H16Y 8803   0.783   5.841   8.579 -0.6403  1.4677 -0.2170
   90SAPS  C317 8804   0.704   6.002   8.681  0.5756 -0.5378 -0.0458
   90SAPS  H17X 8805   0.788   6.012   8.753 -1.4871 -1.4607  2.7200
   90SAPS  H17Y 8806   0.609   6.032   8.730  0.9349 -0.9394  0.9234
   90SAPS  C318 8807   0.722   6.095   8.563  0.5742  0.4121  0.9202
   90SAPS  H18X 8808   0.701   6.202   8.581  1.0002  0.5575  0.5918
   90SAPS  H18Y 8809   0.647   6.070   8.485 -0.6339  1.5443  1.7025
   90SAPS  H18Z 8810   0.825   6.085   8.522 -0.4940 -1.1646 -1.6768
   91SAPS     N 8811   6.102   3.004   6.225  0.5631 -0.0065  0.1683
   91SAPS   HN1 8812   6.057   2.968   6.138  1.1811 -0.8903  0.1981
   91SAPS   HN2 8813   6.051   2.959   6.304  0.4273 -1.6271 -0.7929
   91SAPS   HN3 8814   6.089   3.107   6.222 -0.5985 -0.1252 -2.9994
   91SAPS   C12 8815   6.250   2.965   6.234  0.1864  0.3237  0.5982
   91SAPS  H12A 8816   6.275   2.966   6.339  2.5918  1.8510  0.1056
   91SAPS   C13 8817   6.296   2.823   6.183  0.6726  0.2050 -0.0848
   91SAPS  O13A 8818   6.200   2.742   6.156  0.1522  0.3685  0.1052
   91SAPS  O13B 8819   6.414   2.784   6.208  0.2987 -0.1659 -0.0848
   91SAPS   C11 8820   6.339   3.081   6.162 -0.5256 -0.1004  0.0211
   91SAPS  H11A 8821   6.325   3.060   6.054 -1.0773  1.9280 -0.3505
   91SAPS  H11B 8822   6.447   3.070   6.188 -0.2697 -0.8918 -1.2744
   91SAPS     P 8823   6.346   3.339   6.133 -0.1308 -0.3921  0.0644
   91SAPS   O13 8824   6.466   3.306   6.057  1.0411 -0.6702 -0.0602
   91SAPS   O14 8825   6.234   3.404   6.061  1.0938  0.8999  0.1614
   91SAPS   O12 8826   6.290   3.207   6.204  0.2099 -0.4037 -0.1201
   91SAPS   O11 8827   6.374   3.428   6.257  0.4221 -0.1200 -0.2922
   91SAPS    C1 8828   6.493   3.417   6.340  0.1240 -0.0161  0.0539
   91SAPS    HA 8829   6.584   3.427   6.278 -0.1526  0.7559 -0.2359
   91SAPS    HB 8830   6.491   3.513   6.396 -2.1518  0.4856 -0.8067
   91SAPS    C2 8831   6.507   3.295   6.435  0.2126  0.0042  0.2028
   91SAPS    HS 8832   6.526   3.201   6.379 -1.5445 -0.1955 -0.1316
   91SAPS   O21 8833   6.383   3.284   6.512 -0.2978 -0.3045 -0.0737
   91SAPS   C21 8834   6.367   3.168   6.564 -0.7982 -0.2151 -0.6130
   91SAPS   O22 8835   6.444   3.074   6.555  0.2937  0.5296  0.0253
   91SAPS   C22 8836   6.230   3.163   6.629 -0.6398  0.0819  0.0232
   91SAPS   H2R 8837   6.248   3.222   6.721 -0.2297  0.7951 -0.5024
   91SAPS   H2S 8838   6.159   3.215   6.562 -0.8322  0.6609  0.6649
   91SAPS    C3 8839   6.625   3.318   6.538 -0.0035  0.1597 -0.7303
   91SAPS    HX 8840   6.716   3.336   6.477  1.8905  1.1618  2.2000
   91SAPS    HY 8841   6.634   3.233   6.609  0.5809  0.5091 -0.3809
   91SAPS   O31 8842   6.615   3.436   6.616  0.1278 -1.0049  0.1600
   91SAPS   C31 8843   6.532   3.437   6.716 -0.4230  0.4307  0.2671
   91SAPS   O32 8844   6.497   3.336   6.775  0.2768  0.1188  0.0598
   91SAPS   C32 8845   6.499   3.586   6.733 -0.0831  0.1434  0.8695
   91SAPS   H2X 8846   6.549   3.649   6.657  1.0603 -0.6580  0.9500
   91SAPS   H2Y 8847   6.551   3.622   6.825 -1.5722 -0.4814  2.0159
   91SAPS   C23 8848   6.176   3.022   6.662 -0.7199 -0.7477  0.5182
   91SAPS   H3R 8849   6.233   2.965   6.739  1.0651 -1.6442 -1.3869
   91SAPS   H3S 8850   6.168   2.962   6.569 -2.9805 -0.6688  0.5871
   91SAPS   C24 8851   6.035   3.025   6.716  0.8870 -0.2598 -0.1063
   91SAPS   H4R 8852   5.963   3.068   6.642  1.6289 -0.2522 -0.8360
   91SAPS   H4S 8853   6.028   3.094   6.803 -1.2443 -0.1977 -0.2653
   91SAPS   C25 8854   5.968   2.897   6.768 -0.3780 -0.3800  0.0758
   91SAPS   H5R 8855   5.962   2.812   6.699 -2.2176  2.3284 -3.4312
   91SAPS   C26 8856   5.904   2.887   6.888 -0.0264 -0.0057  0.1382
   91SAPS   H6R 8857   5.845   2.795   6.901  1.1519 -0.9461 -0.9430
   91SAPS   C27 8858   5.880   2.994   6.993 -0.5368 -0.1545 -0.0616
   91SAPS   H7R 8859   5.830   3.083   6.949  0.2052  1.6012  2.4362
   91SAPS   H7S 8860   5.980   3.028   7.027 -1.1657  1.6105  0.1185
   91SAPS   C28 8861   5.796   2.955   7.109 -1.3809  0.3657  0.1331
   91SAPS   H8R 8862   5.701   2.905   7.088 -1.8906  0.8863  1.0870
   91SAPS   C29 8863   5.831   2.977   7.239  0.0234  0.5543 -0.4880
   91SAPS   H9R 8864   5.777   2.933   7.324  2.3458 -0.1438  0.6915
   91SAPS  C210 8865   5.962   3.043   7.278 -0.6602  0.2058  0.0845
   91SAPS  H10R 8866   5.990   3.128   7.211 -2.0562  1.4682  1.0264
   91SAPS  H10S 8867   6.038   2.964   7.261  0.2132  0.6837  1.5847
   91SAPS  C211 8868   5.972   3.067   7.422 -0.2721 -0.3556 -0.0097
   91SAPS  H11R 8869   6.017   2.988   7.484  0.7140  0.7574  0.7235
   91SAPS  C212 8870   5.916   3.177   7.477 -0.1847 -0.1837  0.1573
   91SAPS  H12R 8871   5.925   3.180   7.587 -0.2425 -4.0675  0.3974
   91SAPS  C213 8872   5.850   3.294   7.404  0.2847  0.1388 -0.0251
   91SAPS  H13R 8873   5.806   3.268   7.306 -0.0939  0.0236  0.1743
   91SAPS  H13S 8874   5.930   3.364   7.370  0.8921 -1.2523 -1.5973
   91SAPS  C214 8875   5.755   3.385   7.480  0.3450  0.6172  0.2466
   91SAPS  H14R 8876   5.796   3.482   7.514 -0.3104  0.5913  1.1324
   91SAPS  C215 8877   5.623   3.360   7.501  0.8927  0.2445 -0.6478
   91SAPS  H15R 8878   5.572   3.446   7.547  0.8492  0.3933 -0.9713
   91SAPS  C216 8879   5.551   3.235   7.447 -0.3903 -0.8186  0.2257
   91SAPS  H16R 8880   5.480   3.201   7.525 -0.4558 -1.1707  0.0123
   91SAPS  H16S 8881   5.620   3.148   7.447 -0.8350 -1.1777  0.4483
   91SAPS  C217 8882   5.471   3.267   7.321 -0.0083  0.2342  0.6780
   91SAPS  H17R 8883   5.413   3.358   7.345 -0.0938 -0.0640  1.6411
   91SAPS  H17S 8884   5.391   3.190   7.309 -0.6687  1.3246 -3.3322
   91SAPS  C218 8885   5.564   3.270   7.204  0.1333  0.5792 -0.3558
   91SAPS  H18R 8886   5.626   3.179   7.203 -0.8609 -0.1690  1.2334
   91SAPS  H18S 8887   5.625   3.362   7.194  1.9649 -0.5564  0.0193
   91SAPS  C219 8888   5.484   3.262   7.073 -0.0100 -0.1384  0.1464
   91SAPS  H19R 8889   5.407   3.342   7.079 -0.9415 -0.7347 -2.4366
   91SAPS  H19S 8890   5.421   3.170   7.070 -0.0437 -0.1326 -3.1346
   91SAPS  C220 8891   5.565   3.267   6.947 -0.3654 -0.4208 -0.0920
   91SAPS  H20R 8892   5.499   3.271   6.857 -1.3420  1.9493  0.6414
   91SAPS  H20S 8893   5.627   3.176   6.936 -2.5285 -1.8107 -1.8000
   91SAPS  H20T 8894   5.633   3.353   6.965  1.9021 -1.7959 -1.5010
   91SAPS   C33 8895   6.350   3.599   6.734  0.6074  0.3151  0.4751
   91SAPS   H3X 8896   6.290   3.530   6.796 -0.3012  2.2281  1.8139
   91SAPS   H3Y 8897   6.308   3.567   6.637  0.2113 -1.1961  1.1224
   91SAPS   C34 8898   6.302   3.740   6.769 -0.1569 -0.5530 -0.4740
   91SAPS   H4X 8899   6.213   3.773   6.712 -0.2085  1.0960  0.4937
   91SAPS   H4Y 8900   6.383   3.803   6.728 -0.4259  0.1587  0.0572
   91SAPS   C35 8901   6.282   3.777   6.915  0.5047 -0.1183  0.5210
   91SAPS   H5X 8902   6.194   3.714   6.939 -0.7693  0.6712 -1.6913
   91SAPS   H5Y 8903   6.248   3.881   6.929 -1.2791 -0.5581 -0.2622
   91SAPS   C36 8904   6.386   3.741   7.022 -0.9672 -0.2382 -0.1868
   91SAPS   H6X 8905   6.479   3.798   7.000  0.0661 -0.4991  2.9711
   91SAPS   H6Y 8906   6.399   3.631   7.029 -0.3086 -0.0924  1.3794
   91SAPS   C37 8907   6.325   3.780   7.162  0.9298 -0.2260  0.6863
   91SAPS   H7X 8908   6.250   3.699   7.177 -2.5126  2.5517 -0.0043
   91SAPS   H7Y 8909   6.270   3.875   7.145 -0.9276 -1.3541  0.0928
   91SAPS   C38 8910   6.428   3.779   7.280 -0.1054 -0.0355  0.9192
   91SAPS   H8X 8911   6.509   3.851   7.256 -0.3287  1.4040  4.0828
   91SAPS   H8Y 8912   6.477   3.680   7.271  1.6225  0.9082 -0.8812
   91SAPS   C39 8913   6.377   3.803   7.418  0.3531 -0.2493 -0.0763
   91SAPS   H9X 8914   6.295   3.732   7.442  0.2895 -0.1210  0.0842
   91SAPS   H9Y 8915   6.336   3.906   7.414 -0.9828 -0.6960  1.3181
   91SAPS  C310 8916   6.483   3.797   7.530  0.1291  0.2866 -0.3466
   91SAPS  H10X 8917   6.585   3.825   7.497  0.9176 -0.3102  1.4571
   91SAPS  H10Y 8918   6.488   3.686   7.542  1.3551  0.3406 -0.2442
   91SAPS  C311 8919   6.437   3.847   7.665  0.7454 -0.4052  0.0272
   91SAPS  H11X 8920   6.466   3.773   7.742 -2.2030 -0.7763  0.8962
   91SAPS  H11Y 8921   6.327   3.836   7.669  0.6874 -0.3921 -1.1508
   91SAPS  C312 8922   6.486   3.992   7.681  0.3544  0.2651 -0.2194
   91SAPS  H12X 8923   6.449   4.057   7.598  0.9689  1.3723  0.3447
   91SAPS  H12Y 8924   6.597   3.993   7.678  0.3471  1.2731 -0.7925
   91SAPS  C313 8925   6.423   4.058   7.800 -0.1441 -0.2173 -0.3392
   91SAPS  H13X 8926   6.315   4.068   7.779 -0.2864  0.2069  0.5440
   91SAPS  H13Y 8927   6.460   4.163   7.797  0.2210 -0.3641 -1.7558
   91SAPS  C314 8928   6.443   3.992   7.942 -0.3633  0.5399 -0.2122
   91SAPS  H14X 8929   6.395   3.893   7.934 -0.4693  0.3798  1.8558
   91SAPS  H14Y 8930   6.395   4.052   8.023 -1.0929 -1.7988  1.1742
   91SAPS  C315 8931   6.591   3.969   7.972 -0.5687  0.4496  0.1408
   91SAPS  H15X 8932   6.655   4.058   7.961  1.0001 -0.6415  0.1373
   91SAPS  H15Y 8933   6.608   3.887   7.898 -2.4191  0.4564 -0.3448
   91SAPS  C316 8934   6.601   3.926   8.114 -0.6447  0.8156  0.2904
   91SAPS  H16X 8935   6.542   3.836   8.143 -0.4331  0.3017 -0.8162
   91SAPS  H16Y 8936   6.560   4.002   8.184  0.8050  0.8842  1.1123
   91SAPS  C317 8937   6.747   3.903   8.169  0.5368  0.2760 -0.3262
   91SAPS  H17X 8938   6.823   3.980   8.140  0.8701  0.3675  0.7621
   91SAPS  H17Y 8939   6.784   3.806   8.129 -1.1437 -0.8708  0.7864
   91SAPS  C318 8940   6.757   3.892   8.321  0.0624  0.0857 -0.3876
   91SAPS  H18X 8941   6.862   3.908   8.353  0.0551  2.4381 -1.3107
   91SAPS  H18Y 8942   6.726   3.791   8.355 -0.8755 -0.3074 -2.2811
   91SAPS  H18Z 8943   6.704   3.977   8.369 -0.0012  0.1686 -0.6038
   92SAPS     N 8944   3.623   0.738   6.644 -0.2006  0.7406 -0.5898
   92SAPS   HN1 8945   3.598   0.839   6.639  0.9113  1.0876  0.4712
   92SAPS   HN2 8946   3.552   0.679   6.691  0.3166  2.0284  1.9948
   92SAPS   HN3 8947   3.707   0.731   6.704 -1.2395 -0.9427  0.7534
   92SAPS   C12 8948   3.657   0.688   6.508  1.2365  0.5858  0.0404
   92SAPS  H12A 8949   3.634   0.582   6.513 -0.0759  0.8678  0.1342
   92SAPS   C13 8950   3.583   0.748   6.385 -0.0408  0.4320  0.4908
   92SAPS  O13A 8951   3.510   0.847   6.399 -0.4189 -0.5964  0.5808
   92SAPS  O13B 8952   3.604   0.682   6.276  0.6473  0.3216 -0.1254
   92SAPS   C11 8953   3.809   0.717   6.493  0.1983  0.1215  0.1245
   92SAPS  H11A 8954   3.818   0.826   6.476  2.6060 -0.0842 -0.3122
   92SAPS  H11B 8955   3.843   0.675   6.396 -0.2813  1.3599 -0.5993
   92SAPS     P 8956   4.053   0.674   6.585 -0.0172 -0.0819 -0.2953
   92SAPS   O13 8957   4.108   0.561   6.665  0.2916  0.0114 -0.1838
   92SAPS   O14 8958   4.076   0.672   6.440  0.3456  0.7660  0.1430
   92SAPS   O12 8959   3.894   0.673   6.601  0.1327  0.2899  0.4594
   92SAPS   O11 8960   4.103   0.807   6.642  0.6860 -0.5981  0.1139
   92SAPS    C1 8961   4.024   0.881   6.743 -0.5933  0.5094  0.3311
   92SAPS    HA 8962   4.091   0.962   6.780  0.3541  0.2362 -0.7152
   92SAPS    HB 8963   3.935   0.934   6.703 -0.0550  1.3715  0.2530
   92SAPS    C2 8964   3.986   0.797   6.873  0.1648  0.0360  0.4078
   92SAPS    HS 8965   3.932   0.705   6.843  2.2305 -0.5408 -1.9084
   92SAPS   O21 8966   3.907   0.874   6.957  0.2180 -0.0314  0.3395
   92SAPS   C21 8967   3.777   0.847   6.981 -0.4098 -0.4537  0.1852
   92SAPS   O22 8968   3.714   0.770   6.917 -0.1434  0.4552  0.7250
   92SAPS   C22 8969   3.741   0.917   7.105  0.3338 -0.1809 -0.4647
   92SAPS   H2R 8970   3.782   1.020   7.099 -1.5765  0.7444  1.0764
   92SAPS   H2S 8971   3.631   0.930   7.111  0.1980 -1.7724  1.6081
   92SAPS    C3 8972   4.105   0.745   6.956  0.1584 -0.2564  0.8980
   92SAPS    HX 8973   4.173   0.829   6.983 -0.1544  0.5437 -0.7033
   92SAPS    HY 8974   4.157   0.690   6.875  0.8107  4.0231 -1.8963
   92SAPS   O31 8975   4.066   0.669   7.069  0.6965  0.2804 -0.5189
   92SAPS   C31 8976   4.162   0.605   7.134  0.1228 -0.2010 -0.1325
   92SAPS   O32 8977   4.280   0.620   7.110  0.0055 -0.6856 -0.1639
   92SAPS   C32 8978   4.113   0.511   7.239  0.2812 -0.0489 -0.7345
   92SAPS   H2X 8979   4.168   0.416   7.221 -0.1906 -0.4531 -0.0739
   92SAPS   H2Y 8980   4.004   0.491   7.232  0.2755  0.2140 -1.5185
   92SAPS   C23 8981   3.805   0.850   7.234  0.4414 -0.1823 -0.0392
   92SAPS   H3R 8982   3.914   0.858   7.217  0.0172  0.9293 -2.7443
   92SAPS   H3S 8983   3.767   0.745   7.235 -1.8176  0.5352 -1.7945
   92SAPS   C24 8984   3.775   0.938   7.353  0.2932  0.4261  0.9366
   92SAPS   H4R 8985   3.672   0.976   7.337  0.5032  0.5742 -0.0772
   92SAPS   H4S 8986   3.849   1.021   7.353  2.4591 -1.3974  1.0373
   92SAPS   C25 8987   3.781   0.848   7.470  0.1730  0.1000  0.6036
   92SAPS   H5R 8988   3.869   0.781   7.469 -0.5659 -0.9393  1.8247
   92SAPS   C26 8989   3.697   0.841   7.576  0.5232 -0.1689  0.0866
   92SAPS   H6R 8990   3.710   0.780   7.666  1.5399  2.3333  1.7201
   92SAPS   C27 8991   3.574   0.931   7.587  0.1046  0.4482  0.3270
   92SAPS   H7R 8992   3.511   0.887   7.667  1.0245  1.0758  1.4227
   92SAPS   H7S 8993   3.510   0.918   7.498  0.8340  0.0170 -0.1464
   92SAPS   C28 8994   3.604   1.077   7.610 -0.4958  1.0369  0.1048
   92SAPS   H8R 8995   3.649   1.132   7.527  1.9170  0.8664  1.1983
   92SAPS   C29 8996   3.580   1.136   7.729 -0.0889 -0.6787 -0.1799
   92SAPS   H9R 8997   3.585   1.246   7.728  1.3267 -0.6988  1.2082
   92SAPS  C210 8998   3.531   1.081   7.859  0.5907 -0.4497  0.1063
   92SAPS  H10R 8999   3.435   1.025   7.857 -0.4189  1.2284 -1.0490
   92SAPS  H10S 9000   3.512   1.162   7.933  4.5850 -0.7926  1.8096
   92SAPS  C211 9001   3.643   0.993   7.923  0.6636 -0.7196 -0.5510
   92SAPS  H11R 9002   3.733   0.980   7.862  1.6767 -0.3828  0.8171
   92SAPS  C212 9003   3.625   0.940   8.048  0.1135 -0.0796  0.3442
   92SAPS  H12R 9004   3.710   0.885   8.091  0.8203  0.7168 -0.0023
   92SAPS  C213 9005   3.503   0.946   8.137  0.4916 -0.0812  0.2499
   92SAPS  H13R 9006   3.519   0.866   8.212  0.4400  0.3271  0.7035
   92SAPS  H13S 9007   3.413   0.916   8.080 -0.0489 -0.2035  1.1596
   92SAPS  C214 9008   3.484   1.088   8.197  0.1957 -0.3170  0.0966
   92SAPS  H14R 9009   3.419   1.158   8.143 -0.3598  2.1023  3.5894
   92SAPS  C215 9010   3.523   1.138   8.315  0.3253 -0.0352 -0.1166
   92SAPS  H15R 9011   3.482   1.235   8.347  0.0005  0.0724 -0.8349
   92SAPS  C216 9012   3.596   1.057   8.423 -0.3925 -0.7786  0.1014
   92SAPS  H16R 9013   3.598   0.950   8.394  1.9335 -0.8662  0.3584
   92SAPS  H16S 9014   3.542   1.070   8.519  0.0412 -1.6590  0.4689
   92SAPS  C217 9015   3.743   1.095   8.446  0.1237  0.0393 -0.6946
   92SAPS  H17R 9016   3.761   1.205   8.448 -1.0120  0.2731 -1.7510
   92SAPS  H17S 9017   3.801   1.068   8.355  2.1016 -0.3988  0.6379
   92SAPS  C218 9018   3.803   1.028   8.569 -0.8405  0.4965 -0.3348
   92SAPS  H18R 9019   3.780   0.919   8.568 -0.5514  0.4316 -1.0671
   92SAPS  H18S 9020   3.754   1.061   8.662  0.6086  1.0413  0.2672
   92SAPS  C219 9021   3.947   1.060   8.591 -0.0992  0.1525  0.2515
   92SAPS  H19R 9022   4.015   0.999   8.527 -0.4774 -0.8994  0.8220
   92SAPS  H19S 9023   3.969   1.020   8.693 -0.6787 -2.2605 -0.4937
   92SAPS  C220 9024   3.981   1.211   8.577 -0.6715  0.6889 -0.3911
   92SAPS  H20R 9025   3.916   1.280   8.635 -3.0880 -1.0982 -0.8241
   92SAPS  H20S 9026   3.983   1.249   8.473 -0.6112 -1.1415 -1.1011
   92SAPS  H20T 9027   4.088   1.210   8.605 -0.4470 -1.4420 -1.1084
   92SAPS   C33 9028   4.139   0.561   7.389  0.1468  0.3864 -0.0124
   92SAPS   H3X 9029   4.087   0.657   7.413 -0.2555  0.7728 -2.2002
   92SAPS   H3Y 9030   4.249   0.578   7.393  0.0093  1.2786  0.4115
   92SAPS   C34 9031   4.093   0.449   7.485 -0.2480 -0.5843 -0.1984
   92SAPS   H4X 9032   4.132   0.349   7.457 -0.5724 -0.1955 -2.2114
   92SAPS   H4Y 9033   3.985   0.453   7.461  0.1509  0.4314 -2.0303
   92SAPS   C35 9034   4.112   0.482   7.634 -0.2947 -0.1844 -0.4546
   92SAPS   H5X 9035   4.035   0.557   7.662  0.4180  0.6705 -0.7288
   92SAPS   H5Y 9036   4.215   0.521   7.649 -0.0649 -1.1739  0.6569
   92SAPS   C36 9037   4.094   0.356   7.717  0.0539  0.2101  0.3045
   92SAPS   H6X 9038   4.168   0.280   7.682 -0.9833  0.0350 -1.6730
   92SAPS   H6Y 9039   3.995   0.316   7.685 -0.3832 -0.0379  1.9053
   92SAPS   C37 9040   4.101   0.366   7.869 -0.2493  0.0216 -0.3438
   92SAPS   H7X 9041   3.996   0.378   7.903  0.2107 -0.3591  1.3306
   92SAPS   H7Y 9042   4.164   0.456   7.889 -1.5459  1.5211 -2.5603
   92SAPS   C38 9043   4.155   0.238   7.936  0.8317  0.2821  0.5327
   92SAPS   H8X 9044   4.259   0.232   7.899  0.9174 -0.0541  0.8305
   92SAPS   H8Y 9045   4.102   0.154   7.886  0.2157  1.5740 -1.0740
   92SAPS   C39 9046   4.137   0.232   8.090 -0.2194 -0.2241 -0.4721
   92SAPS   H9X 9047   4.156   0.131   8.132 -2.0246 -0.5456 -0.3179
   92SAPS   H9Y 9048   4.034   0.257   8.123 -0.5301 -1.4155 -0.4670
   92SAPS  C310 9049   4.235   0.325   8.169  0.5380  0.4492 -0.0404
   92SAPS  H10X 9050   4.203   0.431   8.155  0.3628  0.7466  2.1913
   92SAPS  H10Y 9051   4.342   0.307   8.147  0.7426  0.7798  0.6423
   92SAPS  C311 9052   4.212   0.294   8.324 -0.9129 -0.2216  0.0049
   92SAPS  H11X 9053   4.214   0.184   8.337  0.3935  0.0547  2.7592
   92SAPS  H11Y 9054   4.107   0.327   8.338 -1.4697 -0.0373 -3.6188
   92SAPS  C312 9055   4.305   0.372   8.417  0.3735 -0.0027  0.5125
   92SAPS  H12X 9056   4.267   0.358   8.520  1.7109 -2.4637  0.7546
   92SAPS  H12Y 9057   4.309   0.481   8.399 -1.6634  0.0530  0.1059
   92SAPS  C313 9058   4.452   0.315   8.408  0.0986  0.3424  0.4742
   92SAPS  H13X 9059   4.489   0.352   8.309 -0.5768 -2.6501 -1.0166
   92SAPS  H13Y 9060   4.454   0.204   8.405  0.5670  0.3602 -0.6273
   92SAPS  C314 9061   4.543   0.374   8.520  0.1365 -0.1972  0.1250
   92SAPS  H14X 9062   4.515   0.335   8.620  0.3866  0.9266  0.6508
   92SAPS  H14Y 9063   4.540   0.484   8.529 -0.4232 -0.2996  1.4296
   92SAPS  C315 9064   4.693   0.329   8.505 -0.3414 -1.0191 -0.1510
   92SAPS  H15X 9065   4.753   0.417   8.537 -0.4711 -0.9295 -0.1542
   92SAPS  H15Y 9066   4.704   0.307   8.397  0.6306  0.8748 -0.4802
   92SAPS  C316 9067   4.737   0.206   8.588  0.2090 -0.1814  0.0123
   92SAPS  H16X 9068   4.663   0.196   8.670  1.4168 -0.7446  1.0472
   92SAPS  H16Y 9069   4.842   0.227   8.616  0.2389 -0.9805  0.5278
   92SAPS  C317 9070   4.729   0.076   8.497 -0.2880 -0.2543 -0.3382
   92SAPS  H17X 9071   4.623   0.064   8.464 -0.4387 -0.1412  0.0963
   92SAPS  H17Y 9072   4.752  -0.003   8.571 -2.0818  0.3966  0.9828
   92SAPS  C318 9073   4.824   0.076   8.378 -0.8262  0.0747  0.0689
   92SAPS  H18X 9074   4.930   0.081   8.409 -0.5592  0.0971 -0.8156
   92SAPS  H18Y 9075   4.808   0.150   8.297  1.8468  1.5570  0.7928
   92SAPS  H18Z 9076   4.813  -0.023   8.328 -0.5625 -0.8340  1.7442
   93SAPS     N 9077   5.947   1.637   6.200 -0.6107  0.1393 -0.2385
   93SAPS   HN1 9078   6.041   1.613   6.236  0.6176  2.3419 -1.7410
   93SAPS   HN2 9079   5.966   1.684   6.109  1.6123 -2.1069 -1.0259
   93SAPS   HN3 9080   5.889   1.697   6.263  0.2889  1.2396 -0.4304
   93SAPS   C12 9081   5.859   1.519   6.194 -0.7887  0.1146 -0.6861
   93SAPS  H12A 9082   5.771   1.547   6.138 -0.1465  1.1874 -1.1937
   93SAPS   C13 9083   5.923   1.381   6.141 -0.3838 -0.5502  0.6546
   93SAPS  O13A 9084   6.024   1.387   6.062  0.3933  0.2318  0.3185
   93SAPS  O13B 9085   5.870   1.268   6.168 -0.3564 -0.6406 -0.0439
   93SAPS   C11 9086   5.799   1.502   6.339  0.5249 -0.3285 -0.7518
   93SAPS  H11A 9087   5.870   1.471   6.419 -1.5337 -0.4011  1.1486
   93SAPS  H11B 9088   5.726   1.422   6.317  0.8609 -0.2383 -2.3534
   93SAPS     P 9089   5.580   1.647   6.402 -0.0877  0.3398 -0.2153
   93SAPS   O13 9090   5.548   1.780   6.455 -0.7965 -0.2695  0.6902
   93SAPS   O14 9091   5.504   1.603   6.284 -0.1925  0.0121  0.6037
   93SAPS   O12 9092   5.739   1.634   6.378 -0.2600  0.1025 -0.1031
   93SAPS   O11 9093   5.559   1.542   6.506  0.9196 -0.6682  0.0915
   93SAPS    C1 9094   5.617   1.544   6.641  0.2037  0.0006  0.5204
   93SAPS    HA 9095   5.726   1.568   6.645 -0.2046  2.1120  0.1571
   93SAPS    HB 9096   5.559   1.621   6.696  0.3965  1.1837 -0.8571
   93SAPS    C2 9097   5.611   1.406   6.716  0.3034  0.3732  0.2404
   93SAPS    HS 9098   5.661   1.324   6.660 -1.0032  0.8768 -1.8161
   93SAPS   O21 9099   5.470   1.372   6.733  0.5159  0.1741 -0.3023
   93SAPS   C21 9100   5.447   1.241   6.739  0.5272 -0.9611  0.2036
   93SAPS   O22 9101   5.530   1.157   6.715 -0.7480  0.6778  0.2306
   93SAPS   C22 9102   5.293   1.214   6.768  0.2339 -0.0481  0.5340
   93SAPS   H2R 9103   5.263   1.310   6.814  0.4453  0.2861 -0.0168
   93SAPS   H2S 9104   5.244   1.195   6.670  2.4502  0.3766 -0.7227
   93SAPS    C3 9105   5.684   1.415   6.857  0.6253 -0.0395  0.0038
   93SAPS    HX 9106   5.641   1.505   6.905 -1.1383 -0.0858 -1.3711
   93SAPS    HY 9107   5.792   1.438   6.839  0.3534  1.5719  0.2808
   93SAPS   O31 9108   5.669   1.301   6.942 -0.1699 -0.0337 -0.3458
   93SAPS   C31 9109   5.761   1.208   6.922 -0.4727 -0.0174 -0.3487
   93SAPS   O32 9110   5.854   1.208   6.842  0.2300 -0.1555 -0.1435
   93SAPS   C32 9111   5.752   1.088   7.022  0.5746 -0.0865  0.5010
   93SAPS   H2X 9112   5.849   1.034   7.021 -0.0666 -1.2752 -1.0928
   93SAPS   H2Y 9113   5.680   1.023   6.969 -0.0341  1.4832 -0.6937
   93SAPS   C23 9114   5.265   1.105   6.874  0.4862  0.0723 -0.2727
   93SAPS   H3R 9115   5.312   1.008   6.845  0.4980 -0.3167  1.0095
   93SAPS   H3S 9116   5.155   1.091   6.876  0.6168 -0.9770  0.4803
   93SAPS   C24 9117   5.310   1.141   7.015 -0.0019 -0.3638 -0.1935
   93SAPS   H4R 9118   5.251   1.230   7.046 -1.8653 -1.1659 -1.2559
   93SAPS   H4S 9119   5.414   1.179   7.020 -0.9697  2.3677  1.1711
   93SAPS   C25 9120   5.308   1.029   7.117 -0.3390  0.2974 -0.3346
   93SAPS   H5R 9121   5.322   0.931   7.070  0.8078 -0.2273  1.0433
   93SAPS   C26 9122   5.279   1.040   7.241 -0.7206  0.0057 -0.5024
   93SAPS   H6R 9123   5.298   0.948   7.299  0.2933  1.0156  0.8109
   93SAPS   C27 9124   5.259   1.157   7.323 -0.0984 -0.3115  0.1641
   93SAPS   H7R 9125   5.296   1.239   7.258 -1.5707 -1.8374 -2.7863
   93SAPS   H7S 9126   5.337   1.163   7.402 -1.0401  3.2352  1.0401
   93SAPS   C28 9127   5.122   1.186   7.373 -0.4137 -0.3976 -0.0712
   93SAPS   H8R 9128   5.060   1.252   7.311 -1.0814  0.6791  1.6740
   93SAPS   C29 9129   5.070   1.142   7.483 -0.0908  0.6395 -0.3750
   93SAPS   H9R 9130   4.968   1.173   7.510  0.3995  0.8765  1.2980
   93SAPS  C210 9131   5.136   1.043   7.583  0.3842 -0.6894  0.1250
   93SAPS  H10R 9132   5.156   1.102   7.675 -0.1369  0.2006 -0.3187
   93SAPS  H10S 9133   5.227   0.997   7.539  1.6824  1.9271 -0.1316
   93SAPS  C211 9134   5.048   0.941   7.639 -0.5112  0.2854 -0.0492
   93SAPS  H11R 9135   5.011   0.873   7.561 -0.4422  0.2804 -0.0779
   93SAPS  C212 9136   5.021   0.911   7.769 -0.1318  0.0864 -0.6963
   93SAPS  H12R 9137   4.938   0.844   7.799 -0.0900  0.3702  0.0687
   93SAPS  C213 9138   5.068   0.981   7.895 -0.1811 -0.7844  0.3277
   93SAPS  H13R 9139   5.058   1.090   7.879 -1.0907 -1.1425 -2.0345
   93SAPS  H13S 9140   5.178   0.968   7.891 -0.2475 -1.5703  0.8467
   93SAPS  C214 9141   5.030   0.937   8.028  0.4127 -0.0151  0.5391
   93SAPS  H14R 9142   4.968   0.846   8.029  0.4880 -0.1180 -0.9250
   93SAPS  C215 9143   5.060   0.993   8.143  0.2599 -0.9982 -0.5419
   93SAPS  H15R 9144   5.001   0.964   8.231  0.7992  0.7468  0.4508
   93SAPS  C216 9145   5.146   1.117   8.154 -0.1866 -0.1256  0.3620
   93SAPS  H16R 9146   5.073   1.198   8.177 -0.6369 -0.4829  0.2297
   93SAPS  H16S 9147   5.196   1.139   8.057  0.2835 -1.7294  0.2077
   93SAPS  C217 9148   5.249   1.109   8.261  0.0152  0.1905 -0.5034
   93SAPS  H17R 9149   5.306   1.202   8.281 -0.1549  0.2283 -0.1712
   93SAPS  H17S 9150   5.320   1.033   8.225  0.5296 -0.1420  1.1156
   93SAPS  C218 9151   5.207   1.063   8.408  0.7056 -0.3372  0.5579
   93SAPS  H18R 9152   5.298   1.037   8.467  2.0776 -0.8324 -1.6426
   93SAPS  H18S 9153   5.143   0.973   8.398  0.9107 -0.4518  0.2362
   93SAPS  C219 9154   5.127   1.183   8.469  0.1310 -0.2177  0.2072
   93SAPS  H19R 9155   5.045   1.213   8.400  1.1610 -0.7761 -1.3201
   93SAPS  H19S 9156   5.187   1.276   8.471  0.9637 -0.7524  1.3462
   93SAPS  C220 9157   5.077   1.159   8.612  0.4485 -0.1300  0.0431
   93SAPS  H20R 9158   5.034   1.056   8.618  0.1599 -0.0360 -0.3715
   93SAPS  H20S 9159   5.003   1.232   8.651  1.6775  1.1981 -0.0140
   93SAPS  H20T 9160   5.162   1.168   8.683 -0.0210 -1.3874  0.7960
   93SAPS   C33 9161   5.710   1.128   7.165  0.0412  1.0046  0.5758
   93SAPS   H3X 9162   5.696   1.031   7.218 -0.9476  0.5089 -0.5468
   93SAPS   H3Y 9163   5.612   1.179   7.156 -0.3962 -0.0515 -1.2394
   93SAPS   C34 9164   5.821   1.196   7.245  0.4137 -0.3154  0.0797
   93SAPS   H4X 9165   5.868   1.261   7.168  0.5527 -1.3659 -0.7479
   93SAPS   H4Y 9166   5.896   1.119   7.276 -0.4991 -1.0619  0.4838
   93SAPS   C35 9167   5.781   1.284   7.358  0.1912 -0.4134 -0.1377
   93SAPS   H5X 9168   5.695   1.234   7.406  1.1399  0.5908  2.7942
   93SAPS   H5Y 9169   5.757   1.383   7.313 -0.8469 -0.8249 -0.5229
   93SAPS   C36 9170   5.878   1.330   7.465  0.4320  0.0081 -0.0849
   93SAPS   H6X 9171   5.831   1.398   7.540 -2.3932  0.2414 -1.9165
   93SAPS   H6Y 9172   5.958   1.383   7.410  0.3489 -0.9408 -1.1438
   93SAPS   C37 9173   5.935   1.225   7.558 -0.3947 -0.1048 -0.1904
   93SAPS   H7X 9174   5.957   1.136   7.496  2.3423  0.1926  0.2559
   93SAPS   H7Y 9175   5.867   1.172   7.629  1.2205 -1.7166  0.2059
   93SAPS   C38 9176   6.058   1.274   7.644  0.0117 -0.1788 -0.0511
   93SAPS   H8X 9177   6.038   1.377   7.681  1.2070 -0.0261  0.2240
   93SAPS   H8Y 9178   6.152   1.275   7.585 -0.7183 -1.2429 -1.2910
   93SAPS   C39 9179   6.078   1.164   7.757 -0.1769 -0.5870  0.1387
   93SAPS   H9X 9180   6.089   1.065   7.707  1.9897 -0.3958  0.1556
   93SAPS   H9Y 9181   5.991   1.154   7.825 -0.0844 -2.4343  0.0352
   93SAPS  C310 9182   6.210   1.178   7.841  0.5854 -0.3426 -0.2016
   93SAPS  H10X 9183   6.207   1.281   7.883 -3.2036  0.3866 -1.7973
   93SAPS  H10Y 9184   6.300   1.169   7.777  1.5843  0.3282  1.0611
   93SAPS  C311 9185   6.220   1.088   7.972  0.5102 -0.1279  0.1666
   93SAPS  H11X 9186   6.315   1.111   8.024  1.3652  1.3240 -1.8784
   93SAPS  H11Y 9187   6.226   0.980   7.947 -0.0542 -0.0010 -0.5496
   93SAPS  C312 9188   6.103   1.119   8.068  0.0530 -0.6725 -0.2291
   93SAPS  H12X 9189   6.009   1.085   8.021  0.3723 -1.2812 -0.4453
   93SAPS  H12Y 9190   6.082   1.228   8.067 -0.7259 -0.7644  2.1509
   93SAPS  C313 9191   6.133   1.069   8.209  0.0406 -0.8496 -0.8220
   93SAPS  H13X 9192   6.234   1.110   8.230  0.1650 -0.9552 -1.1998
   93SAPS  H13Y 9193   6.136   0.958   8.212 -0.3976 -0.8388  1.3515
   93SAPS  C314 9194   6.032   1.109   8.319  0.2868 -1.0938 -0.0163
   93SAPS  H14X 9195   5.925   1.111   8.287 -0.4701  0.8963  2.3909
   93SAPS  H14Y 9196   6.039   1.216   8.347  1.0349 -1.1897  0.1764
   93SAPS  C315 9197   6.057   1.030   8.452  0.4401  0.5687 -0.0217
   93SAPS  H15X 9198   6.158   1.068   8.479  0.4428 -0.5790  1.7835
   93SAPS  H15Y 9199   6.065   0.922   8.429 -0.2701  0.6576 -0.7287
   93SAPS  C316 9200   5.952   1.051   8.563 -0.2457 -0.7484 -0.1051
   93SAPS  H16X 9201   5.934   1.159   8.582 -1.3605 -0.2004 -3.6236
   93SAPS  H16Y 9202   6.003   1.015   8.655 -0.5533  1.8563  1.1722
   93SAPS  C317 9203   5.813   0.978   8.551  0.3967 -0.3192 -0.3010
   93SAPS  H17X 9204   5.824   0.886   8.489 -2.6348 -1.6245  0.8764
   93SAPS  H17Y 9205   5.737   1.044   8.505 -0.5829  0.0561  1.7240
   93SAPS  C318 9206   5.762   0.923   8.686  0.7477  0.4412  0.1337
   93SAPS  H18X 9207   5.666   0.874   8.660  0.5567  1.0647 -0.3867
   93SAPS  H18Y 9208   5.742   1.004   8.759  0.0706  0.8252 -0.4650
   93SAPS  H18Z 9209   5.825   0.836   8.712  3.7808  3.1157  2.7449
   94SAPS     N 9210   5.109   4.242   5.904 -0.3133  0.7681  0.0250
   94SAPS   HN1 9211   5.074   4.317   5.841  0.9937  0.5942 -0.9680
   94SAPS   HN2 9212   5.038   4.186   5.956  0.6469  1.0675  1.7094
   94SAPS   HN3 9213   5.171   4.290   5.972  1.3926 -0.4721 -0.5596
   94SAPS   C12 9214   5.197   4.136   5.831  0.2809  0.7270  0.0768
   94SAPS  H12A 9215   5.128   4.109   5.753 -0.9849  1.7384  0.8219
   94SAPS   C13 9216   5.312   4.195   5.747  0.3455 -0.3912  0.1255
   94SAPS  O13A 9217   5.322   4.317   5.736  0.2657 -0.0441 -0.1333
   94SAPS  O13B 9218   5.392   4.117   5.696 -0.5716 -0.3628  0.0695
   94SAPS   C11 9219   5.254   4.030   5.933 -0.3435  0.1114  0.9978
   94SAPS  H11A 9220   5.313   4.101   5.996  0.8527  0.2023 -0.1788
   94SAPS  H11B 9221   5.329   3.962   5.888  0.4597  2.2284 -1.0211
   94SAPS     P 9222   5.080   3.852   5.935 -0.3230  0.0401 -0.5754
   94SAPS   O13 9223   4.951   3.878   5.870  0.1485 -0.3479  0.1209
   94SAPS   O14 9224   5.177   3.774   5.854  0.8424  0.0177 -0.1821
   94SAPS   O12 9225   5.143   3.973   6.001 -0.0050 -0.0981  0.1771
   94SAPS   O11 9226   5.049   3.771   6.067  0.1101 -0.1256  0.0630
   94SAPS    C1 9227   5.025   3.834   6.192 -0.5350  0.3710 -0.0088
   94SAPS    HA 9228   5.005   3.944   6.193 -0.6221  0.3836  1.9600
   94SAPS    HB 9229   4.926   3.796   6.226 -2.2706  0.8389 -3.9054
   94SAPS    C2 9230   5.128   3.803   6.303 -0.1900  0.0947 -0.3738
   94SAPS    HS 9231   5.121   3.700   6.343  0.1616  0.3037  0.2538
   94SAPS   O21 9232   5.110   3.910   6.411 -0.1757  0.7364  0.8076
   94SAPS   C21 9233   5.002   3.906   6.485 -1.0608  0.1796 -0.0334
   94SAPS   O22 9234   4.923   3.811   6.486 -0.0683  0.0745 -0.9202
   94SAPS   C22 9235   4.998   4.036   6.571  0.1853 -0.5419  0.1119
   94SAPS   H2R 9236   5.098   4.045   6.619  1.4004 -2.8788 -1.7128
   94SAPS   H2S 9237   4.976   4.115   6.497 -0.9717  0.6382  1.6620
   94SAPS    C3 9238   5.275   3.831   6.246 -0.0360  0.0712 -0.1345
   94SAPS    HX 9239   5.264   3.931   6.199  2.1757  0.4705  0.0787
   94SAPS    HY 9240   5.295   3.761   6.163 -1.5810 -0.1196 -0.3798
   94SAPS   O31 9241   5.380   3.835   6.348 -0.0008  0.0801 -0.0084
   94SAPS   C31 9242   5.487   3.915   6.316 -0.2304 -0.1719 -0.6231
   94SAPS   O32 9243   5.510   3.966   6.210  0.0547 -0.6455  0.0758
   94SAPS   C32 9244   5.561   3.942   6.447 -0.4981 -0.0802  0.2441
   94SAPS   H2X 9245   5.597   3.841   6.476 -0.7648 -1.5773 -3.9883
   94SAPS   H2Y 9246   5.489   3.993   6.515  0.6392  0.3331  1.1828
   94SAPS   C23 9247   4.879   4.053   6.675 -0.4852  0.1369 -0.0030
   94SAPS   H3R 9248   4.893   3.975   6.753  1.2150 -1.6638 -1.9886
   94SAPS   H3S 9249   4.782   4.033   6.624 -0.7522  0.3041  0.4397
   94SAPS   C24 9250   4.876   4.198   6.723 -0.6046  0.7341  0.0863
   94SAPS   H4R 9251   4.792   4.205   6.795 -1.4310 -0.4605 -0.7151
   94SAPS   H4S 9252   4.838   4.260   6.639 -1.5849  0.4900  0.3361
   94SAPS   C25 9253   4.997   4.253   6.791  0.0264 -0.2729 -0.0080
   94SAPS   H5R 9254   5.057   4.310   6.719  1.4464 -1.6980 -0.0104
   94SAPS   C26 9255   5.047   4.232   6.916 -0.2692 -0.7043  0.3766
   94SAPS   H6R 9256   5.134   4.285   6.956 -0.4225 -1.1165  1.2953
   94SAPS   C27 9257   4.985   4.152   7.031  0.4001  0.0905  0.9640
   94SAPS   H7R 9258   5.061   4.127   7.108  0.5213 -2.3240  0.1323
   94SAPS   H7S 9259   4.969   4.053   6.984  0.7546  0.1704  0.6608
   94SAPS   C28 9260   4.864   4.211   7.100 -0.1294  0.0342 -0.0685
   94SAPS   H8R 9261   4.770   4.220   7.044 -1.1206 -1.1310  1.3265
   94SAPS   C29 9262   4.865   4.254   7.226  0.1155 -0.0418 -0.2531
   94SAPS   H9R 9263   4.774   4.307   7.261 -0.0096 -1.1308  1.1701
   94SAPS  C210 9264   4.978   4.255   7.327  0.0660 -0.1127  0.8014
   94SAPS  H10R 9265   5.046   4.344   7.327 -1.4808  1.1992 -2.0533
   94SAPS  H10S 9266   5.042   4.168   7.299 -0.4985 -1.1761  2.6348
   94SAPS  C211 9267   4.913   4.222   7.461 -0.0844  0.1374  0.1824
   94SAPS  H11R 9268   4.812   4.258   7.487 -0.2447 -0.5855  0.6137
   94SAPS  C212 9269   4.985   4.162   7.560  0.7164  0.0921  0.0740
   94SAPS  H12R 9270   4.919   4.142   7.645 -1.6633 -1.1748 -1.9493
   94SAPS  C213 9271   5.139   4.126   7.569  0.2530 -0.3081  0.0880
   94SAPS  H13R 9272   5.206   4.215   7.576  0.7228 -0.7149  0.8585
   94SAPS  H13S 9273   5.163   4.084   7.469 -1.0171 -1.6972  0.3279
   94SAPS  C214 9274   5.181   4.022   7.665 -0.4540  0.0064 -0.0066
   94SAPS  H14R 9275   5.177   3.918   7.629 -2.2055 -0.1330  0.5058
   94SAPS  C215 9276   5.220   4.036   7.798 -1.0655  0.3689  0.1608
   94SAPS  H15R 9277   5.231   3.943   7.856  4.9528  2.0098  2.4790
   94SAPS  C216 9278   5.225   4.155   7.883  0.0171 -0.3757  0.3334
   94SAPS  H16R 9279   5.214   4.250   7.826 -0.9833 -0.8511 -0.2967
   94SAPS  H16S 9280   5.326   4.159   7.929  0.9783  2.4249 -1.7797
   94SAPS  C217 9281   5.108   4.146   7.992  0.0303 -0.0735 -0.5311
   94SAPS  H17R 9282   5.127   4.064   8.064 -2.0822 -2.5127 -2.5363
   94SAPS  H17S 9283   5.005   4.133   7.951 -0.4592  0.8211  0.3741
   94SAPS  C218 9284   5.118   4.271   8.071  0.0563 -0.9071  0.3357
   94SAPS  H18R 9285   5.101   4.367   8.017  1.8296 -1.2166 -0.8513
   94SAPS  H18S 9286   5.220   4.289   8.113  0.1166  2.0824 -0.8765
   94SAPS  C219 9287   5.025   4.258   8.196  0.0340  0.9268  0.6031
   94SAPS  H19R 9288   5.045   4.155   8.234 -1.4765 -0.9419 -3.0925
   94SAPS  H19S 9289   4.918   4.255   8.168  0.0190 -1.1514  0.7095
   94SAPS  C220 9290   5.043   4.363   8.300  0.2021 -0.3046 -1.0115
   94SAPS  H20R 9291   5.012   4.466   8.274  0.4497 -0.3005 -1.3004
   94SAPS  H20S 9292   5.148   4.367   8.336 -0.5305  4.5917  1.3287
   94SAPS  H20T 9293   4.973   4.341   8.383  1.0861  1.4263  0.2615
   94SAPS   C33 9294   5.690   4.022   6.443  0.0285  0.5751  0.3234
   94SAPS   H3X 9295   5.653   4.124   6.422 -1.0405  0.3862  1.1784
   94SAPS   H3Y 9296   5.758   3.990   6.362  0.0712  0.1155  0.5346
   94SAPS   C34 9297   5.765   4.014   6.581 -0.7895 -0.1136  0.9635
   94SAPS   H4X 9298   5.691   4.026   6.663 -1.6127  0.2598  0.1825
   94SAPS   H4Y 9299   5.825   4.108   6.591 -1.0276  0.2344 -0.5852
   94SAPS   C35 9300   5.831   3.886   6.609 -0.7160 -0.2699  0.2594
   94SAPS   H5X 9301   5.910   3.865   6.534 -3.5695 -0.0617 -3.0465
   94SAPS   H5Y 9302   5.766   3.796   6.612 -1.4775  0.2288 -0.6832
   94SAPS   C36 9303   5.906   3.890   6.742  0.5841 -0.0493  0.1177
   94SAPS   H6X 9304   5.967   3.983   6.749 -1.2573  1.2781 -0.4181
   94SAPS   H6Y 9305   5.978   3.807   6.736  0.5044 -0.0236 -1.5280
   94SAPS   C37 9306   5.814   3.867   6.868 -0.8434 -0.0181  0.3960
   94SAPS   H7X 9307   5.777   3.763   6.864  0.7509 -0.5995 -2.9261
   94SAPS   H7Y 9308   5.722   3.927   6.882 -0.9478 -0.0666 -0.0529
   94SAPS   C38 9309   5.890   3.882   7.008  0.4745 -0.2518  0.3159
   94SAPS   H8X 9310   5.926   3.987   7.012 -0.0969 -0.0847  2.5222
   94SAPS   H8Y 9311   5.982   3.819   7.009 -1.4413 -3.6191 -3.6623
   94SAPS   C39 9312   5.801   3.844   7.126  0.3528  0.8761  0.1952
   94SAPS   H9X 9313   5.774   3.738   7.107  1.1044  0.8041 -0.5104
   94SAPS   H9Y 9314   5.709   3.906   7.120  0.5021  0.9186 -2.6633
   94SAPS  C310 9315   5.867   3.859   7.268  0.0375 -0.5067 -0.1396
   94SAPS  H10X 9316   5.787   3.880   7.343 -1.1483 -2.4741 -0.7704
   94SAPS  H10Y 9317   5.940   3.943   7.269  1.1119 -1.3920 -1.1703
   94SAPS  C311 9318   5.946   3.735   7.303  0.5261  0.6332 -0.3159
   94SAPS  H11X 9319   6.045   3.739   7.255 -0.0474  1.3768 -1.4898
   94SAPS  H11Y 9320   5.903   3.647   7.252  0.7047  1.0755 -1.2475
   94SAPS  C312 9321   5.963   3.717   7.453  0.3370 -0.7018 -0.0817
   94SAPS  H12X 9322   6.041   3.639   7.468  0.1022 -1.1129 -0.9602
   94SAPS  H12Y 9323   5.870   3.671   7.492 -0.9911  1.6320 -0.2691
   94SAPS  C313 9324   5.997   3.843   7.540 -0.2993  0.2235  0.4076
   94SAPS  H13X 9325   5.916   3.917   7.517  0.8176  1.0473 -1.0686
   94SAPS  H13Y 9326   6.098   3.885   7.522 -1.2662  2.4007 -0.3328
   94SAPS  C314 9327   5.997   3.818   7.687  0.0688  0.6098  0.3673
   94SAPS  H14X 9328   6.073   3.740   7.708  1.3203  1.6354 -0.2825
   94SAPS  H14Y 9329   5.899   3.785   7.729 -0.6456  2.0417 -0.1197
   94SAPS  C315 9330   6.036   3.944   7.757  0.1976  0.0336  0.2014
   94SAPS  H15X 9331   5.955   4.017   7.734 -0.7565 -0.9567  0.3468
   94SAPS  H15Y 9332   6.124   3.989   7.705  0.1043 -0.0037  0.0073
   94SAPS  C316 9333   6.059   3.939   7.905  0.0385 -0.1902 -0.3268
   94SAPS  H16X 9334   6.117   4.028   7.936 -0.9120 -0.1006  1.3296
   94SAPS  H16Y 9335   6.119   3.848   7.927  0.8901  0.1702 -1.1094
   94SAPS  C317 9336   5.930   3.937   7.983 -0.5981  0.0916 -0.0846
   94SAPS  H17X 9337   5.856   3.865   7.942  0.8700 -1.1583 -0.6435
   94SAPS  H17Y 9338   5.902   4.043   7.968  0.1976  0.0122 -2.4690
   94SAPS  C318 9339   5.947   3.908   8.135  0.3892 -0.6341 -0.0783
   94SAPS  H18X 9340   6.047   3.947   8.162 -0.2294  1.3542 -0.5205
   94SAPS  H18Y 9341   5.933   3.803   8.170  1.9766 -0.4618  1.1986
   94SAPS  H18Z 9342   5.877   3.967   8.198 -1.6300 -2.2281 -0.7035
   95SAPS     N 9343   1.933   1.338   6.508 -0.1995  0.6355 -0.4447
   95SAPS   HN1 9344   1.840   1.360   6.549 -0.3302  1.2864 -1.0649
   95SAPS   HN2 9345   1.935   1.237   6.482  0.0614  0.7825 -1.0110
   95SAPS   HN3 9346   2.007   1.356   6.579  0.9746 -0.0665 -1.4527
   95SAPS   C12 9347   1.957   1.418   6.381 -0.2443 -0.1348  0.1157
   95SAPS  H12A 9348   1.973   1.520   6.414  0.7993 -0.4015  0.4562
   95SAPS   C13 9349   2.092   1.395   6.292 -0.0094  0.8082  0.2291
   95SAPS  O13A 9350   2.188   1.344   6.356 -0.2568 -0.5940 -0.2565
   95SAPS  O13B 9351   2.115   1.476   6.196  0.5471 -0.6973  0.0846
   95SAPS   C11 9352   1.828   1.405   6.296 -0.0420  0.6136 -0.0874
   95SAPS  H11A 9353   1.802   1.297   6.292  0.9240  0.4014 -0.9434
   95SAPS  H11B 9354   1.841   1.448   6.195 -0.0153 -1.2884 -0.9359
   95SAPS     P 9355   1.656   1.596   6.321  0.0762  0.1665  0.4255
   95SAPS   O13 9356   1.740   1.705   6.374 -0.8075  0.1462 -0.0611
   95SAPS   O14 9357   1.631   1.597   6.172 -0.2434 -0.8747 -0.0208
   95SAPS   O12 9358   1.710   1.459   6.367  0.1529  0.5409  0.5906
   95SAPS   O11 9359   1.506   1.603   6.385 -0.4407 -0.2770  0.3186
   95SAPS    C1 9360   1.472   1.547   6.514 -0.0768 -0.1757 -0.4821
   95SAPS    HA 9361   1.370   1.504   6.515 -0.2668  0.2684 -0.6081
   95SAPS    HB 9362   1.535   1.460   6.541  2.4287  1.5406 -0.4413
   95SAPS    C2 9363   1.479   1.643   6.632 -0.1470 -0.2149  0.4737
   95SAPS    HS 9364   1.581   1.687   6.624 -0.4947  0.4851 -0.3232
   95SAPS   O21 9365   1.457   1.561   6.748  0.2278 -0.4485  0.2904
   95SAPS   C21 9366   1.506   1.607   6.865  0.0255  0.4614 -0.0805
   95SAPS   O22 9367   1.572   1.706   6.879 -0.9829 -0.3644  0.2554
   95SAPS   C22 9368   1.447   1.512   6.980  0.0210 -0.7301  0.2765
   95SAPS   H2R 9369   1.350   1.468   6.948  1.0810 -2.6278 -0.4711
   95SAPS   H2S 9370   1.520   1.433   7.008  2.7222  1.4211 -0.1610
   95SAPS    C3 9371   1.366   1.746   6.622 -0.6670  0.0912  0.8219
   95SAPS    HX 9372   1.276   1.684   6.642 -0.5282 -0.1678  0.6598
   95SAPS    HY 9373   1.348   1.781   6.518  1.2524 -1.2101 -0.0110
   95SAPS   O31 9374   1.377   1.860   6.712 -0.3800 -0.8209 -0.4374
   95SAPS   C31 9375   1.473   1.949   6.672 -0.2978 -0.5653  0.6756
   95SAPS   O32 9376   1.528   1.944   6.564 -0.2573  0.0980  0.4384
   95SAPS   C32 9377   1.460   2.073   6.765  0.7102 -0.1642  0.2987
   95SAPS   H2X 9378   1.351   2.093   6.768  0.8225  0.2896  1.5537
   95SAPS   H2Y 9379   1.504   2.160   6.711  1.8980 -0.1183  1.2894
   95SAPS   C23 9380   1.415   1.590   7.108 -0.3048 -0.5709 -0.5286
   95SAPS   H3R 9381   1.363   1.684   7.080 -0.8890 -0.0536  1.9966
   95SAPS   H3S 9382   1.510   1.629   7.150  0.5736 -1.1505 -1.9344
   95SAPS   C24 9383   1.337   1.519   7.220 -0.5047  0.2798 -0.1768
   95SAPS   H4R 9384   1.244   1.475   7.179 -0.8588  0.7942  0.0675
   95SAPS   H4S 9385   1.301   1.598   7.289 -1.1824 -0.1031 -0.0891
   95SAPS   C25 9386   1.419   1.416   7.284  0.0137 -0.1208 -0.4914
   95SAPS   H5R 9387   1.411   1.315   7.242 -3.7369 -0.1870  0.0213
   95SAPS   C26 9388   1.505   1.431   7.388 -0.4935  0.4657  0.0322
   95SAPS   H6R 9389   1.549   1.340   7.433 -0.4821  0.0266 -0.8418
   95SAPS   C27 9390   1.537   1.557   7.464 -0.2680 -0.6557  0.1488
   95SAPS   H7R 9391   1.534   1.637   7.387 -0.0642 -1.6930 -0.9797
   95SAPS   H7S 9392   1.644   1.563   7.492 -0.6459 -1.8706  2.0618
   95SAPS   C28 9393   1.443   1.580   7.584  0.5035  0.5542  0.4546
   95SAPS   H8R 9394   1.345   1.616   7.549  0.7010 -1.1789 -2.1715
   95SAPS   C29 9395   1.470   1.570   7.716  0.1570 -0.3019 -0.0542
   95SAPS   H9R 9396   1.385   1.594   7.782  1.6492  1.7237  1.2555
   95SAPS  C210 9397   1.593   1.519   7.779 -0.3352 -0.4232 -0.2091
   95SAPS  H10R 9398   1.678   1.535   7.709  1.4043 -0.3962  1.8194
   95SAPS  H10S 9399   1.576   1.409   7.781  0.8156 -0.6017  0.6719
   95SAPS  C211 9400   1.624   1.596   7.906  0.0074  0.1239 -0.9242
   95SAPS  H11R 9401   1.689   1.682   7.886 -2.2142  2.1865  0.0971
   95SAPS  C212 9402   1.562   1.595   8.028  0.3219 -0.4480  0.5047
   95SAPS  H12R 9403   1.594   1.671   8.101  0.3901  0.4080 -0.4032
   95SAPS  C213 9404   1.444   1.507   8.071 -0.0043  0.0707  0.2670
   95SAPS  H13R 9405   1.372   1.491   7.988 -0.4066  1.3391  0.3410
   95SAPS  H13S 9406   1.379   1.555   8.146 -4.1541 -1.0385 -2.2940
   95SAPS  C214 9407   1.496   1.371   8.110 -0.4643  0.3257  0.8945
   95SAPS  H14R 9408   1.505   1.302   8.024 -0.0998  0.7783  0.5690
   95SAPS  C215 9409   1.524   1.339   8.235  0.2807 -0.0573  0.3146
   95SAPS  H15R 9410   1.583   1.250   8.261  1.3242  0.3259 -0.7145
   95SAPS  C216 9411   1.513   1.431   8.354 -0.1613 -0.0002  0.5742
   95SAPS  H16R 9412   1.515   1.540   8.332  2.1560 -0.2153 -0.6144
   95SAPS  H16S 9413   1.605   1.426   8.417  0.4339 -1.7331 -0.3483
   95SAPS  C217 9414   1.385   1.401   8.432  0.4933 -0.1222 -0.1027
   95SAPS  H17R 9415   1.369   1.294   8.456  0.4695  0.5413  3.3466
   95SAPS  H17S 9416   1.297   1.434   8.372 -1.6756  0.9484  3.3290
   95SAPS  C218 9417   1.369   1.485   8.554  0.5041 -0.4299 -0.1158
   95SAPS  H18R 9418   1.427   1.579   8.553 -1.4281  0.8291  0.0046
   95SAPS  H18S 9419   1.407   1.415   8.632 -1.0969 -2.9105 -1.4093
   95SAPS  C219 9420   1.220   1.520   8.577 -0.4544 -0.2642 -0.6713
   95SAPS  H19R 9421   1.196   1.578   8.486  0.8763  0.3220 -0.6731
   95SAPS  H19S 9422   1.229   1.595   8.658 -0.3304 -2.2451  1.2569
   95SAPS  C220 9423   1.137   1.404   8.622  0.4158 -0.0034  0.0009
   95SAPS  H20R 9424   1.172   1.353   8.715 -1.2783 -2.2301 -0.5033
   95SAPS  H20S 9425   1.130   1.325   8.545 -0.8635 -0.2608  0.3629
   95SAPS  H20T 9426   1.032   1.438   8.632  0.3012  0.2911 -1.9040
   95SAPS   C33 9427   1.528   2.051   6.904  0.3733 -0.6144  0.1247
   95SAPS   H3X 9428   1.637   2.030   6.903  0.7590  1.2493 -0.5349
   95SAPS   H3Y 9429   1.486   1.956   6.943 -0.1660 -0.5886 -0.3818
   95SAPS   C34 9430   1.501   2.161   7.006 -0.1103  0.1069 -0.7848
   95SAPS   H4X 9431   1.390   2.163   7.012 -0.1342  0.9233 -1.4676
   95SAPS   H4Y 9432   1.537   2.259   6.969 -2.3714  1.5662  0.6528
   95SAPS   C35 9433   1.567   2.124   7.139  0.2093  0.6186 -0.0431
   95SAPS   H5X 9434   1.556   2.209   7.209 -0.3773 -1.2756  2.2669
   95SAPS   H5Y 9435   1.677   2.114   7.121  0.0628 -1.5507 -0.0867
   95SAPS   C36 9436   1.512   1.992   7.204 -0.4625 -0.2306  0.2371
   95SAPS   H6X 9437   1.531   1.903   7.141  0.8890  0.5537 -0.5273
   95SAPS   H6Y 9438   1.402   1.997   7.193 -0.5298  0.0801  1.0374
   95SAPS   C37 9439   1.556   1.975   7.354 -0.2745  0.2393 -0.0299
   95SAPS   H7X 9440   1.665   1.994   7.362 -0.4100  0.3484  2.1407
   95SAPS   H7Y 9441   1.532   1.870   7.381  0.4012  0.0455 -0.1724
   95SAPS   C38 9442   1.477   2.076   7.445  0.0361 -0.0178 -0.5570
   95SAPS   H8X 9443   1.371   2.069   7.413 -0.2196  1.3508 -0.0624
   95SAPS   H8Y 9444   1.517   2.180   7.439 -1.5271  0.6351 -0.1392
   95SAPS   C39 9445   1.492   2.020   7.588 -0.3807  0.4470 -0.2493
   95SAPS   H9X 9446   1.600   1.999   7.602 -0.8743 -0.9957  1.8496
   95SAPS   H9Y 9447   1.435   1.925   7.595  0.7677 -0.2209  0.1575
   95SAPS  C310 9448   1.435   2.106   7.700  0.6747 -0.1266  0.8247
   95SAPS  H10X 9449   1.325   2.112   7.691  0.6863  1.2424  1.4258
   95SAPS  H10Y 9450   1.477   2.209   7.703 -0.7883  0.6290 -1.4062
   95SAPS  C311 9451   1.468   2.043   7.835 -0.6215 -0.2034  0.6725
   95SAPS  H11X 9452   1.432   2.108   7.918 -1.9328 -1.6539  1.2925
   95SAPS  H11Y 9453   1.575   2.014   7.839 -0.4947 -0.5083 -2.4336
   95SAPS  C312 9454   1.381   1.918   7.865 -0.1303  0.4647 -0.4261
   95SAPS  H12X 9455   1.416   1.858   7.951 -0.7770 -2.6913 -2.2062
   95SAPS  H12Y 9456   1.399   1.847   7.782  0.9922  2.0774 -1.6295
   95SAPS  C313 9457   1.226   1.937   7.880 -0.1314 -0.4550  0.0010
   95SAPS  H13X 9458   1.170   1.842   7.871  1.3321 -1.2800 -0.9051
   95SAPS  H13Y 9459   1.195   1.994   7.790  1.3243 -1.2228 -1.0430
   95SAPS  C314 9460   1.194   2.005   8.014  0.2103 -0.1002  0.3482
   95SAPS  H14X 9461   1.100   2.061   7.998 -0.4696 -1.3029 -0.0305
   95SAPS  H14Y 9462   1.264   2.084   8.047 -1.4411  0.8339  1.7560
   95SAPS  C315 9463   1.170   1.888   8.109  0.4326 -0.5299  0.9060
   95SAPS  H15X 9464   1.232   1.798   8.093 -1.2104 -1.3953 -0.9795
   95SAPS  H15Y 9465   1.070   1.841   8.098  1.6283 -3.3637  1.3838
   95SAPS  C316 9466   1.174   1.932   8.261  0.3857  0.3188 -0.2775
   95SAPS  H16X 9467   1.072   1.916   8.301  1.2781 -2.7888  1.1282
   95SAPS  H16Y 9468   1.186   2.042   8.264  0.1504  0.3258  0.8813
   95SAPS  C317 9469   1.271   1.843   8.348 -0.0356  0.1590  1.0633
   95SAPS  H17X 9470   1.230   1.740   8.353 -0.3586 -0.0304 -2.5580
   95SAPS  H17Y 9471   1.275   1.881   8.453 -0.2329  1.3371  0.6685
   95SAPS  C318 9472   1.415   1.837   8.292 -0.0726 -0.3798  0.6715
   95SAPS  H18X 9473   1.476   1.922   8.330  1.9224 -1.5531  0.2326
   95SAPS  H18Y 9474   1.409   1.834   8.181  0.2914  2.3337  0.5167
   95SAPS  H18Z 9475   1.463   1.743   8.328  0.2334  0.1217  1.6171
   96SAPS     N 9476   3.246   2.411   6.059  0.0106 -0.4832  0.4063
   96SAPS   HN1 9477   3.171   2.477   6.089  0.9617  1.9620 -2.1382
   96SAPS   HN2 9478   3.209   2.362   5.974 -1.1511  0.3725  0.3884
   96SAPS   HN3 9479   3.268   2.335   6.126 -0.4040 -1.3938 -0.4496
   96SAPS   C12 9480   3.371   2.492   6.032  0.2903  0.6027 -0.5769
   96SAPS  H12A 9481   3.445   2.415   6.043 -1.7382 -1.7760 -2.3517
   96SAPS   C13 9482   3.383   2.551   5.889 -0.5374  0.0073  0.2086
   96SAPS  O13A 9483   3.284   2.539   5.812  0.4736 -0.0383  0.8571
   96SAPS  O13B 9484   3.493   2.596   5.843 -0.3928  0.2118 -0.6735
   96SAPS   C11 9485   3.387   2.610   6.134  0.0964  0.2234 -0.2372
   96SAPS  H11A 9486   3.308   2.684   6.109 -2.2017 -2.7820 -2.6715
   96SAPS  H11B 9487   3.487   2.654   6.113 -0.4942  1.2388 -1.0296
   96SAPS     P 9488   3.482   2.559   6.376  0.1068  0.2081 -0.1297
   96SAPS   O13 9489   3.604   2.512   6.312  0.0334  0.1719  0.0990
   96SAPS   O14 9490   3.484   2.694   6.444  0.9737 -0.1553 -0.1003
   96SAPS   O12 9491   3.364   2.577   6.267  0.2449  0.3504 -0.6106
   96SAPS   O11 9492   3.417   2.439   6.463 -0.2894 -0.3719  0.3607
   96SAPS    C1 9493   3.282   2.462   6.515 -0.2324  0.4458 -0.5992
   96SAPS    HA 9494   3.212   2.489   6.432 -0.8423  2.6361  0.5604
   96SAPS    HB 9495   3.239   2.370   6.559  2.3221 -0.9354 -0.8252
   96SAPS    C2 9496   3.279   2.565   6.630 -0.4437  0.3412  0.0142
   96SAPS    HS 9497   3.326   2.663   6.604  0.6656 -0.2672 -0.3254
   96SAPS   O21 9498   3.347   2.509   6.747  0.0643 -0.0679  0.0127
   96SAPS   C21 9499   3.392   2.594   6.836 -0.3436 -0.6336  0.4540
   96SAPS   O22 9500   3.400   2.716   6.826  0.1696  0.7484  0.3630
   96SAPS   C22 9501   3.449   2.512   6.953  0.8816 -0.0949 -0.3219
   96SAPS   H2R 9502   3.378   2.433   6.984 -1.3127  2.1480  0.7024
   96SAPS   H2S 9503   3.546   2.467   6.922  0.7801 -0.1553 -0.5500
   96SAPS    C3 9504   3.134   2.600   6.674 -0.9685  0.8284  0.7432
   96SAPS    HX 9505   3.083   2.505   6.698 -0.9185  0.8176  0.8076
   96SAPS    HY 9506   3.090   2.620   6.574  0.9804 -0.0707 -0.3596
   96SAPS   O31 9507   3.106   2.709   6.763  0.0093 -0.3310 -0.4103
   96SAPS   C31 9508   3.125   2.830   6.712  0.6847  0.0206 -0.1783
   96SAPS   O32 9509   3.176   2.845   6.598  0.1921  0.7110 -0.1264
   96SAPS   C32 9510   3.094   2.942   6.808  0.7117 -0.0316 -0.4456
   96SAPS   H2X 9511   3.040   2.898   6.894 -0.0231  0.2736 -0.7367
   96SAPS   H2Y 9512   3.013   3.001   6.760  1.0479  0.7694 -0.0540
   96SAPS   C23 9513   3.463   2.606   7.073 -0.0465  0.3658 -0.1552
   96SAPS   H3R 9514   3.529   2.690   7.041  1.2255 -0.3178  0.5811
   96SAPS   H3S 9515   3.518   2.559   7.157 -1.5605 -0.4712  0.4101
   96SAPS   C24 9516   3.324   2.658   7.115 -0.2610  0.3274 -0.2135
   96SAPS   H4R 9517   3.268   2.709   7.034 -1.0490  1.7085  1.1380
   96SAPS   H4S 9518   3.346   2.736   7.192  2.2619 -0.4824 -0.0082
   96SAPS   C25 9519   3.243   2.549   7.172  0.1710  0.0923 -0.6116
   96SAPS   H5R 9520   3.172   2.507   7.099 -0.5848 -0.4055  0.3797
   96SAPS   C26 9521   3.224   2.516   7.297  0.0107  0.2239  0.0747
   96SAPS   H6R 9522   3.157   2.437   7.333 -0.8975  2.2627  3.2646
   96SAPS   C27 9523   3.284   2.580   7.415 -0.2227  0.5710  0.3211
   96SAPS   H7R 9524   3.365   2.648   7.381 -0.5193  1.5222  1.4589
   96SAPS   H7S 9525   3.328   2.510   7.490  1.1394  0.8157 -0.2190
   96SAPS   C28 9526   3.185   2.652   7.497  0.4567  1.4329  0.1084
   96SAPS   H8R 9527   3.100   2.699   7.445  0.0652  0.7964  0.1618
   96SAPS   C29 9528   3.194   2.676   7.632 -0.2139  0.1360  0.4294
   96SAPS   H9R 9529   3.123   2.749   7.672 -2.1088 -0.6108 -1.3706
   96SAPS  C210 9530   3.305   2.646   7.725  0.3738  0.7244 -0.6069
   96SAPS  H10R 9531   3.307   2.734   7.793 -1.5108  1.7201 -1.7644
   96SAPS  H10S 9532   3.397   2.633   7.665 -0.2496  1.9085 -1.8780
   96SAPS  C211 9533   3.295   2.510   7.790  0.0562  0.5790  0.4900
   96SAPS  H11R 9534   3.257   2.437   7.718 -2.9905  2.6099 -0.1691
   96SAPS  C212 9535   3.317   2.468   7.916 -0.1467 -0.4699  0.3596
   96SAPS  H12R 9536   3.307   2.360   7.929  1.4382 -0.7015 -0.1182
   96SAPS  C213 9537   3.374   2.550   8.035 -0.7215 -0.6824 -0.0339
   96SAPS  H13R 9538   3.284   2.570   8.096  0.4013 -1.6920  2.0918
   96SAPS  H13S 9539   3.422   2.646   8.009 -0.0515 -1.7737 -3.4015
   96SAPS  C214 9540   3.473   2.491   8.135  0.9082  0.1877  0.5816
   96SAPS  H14R 9541   3.558   2.440   8.087  0.3000 -0.4872  0.2053
   96SAPS  C215 9542   3.460   2.487   8.267  0.1202 -0.4869 -1.2559
   96SAPS  H15R 9543   3.543   2.435   8.315 -0.3486  0.4341  0.6516
   96SAPS  C216 9544   3.344   2.526   8.352  0.6558 -0.3885  0.3134
   96SAPS  H16R 9545   3.260   2.574   8.297 -0.4028 -2.4655 -0.0023
   96SAPS  H16S 9546   3.373   2.602   8.427 -1.7683  0.8743  0.0639
   96SAPS  C217 9547   3.282   2.403   8.419  0.1029  0.4397  0.2303
   96SAPS  H17R 9548   3.286   2.317   8.348 -1.1718 -0.6948  1.4818
   96SAPS  H17S 9549   3.177   2.414   8.454 -0.1709 -0.7605 -0.1468
   96SAPS  C218 9550   3.366   2.355   8.536 -0.3283 -0.4756  0.3691
   96SAPS  H18R 9551   3.471   2.387   8.522  1.1962 -4.6125  1.0479
   96SAPS  H18S 9552   3.367   2.244   8.525  2.3314 -0.5504  0.7083
   96SAPS  C219 9553   3.315   2.406   8.673 -0.2091 -0.4212  0.6944
   96SAPS  H19R 9554   3.215   2.359   8.681 -0.3799  0.0583  1.5113
   96SAPS  H19S 9555   3.292   2.515   8.672  0.4011 -0.2850 -1.2718
   96SAPS  C220 9556   3.402   2.359   8.790 -0.1146  0.5912  0.0652
   96SAPS  H20R 9557   3.367   2.405   8.885 -1.5331  1.8185 -1.0090
   96SAPS  H20S 9558   3.504   2.400   8.777 -0.0152  0.3213 -0.0166
   96SAPS  H20T 9559   3.400   2.248   8.800 -1.9911  0.5578 -0.3204
   96SAPS   C33 9560   3.218   3.017   6.847  0.0352 -0.2431  0.4652
   96SAPS   H3X 9561   3.241   3.089   6.765  0.1690  0.8454  1.4424
   96SAPS   H3Y 9562   3.296   2.938   6.858 -1.2648 -2.0556 -2.1200
   96SAPS   C34 9563   3.206   3.094   6.976  1.2440  0.9419 -0.3459
   96SAPS   H4X 9564   3.118   3.163   6.973  1.6688  1.7033  1.9915
   96SAPS   H4Y 9565   3.292   3.164   6.986  1.8557  0.0176  1.2016
   96SAPS   C35 9566   3.196   3.007   7.107 -0.5724  0.4237 -0.9835
   96SAPS   H5X 9567   3.298   2.965   7.118 -0.6523  0.4172 -0.1550
   96SAPS   H5Y 9568   3.125   2.921   7.097 -0.4377  0.0653  0.7714
   96SAPS   C36 9569   3.158   3.098   7.228  0.1890  0.3940  0.2466
   96SAPS   H6X 9570   3.063   3.147   7.200  0.0151  0.5218  1.0376
   96SAPS   H6Y 9571   3.231   3.181   7.241  1.6269  0.0285 -4.0502
   96SAPS   C37 9572   3.152   3.026   7.363  0.6925  0.4963  0.1907
   96SAPS   H7X 9573   3.257   3.017   7.398  0.9329  0.2383 -0.5739
   96SAPS   H7Y 9574   3.109   2.924   7.364  0.6710  0.4824  2.1146
   96SAPS   C38 9575   3.064   3.109   7.460  0.0583 -0.3239  0.6030
   96SAPS   H8X 9576   2.955   3.109   7.440 -0.6082 -2.5207  3.6239
   96SAPS   H8Y 9577   3.096   3.213   7.436 -3.5894  0.9694  0.7346
   96SAPS   C39 9578   3.093   3.079   7.604 -0.4126  0.3533 -0.0929
   96SAPS   H9X 9579   3.201   3.078   7.630 -0.5001  0.5991  0.2855
   96SAPS   H9Y 9580   3.045   2.982   7.627 -2.0061  1.2025  0.3483
   96SAPS  C310 9581   3.030   3.182   7.702  0.2347 -0.0574  0.2582
   96SAPS  H10X 9582   2.923   3.157   7.715  0.5036 -0.7572  1.2319
   96SAPS  H10Y 9583   3.036   3.278   7.647 -2.0381 -2.0411 -3.9322
   96SAPS  C311 9584   3.102   3.194   7.835  0.1803 -0.8110  0.5767
   96SAPS  H11X 9585   3.046   3.275   7.886  1.0901 -0.1650  0.5768
   96SAPS  H11Y 9586   3.209   3.226   7.829  0.6046 -2.3692 -0.8687
   96SAPS  C312 9587   3.094   3.062   7.900  0.1472 -1.0464 -0.1188
   96SAPS  H12X 9588   3.152   2.997   7.831  1.7558 -0.7951  0.9429
   96SAPS  H12Y 9589   2.984   3.046   7.903 -0.1600  0.9208  0.1751
   96SAPS  C313 9590   3.152   3.049   8.043 -0.8921 -0.1087  0.1893
   96SAPS  H13X 9591   3.101   3.132   8.096  1.0161  2.4137 -1.6502
   96SAPS  H13Y 9592   3.261   3.071   8.050 -0.9729  0.0262  1.0562
   96SAPS  C314 9593   3.128   2.917   8.109 -0.5242 -0.2314 -0.4045
   96SAPS  H14X 9594   3.170   2.849   8.032  0.4199  1.9669 -1.9136
   96SAPS  H14Y 9595   3.020   2.893   8.121 -0.8691  1.7553  1.1322
   96SAPS  C315 9596   3.205   2.887   8.241 -0.0681 -0.0615 -0.3566
   96SAPS  H15X 9597   3.314   2.892   8.218 -0.3180 -1.4833 -2.1389
   96SAPS  H15Y 9598   3.183   2.781   8.266 -2.0036  0.5474  0.6671
   96SAPS  C316 9599   3.156   2.978   8.356  0.3997 -0.7019 -0.1804
   96SAPS  H16X 9600   3.051   2.941   8.361 -0.0125  0.5260  0.5848
   96SAPS  H16Y 9601   3.166   3.086   8.333 -0.9317 -0.8453 -1.5413
   96SAPS  C317 9602   3.221   2.948   8.488  0.0001 -0.2085  0.2359
   96SAPS  H17X 9603   3.227   2.838   8.506 -1.6259  0.0003  2.4953
   96SAPS  H17Y 9604   3.148   2.982   8.565 -1.5054  0.4536 -1.4056
   96SAPS  C318 9605   3.350   3.030   8.510 -0.0356  0.1434 -0.2241
   96SAPS  H18X 9606   3.385   3.018   8.614 -1.2700  0.1382  0.2089
   96SAPS  H18Y 9607   3.340   3.140   8.492 -2.0459 -0.3737 -3.0460
   96SAPS  H18Z 9608   3.427   2.992   8.440  1.3704  1.5923  0.4604
   97SAPS     N 9609   2.826   0.536   6.172 -0.0260  0.3981  0.1698
   97SAPS   HN1 9610   2.899   0.476   6.215  0.8715  0.5688 -1.0775
   97SAPS   HN2 9611   2.742   0.527   6.233 -1.2655  0.9806 -1.3733
   97SAPS   HN3 9612   2.806   0.503   6.076 -0.4785  2.3735 -0.4627
   97SAPS   C12 9613   2.867   0.677   6.172  0.7255  0.1149 -0.2281
   97SAPS  H12A 9614   2.957   0.690   6.114 -1.2133 -0.8682 -3.8225
   97SAPS   C13 9615   2.771   0.775   6.106  0.3015  0.2432  0.6873
   97SAPS  O13A 9616   2.681   0.736   6.027 -0.0352 -0.2812 -0.4272
   97SAPS  O13B 9617   2.797   0.899   6.116  0.2627 -0.2520  0.2690
   97SAPS   C11 9618   2.880   0.719   6.324  0.1751  0.0878 -0.7399
   97SAPS  H11A 9619   2.780   0.720   6.372  0.9713 -0.4765  1.0250
   97SAPS  H11B 9620   2.918   0.824   6.324 -1.1391  0.5922  0.1951
   97SAPS     P 9621   3.114   0.642   6.421 -0.3741 -0.3842  0.2179
   97SAPS   O13 9622   3.193   0.520   6.387 -0.1259 -0.0733 -0.2424
   97SAPS   O14 9623   3.160   0.768   6.359  0.1604 -0.0047 -0.3563
   97SAPS   O12 9624   2.963   0.622   6.388 -0.3033  0.3408 -0.3875
   97SAPS   O11 9625   3.126   0.658   6.581  0.7580 -0.0432 -0.4345
   97SAPS    C1 9626   3.026   0.724   6.654 -0.2567  0.2245  0.8436
   97SAPS    HA 9627   3.034   0.831   6.626  1.1984  0.2979  1.4386
   97SAPS    HB 9628   2.924   0.686   6.633 -0.0613  0.0010  0.2784
   97SAPS    C2 9629   3.055   0.707   6.803 -0.1152  0.5286 -0.0917
   97SAPS    HS 9630   2.979   0.763   6.862  0.1000  1.7423 -0.9453
   97SAPS   O21 9631   3.186   0.735   6.849 -0.0608  0.9959 -0.4523
   97SAPS   C21 9632   3.217   0.860   6.853 -0.1129  0.1626 -0.0979
   97SAPS   O22 9633   3.143   0.954   6.834 -0.1779 -0.1514 -0.2899
   97SAPS   C22 9634   3.359   0.868   6.926  0.3423  0.0064  0.6819
   97SAPS   H2R 9635   3.424   0.807   6.859  0.5459  0.5160  0.4058
   97SAPS   H2S 9636   3.407   0.969   6.927  0.5894 -0.0811 -0.6010
   97SAPS    C3 9637   3.021   0.555   6.838  0.4893  0.1807  0.9582
   97SAPS    HX 9638   3.085   0.489   6.775  0.1593 -0.0580  0.8699
   97SAPS    HY 9639   2.914   0.542   6.811 -0.1816 -2.0576  4.1346
   97SAPS   O31 9640   3.047   0.514   6.977 -0.2955 -0.0601 -0.1876
   97SAPS   C31 9641   3.164   0.470   7.013  0.8041 -0.1539 -0.6633
   97SAPS   O32 9642   3.259   0.459   6.937 -0.2803  0.3265 -0.0771
   97SAPS   C32 9643   3.165   0.434   7.160  0.1977 -0.1881 -0.2426
   97SAPS   H2X 9644   3.062   0.407   7.193 -0.3406  1.6845 -0.2435
   97SAPS   H2Y 9645   3.168   0.535   7.207  2.4788 -1.9168  3.7650
   97SAPS   C23 9646   3.351   0.814   7.071 -0.6436  0.8510 -0.7053
   97SAPS   H3R 9647   3.448   0.770   7.102 -0.3112  2.4894  0.7396
   97SAPS   H3S 9648   3.276   0.732   7.072 -0.4466  0.6723 -0.6687
   97SAPS   C24 9649   3.313   0.922   7.180  0.0662  0.0312 -0.2616
   97SAPS   H4R 9650   3.331   1.023   7.139  0.0613  0.9240  1.8039
   97SAPS   H4S 9651   3.375   0.912   7.272  1.6327 -0.0822 -1.2823
   97SAPS   C25 9652   3.169   0.897   7.209  0.4215 -0.3802  0.2948
   97SAPS   H5R 9653   3.087   0.935   7.146  0.1498  1.8672  1.8536
   97SAPS   C26 9654   3.126   0.816   7.308 -0.8672 -0.4434 -0.2373
   97SAPS   H6R 9655   3.019   0.805   7.327 -1.4543  1.9199 -1.7766
   97SAPS   C27 9656   3.211   0.749   7.414  0.1255  0.3138  0.3012
   97SAPS   H7R 9657   3.315   0.733   7.378  1.0162  0.2028  2.7382
   97SAPS   H7S 9658   3.160   0.654   7.441  0.2039  0.9122  2.7898
   97SAPS   C28 9659   3.224   0.829   7.546 -0.2597  0.3982  0.5497
   97SAPS   H8R 9660   3.293   0.914   7.541 -1.1119  1.0456 -2.3156
   97SAPS   C29 9661   3.165   0.799   7.663 -0.4810  0.4049 -0.6537
   97SAPS   H9R 9662   3.180   0.871   7.744  1.2779  0.0808 -0.6458
   97SAPS  C210 9663   3.075   0.679   7.690  0.2711  0.2742 -0.6193
   97SAPS  H10R 9664   3.145   0.607   7.739 -0.8816 -1.2948 -1.2148
   97SAPS  H10S 9665   3.032   0.630   7.600  1.6236 -0.5986 -0.8111
   97SAPS  C211 9666   2.977   0.719   7.794 -0.3336 -0.3992 -0.7193
   97SAPS  H11R 9667   2.892   0.767   7.744 -0.7782 -0.3168  0.1040
   97SAPS  C212 9668   2.980   0.695   7.925 -0.4122  0.1755 -0.6917
   97SAPS  H12R 9669   2.896   0.726   7.990 -0.0524 -0.1574 -0.0570
   97SAPS  C213 9670   3.089   0.627   8.005  0.3324 -0.4853 -1.0438
   97SAPS  H13R 9671   3.148   0.550   7.952 -1.3431 -2.4156 -0.2402
   97SAPS  H13S 9672   3.028   0.573   8.081 -1.6579  0.2493 -2.0463
   97SAPS  C214 9673   3.193   0.717   8.063 -0.4471  0.0553 -0.6843
   97SAPS  H14R 9674   3.230   0.794   7.994  0.6492  2.0605  2.0049
   97SAPS  C215 9675   3.253   0.707   8.184  0.2664  0.1371 -0.3578
   97SAPS  H15R 9676   3.335   0.772   8.216 -0.5052  0.4759  0.9879
   97SAPS  C216 9677   3.210   0.615   8.291 -0.1081 -0.7587 -0.2712
   97SAPS  H16R 9678   3.246   0.514   8.261  1.9196  0.4292 -2.1430
   97SAPS  H16S 9679   3.099   0.613   8.296 -0.1117  0.9916  1.4648
   97SAPS  C217 9680   3.273   0.655   8.428  0.1354 -0.2497  0.7879
   97SAPS  H17R 9681   3.381   0.680   8.419 -0.0913  2.3374  3.5514
   97SAPS  H17S 9682   3.267   0.568   8.496 -1.0077 -0.1408  0.8542
   97SAPS  C218 9683   3.208   0.779   8.484  0.0099 -0.7193  0.5824
   97SAPS  H18R 9684   3.098   0.766   8.488 -0.0371 -0.2316  1.0773
   97SAPS  H18S 9685   3.240   0.859   8.413 -1.1734 -2.4572 -2.0704
   97SAPS  C219 9686   3.246   0.811   8.634  0.0651  0.2480 -0.1272
   97SAPS  H19R 9687   3.357   0.815   8.640  0.0280  1.0625  0.2286
   97SAPS  H19S 9688   3.209   0.736   8.707 -0.5272  1.3545  0.7451
   97SAPS  C220 9689   3.173   0.936   8.685  0.1875  0.1488 -0.2229
   97SAPS  H20R 9690   3.174   0.952   8.795 -0.6588 -1.0431 -0.0308
   97SAPS  H20S 9691   3.065   0.921   8.666  0.6051 -3.3906 -0.3412
   97SAPS  H20T 9692   3.202   1.027   8.628 -0.3155  0.3760 -0.1225
   97SAPS   C33 9693   3.274   0.336   7.209 -0.0423  0.6674 -0.2020
   97SAPS   H3X 9694   3.370   0.348   7.156  1.7807 -1.1305  2.4480
   97SAPS   H3Y 9695   3.245   0.233   7.178 -1.5215  0.5805  1.3326
   97SAPS   C34 9696   3.298   0.350   7.358  0.4649 -0.4351 -0.4647
   97SAPS   H4X 9697   3.344   0.445   7.396 -0.6458 -1.1919  3.2018
   97SAPS   H4Y 9698   3.365   0.267   7.387  0.5340 -1.4406 -3.2286
   97SAPS   C35 9699   3.178   0.339   7.444  0.8462  0.5673 -0.6911
   97SAPS   H5X 9700   3.130   0.238   7.444  0.2283  0.8539 -0.8113
   97SAPS   H5Y 9701   3.105   0.414   7.406 -1.1708 -1.0918 -0.3030
   97SAPS   C36 9702   3.212   0.365   7.594  0.4521 -0.0054  0.6424
   97SAPS   H6X 9703   3.241   0.473   7.591  1.1674 -0.1534  1.7557
   97SAPS   H6Y 9704   3.299   0.307   7.630  0.4657 -0.0517  0.5353
   97SAPS   C37 9705   3.098   0.334   7.682  0.1843 -0.6748 -0.1380
   97SAPS   H7X 9706   3.011   0.275   7.646 -0.8272 -0.5807  1.9683
   97SAPS   H7Y 9707   3.042   0.422   7.722  0.7029 -0.9340  1.2356
   97SAPS   C38 9708   3.143   0.245   7.798 -0.6550  0.2577  0.2163
   97SAPS   H8X 9709   3.228   0.290   7.854  0.4714 -1.1842 -0.2741
   97SAPS   H8Y 9710   3.195   0.155   7.758 -1.3231 -1.2701  2.5674
   97SAPS   C39 9711   3.036   0.205   7.896 -0.4596  1.2858  0.2971
   97SAPS   H9X 9712   2.964   0.130   7.855 -1.1037  0.6008  2.5464
   97SAPS   H9Y 9713   2.985   0.297   7.932 -0.5050  1.1779  0.5107
   97SAPS  C310 9714   3.092   0.133   8.027 -0.2358 -0.3934 -0.6751
   97SAPS  H10X 9715   3.099   0.025   8.003 -0.1730 -0.3948 -0.6506
   97SAPS  H10Y 9716   3.006   0.142   8.097 -0.4753  1.4805 -1.1458
   97SAPS  C311 9717   3.222   0.186   8.086 -0.0292 -0.2251  0.2418
   97SAPS  H11X 9718   3.219   0.298   8.088 -0.3760 -0.1150 -2.5213
   97SAPS  H11Y 9719   3.308   0.153   8.025 -0.2459 -1.2585  0.4728
   97SAPS  C312 9720   3.243   0.136   8.233  0.5341 -0.1643 -0.3100
   97SAPS  H12X 9721   3.144   0.163   8.275 -0.3840 -3.4336 -0.0846
   97SAPS  H12Y 9722   3.320   0.191   8.292 -1.6982  0.3156  2.3958
   97SAPS  C313 9723   3.258  -0.021   8.252 -0.3698  0.2077  0.7263
   97SAPS  H13X 9724   3.323  -0.057   8.170 -3.1601 -2.4850 -0.4770
   97SAPS  H13Y 9725   3.161  -0.066   8.224  0.2815  0.9207 -3.3105
   97SAPS  C314 9726   3.320  -0.062   8.394  0.2052 -0.0504  0.4608
   97SAPS  H14X 9727   3.238  -0.033   8.463  1.4792  1.9379  1.2514
   97SAPS  H14Y 9728   3.419  -0.017   8.418  0.9121 -0.6294 -1.1763
   97SAPS  C315 9729   3.341  -0.211   8.400  0.4339  0.1591  0.0888
   97SAPS  H15X 9730   3.408  -0.237   8.315  0.4817 -0.7710  0.4068
   97SAPS  H15Y 9731   3.243  -0.261   8.390  1.3101 -1.4221 -0.9271
   97SAPS  C316 9732   3.401  -0.265   8.529  0.0792 -0.7090  0.0336
   97SAPS  H16X 9733   3.348  -0.237   8.622 -1.1119  1.3676 -1.2109
   97SAPS  H16Y 9734   3.505  -0.225   8.537 -0.6400  1.1479  0.6283
   97SAPS  C317 9735   3.406  -0.423   8.538 -0.0872  0.0086  0.3158
   97SAPS  H17X 9736   3.307  -0.473   8.551  0.1663 -0.7933 -0.6476
   97SAPS  H17Y 9737   3.463  -0.448   8.630  0.8221  0.7905 -0.0261
   97SAPS  C318 9738   3.486  -0.491   8.423  0.2505  0.1665 -0.2862
   97SAPS  H18X 9739   3.445  -0.473   8.321 -1.2278  0.4476  0.3242
   97SAPS  H18Y 9740   3.501  -0.598   8.447 -1.5132  0.0418  0.4258
   97SAPS  H18Z 9741   3.588  -0.447   8.419  1.5659 -2.6812 -0.2094
   98SAPS     N 9742   6.227   1.236   5.930 -0.4707  0.3978  0.1422
   98SAPS   HN1 9743   6.160   1.292   5.986 -0.8424 -1.3368  1.5541
   98SAPS   HN2 9744   6.181   1.169   5.865 -0.3249  0.2475  0.1912
   98SAPS   HN3 9745   6.294   1.189   5.995  1.1922  0.8281 -1.1786
   98SAPS   C12 9746   6.299   1.337   5.857 -0.1082 -0.0242 -0.3480
   98SAPS  H12A 9747   6.369   1.276   5.801 -0.6862 -1.6169  0.5896
   98SAPS   C13 9748   6.217   1.418   5.752  0.4672 -0.1411  0.7801
   98SAPS  O13A 9749   6.096   1.391   5.750  0.1572 -0.0167  0.9451
   98SAPS  O13B 9750   6.279   1.478   5.664 -0.4138  0.4086  0.5815
   98SAPS   C11 9751   6.361   1.432   5.963 -0.7932 -0.3830  0.8018
   98SAPS  H11A 9752   6.285   1.489   6.022 -0.1676  1.3569 -0.0218
   98SAPS  H11B 9753   6.412   1.516   5.912  0.5170 -0.8191  1.3599
   98SAPS     P 9754   6.595   1.376   6.065  0.2726 -0.5720 -0.6614
   98SAPS   O13 9755   6.660   1.274   5.976  0.5073 -0.1986 -0.4279
   98SAPS   O14 9756   6.620   1.517   6.036 -0.2055 -0.5800 -0.3604
   98SAPS   O12 9757   6.445   1.357   6.060 -0.1276  0.0851  0.0596
   98SAPS   O11 9758   6.632   1.333   6.207 -1.0946 -0.1982  0.0963
   98SAPS    C1 9759   6.565   1.371   6.326 -0.0533  0.3718 -0.0529
   98SAPS    HA 9760   6.605   1.469   6.358  0.6338  0.1787 -0.3062
   98SAPS    HB 9761   6.455   1.371   6.313  0.2034  0.5533 -2.9316
   98SAPS    C2 9762   6.600   1.277   6.449 -0.5741  0.5015  0.1380
   98SAPS    HS 9763   6.522   1.303   6.524 -1.6962 -2.6145  0.1950
   98SAPS   O21 9764   6.735   1.281   6.485  0.7291 -0.1446 -0.2549
   98SAPS   C21 9765   6.761   1.378   6.573 -0.6154  0.4377  0.0705
   98SAPS   O22 9766   6.690   1.467   6.607 -0.0617  0.4049 -0.2255
   98SAPS   C22 9767   6.913   1.362   6.616  0.1381  0.2893  0.3304
   98SAPS   H2R 9768   6.964   1.304   6.537  1.3881  1.5554  0.1699
   98SAPS   H2S 9769   6.966   1.459   6.615  0.5566  0.0573 -0.1145
   98SAPS    C3 9770   6.562   1.129   6.412  0.8940  0.6715  0.3161
   98SAPS    HX 9771   6.643   1.084   6.351 -0.1410 -0.8424 -0.0246
   98SAPS    HY 9772   6.476   1.130   6.341  0.4566 -3.7315  0.4646
   98SAPS   O31 9773   6.543   1.043   6.523  0.5445  0.0824  0.2066
   98SAPS   C31 9774   6.415   1.044   6.570 -0.0299  0.3766  0.0609
   98SAPS   O32 9775   6.320   1.103   6.518 -0.4564 -0.7430 -0.3433
   98SAPS   C32 9776   6.417   0.971   6.707  0.3715 -0.2817  1.0596
   98SAPS   H2X 9777   6.430   0.863   6.681 -2.8064 -0.6846  0.7691
   98SAPS   H2Y 9778   6.318   0.991   6.753  1.4099  4.4097  1.7533
   98SAPS   C23 9779   6.917   1.316   6.760  0.6493 -0.3373  1.0132
   98SAPS   H3R 9780   6.835   1.357   6.822 -1.2914 -2.5771  0.0925
   98SAPS   H3S 9781   7.010   1.348   6.811  0.5511 -2.3172  2.5576
   98SAPS   C24 9782   6.902   1.165   6.767 -0.5198 -0.1177  0.2816
   98SAPS   H4R 9783   6.849   1.131   6.675  0.5556  0.2653 -0.4928
   98SAPS   H4S 9784   6.826   1.131   6.841 -1.4504 -0.6936 -0.8869
   98SAPS   C25 9785   7.034   1.092   6.772 -0.3357 -0.4107 -0.3210
   98SAPS   H5R 9786   7.108   1.134   6.703 -0.1599  1.2629  0.8301
   98SAPS   C26 9787   7.062   0.981   6.839  0.0712  0.3175  0.3645
   98SAPS   H6R 9788   7.162   0.940   6.820  0.7463  1.6116  0.9927
   98SAPS   C27 9789   6.972   0.900   6.938 -0.5505  0.0002 -0.9212
   98SAPS   H7R 9790   6.898   0.968   6.986 -0.8361 -1.4087  0.7407
   98SAPS   H7S 9791   7.047   0.874   7.016  0.0211 -0.2997 -1.5646
   98SAPS   C28 9792   6.880   0.792   6.877 -0.8437 -0.4518 -0.2461
   98SAPS   H8R 9793   6.868   0.810   6.770 -1.7589  0.6629  0.0181
   98SAPS   C29 9794   6.815   0.695   6.943 -0.6768  0.2411 -0.6596
   98SAPS   H9R 9795   6.747   0.630   6.886 -2.8158  0.4774  1.5017
   98SAPS  C210 9796   6.815   0.679   7.094 -0.6521 -0.7526  0.5474
   98SAPS  H10R 9797   6.892   0.741   7.145 -1.2420  1.0879 -0.6994
   98SAPS  H10S 9798   6.844   0.574   7.117  1.1380  0.1082  2.5447
   98SAPS  C211 9799   6.680   0.709   7.149  0.2249 -0.2142 -0.1885
   98SAPS  H11R 9800   6.626   0.784   7.089 -0.4270 -0.5617 -0.0546
   98SAPS  C212 9801   6.619   0.657   7.256  0.1714  0.0698 -0.4802
   98SAPS  H12R 9802   6.519   0.695   7.280  0.1606 -0.6611  0.7032
   98SAPS  C213 9803   6.669   0.556   7.356  0.1790 -0.4734  0.5859
   98SAPS  H13R 9804   6.742   0.494   7.300 -0.0309  0.5007 -0.8349
   98SAPS  H13S 9805   6.584   0.491   7.387 -0.2228 -0.1735  0.1444
   98SAPS  C214 9806   6.721   0.631   7.472 -0.1280  0.6747  0.7897
   98SAPS  H14R 9807   6.802   0.702   7.452 -0.3863  0.6008 -0.6578
   98SAPS  C215 9808   6.694   0.602   7.600 -0.2086 -0.8605  0.3569
   98SAPS  H15R 9809   6.741   0.658   7.681 -0.6356  0.0327  0.0013
   98SAPS  C216 9810   6.600   0.488   7.645 -0.6639 -0.5876  0.2085
   98SAPS  H16R 9811   6.640   0.398   7.595 -1.4591 -0.6446 -0.3498
   98SAPS  H16S 9812   6.500   0.509   7.601  0.4519  1.7446 -1.4563
   98SAPS  C217 9813   6.613   0.474   7.802  0.4719 -0.4813 -0.2379
   98SAPS  H17R 9814   6.613   0.579   7.837 -0.1481 -0.7770  0.6815
   98SAPS  H17S 9815   6.707   0.421   7.827 -0.1744 -1.5985 -0.1063
   98SAPS  C218 9816   6.501   0.409   7.874 -0.1129 -0.6372  0.2705
   98SAPS  H18R 9817   6.515   0.299   7.881 -2.7567 -1.0119  0.5909
   98SAPS  H18S 9818   6.408   0.432   7.818 -0.1935 -0.8628  0.3099
   98SAPS  C219 9819   6.475   0.464   8.018  0.4390 -0.7547  0.3164
   98SAPS  H19R 9820   6.399   0.545   8.013 -0.0837 -1.2944 -0.9457
   98SAPS  H19S 9821   6.562   0.506   8.073 -1.2287  1.3104  1.5562
   98SAPS  C220 9822   6.411   0.359   8.091 -0.2074  0.0398 -0.1138
   98SAPS  H20R 9823   6.393   0.390   8.196 -2.3066  3.9851 -1.4170
   98SAPS  H20S 9824   6.470   0.265   8.092 -1.1057 -0.5461  0.7663
   98SAPS  H20T 9825   6.310   0.337   8.048 -0.5377 -2.0955  1.5823
   98SAPS   C33 9826   6.529   1.012   6.804 -0.5282 -0.1140  0.4131
   98SAPS   H3X 9827   6.625   1.000   6.747 -1.8738 -0.8367 -1.8507
   98SAPS   H3Y 9828   6.525   0.938   6.886  1.1530 -2.2569 -1.2750
   98SAPS   C34 9829   6.515   1.152   6.855 -0.5827  0.8476 -0.5625
   98SAPS   H4X 9830   6.405   1.169   6.860 -1.4462 -3.3024 -1.4687
   98SAPS   H4Y 9831   6.559   1.224   6.782  0.7863  0.1836 -0.4217
   98SAPS   C35 9832   6.593   1.169   6.985 -0.7621 -0.2957 -0.0248
   98SAPS   H5X 9833   6.682   1.106   6.962 -0.2464  0.5983 -0.5216
   98SAPS   H5Y 9834   6.539   1.129   7.073  0.9004  1.1001  1.7117
   98SAPS   C36 9835   6.634   1.308   7.011  0.0313  0.5659 -0.6207
   98SAPS   H6X 9836   6.549   1.365   7.054  0.5789  1.0553 -0.1715
   98SAPS   H6Y 9837   6.664   1.357   6.915  3.7895 -1.7135 -0.7859
   98SAPS   C37 9838   6.756   1.325   7.106 -0.2677 -0.1188 -0.6121
   98SAPS   H7X 9839   6.781   1.433   7.108 -2.1710  0.3689 -1.1130
   98SAPS   H7Y 9840   6.841   1.281   7.049  0.6230  1.0270 -0.2104
   98SAPS   C38 9841   6.737   1.267   7.252 -0.3764  0.3722  0.9113
   98SAPS   H8X 9842   6.839   1.272   7.297  1.4438 -2.6725 -2.2611
   98SAPS   H8Y 9843   6.716   1.158   7.243  0.2362  0.2296  1.1264
   98SAPS   C39 9844   6.642   1.340   7.335  0.1095  0.1752  0.2669
   98SAPS   H9X 9845   6.536   1.306   7.325  0.1851 -0.7812  2.2981
   98SAPS   H9Y 9846   6.644   1.448   7.310 -0.1418 -0.3653 -2.3825
   98SAPS  C310 9847   6.679   1.325   7.479  0.0096  0.4693  0.5164
   98SAPS  H10X 9848   6.777   1.376   7.491  0.7424 -1.4789  4.1820
   98SAPS  H10Y 9849   6.683   1.220   7.512 -2.9055  0.9828  2.8845
   98SAPS  C311 9850   6.588   1.403   7.579  0.0691 -0.2908  0.0693
   98SAPS  H11X 9851   6.486   1.359   7.588 -0.7126  0.8627 -2.4331
   98SAPS  H11Y 9852   6.577   1.501   7.528  3.7244 -0.5420 -1.5281
   98SAPS  C312 9853   6.648   1.405   7.718  0.7280 -0.2327  0.1548
   98SAPS  H12X 9854   6.737   1.471   7.709 -0.9291  2.0471 -0.3583
   98SAPS  H12Y 9855   6.673   1.302   7.752 -0.0541  0.1065  1.8554
   98SAPS  C313 9856   6.550   1.462   7.821 -0.1228  0.5424 -0.0706
   98SAPS  H13X 9857   6.459   1.398   7.824  1.4705 -1.8589 -0.6015
   98SAPS  H13Y 9858   6.518   1.568   7.809 -0.9739  0.6890  2.7440
   98SAPS  C314 9859   6.599   1.453   7.965 -0.2232 -0.0251  0.0464
   98SAPS  H14X 9860   6.689   1.517   7.977 -0.1169  0.1165 -1.3483
   98SAPS  H14Y 9861   6.614   1.344   7.980  0.9509  0.0736 -0.2681
   98SAPS  C315 9862   6.493   1.484   8.076 -0.2086 -0.2049  0.5173
   98SAPS  H15X 9863   6.422   1.400   8.076 -0.6765  0.1723 -0.5520
   98SAPS  H15Y 9864   6.429   1.570   8.048  0.1589 -0.1574 -0.2248
   98SAPS  C316 9865   6.558   1.494   8.214  0.2524  0.1690 -1.0688
   98SAPS  H16X 9866   6.491   1.559   8.275 -1.4761 -3.7802  1.6914
   98SAPS  H16Y 9867   6.659   1.539   8.208  0.5290 -0.3484 -0.4615
   98SAPS  C317 9868   6.542   1.357   8.298  0.3766  0.1585  0.4666
   98SAPS  H17X 9869   6.625   1.295   8.258  0.1793  2.0510 -3.3006
   98SAPS  H17Y 9870   6.443   1.315   8.270  1.0157 -0.5311 -0.8770
   98SAPS  C318 9871   6.559   1.385   8.445  0.4167 -0.4322  0.0553
   98SAPS  H18X 9872   6.462   1.423   8.484  0.1087  1.0110 -1.9600
   98SAPS  H18Y 9873   6.628   1.470   8.468  0.8507 -0.6898 -0.2763
   98SAPS  H18Z 9874   6.586   1.293   8.502 -1.3567 -0.8010  0.3452
   99SAPS     N 9875   1.587   6.254   5.896 -0.3845  0.2842  0.3343
   99SAPS   HN1 9876   1.664   6.254   5.965 -0.2906  4.3014  0.4099
   99SAPS   HN2 9877   1.607   6.337   5.838 -1.2782 -0.1388 -0.6157
   99SAPS   HN3 9878   1.495   6.259   5.944 -0.8543  1.0019 -0.6048
   99SAPS   C12 9879   1.584   6.132   5.816 -0.3707 -0.1635 -0.5391
   99SAPS  H12A 9880   1.511   6.141   5.737 -1.2890  0.2385  0.3295
   99SAPS   C13 9881   1.714   6.094   5.746 -0.5234 -0.2763 -0.4818
   99SAPS  O13A 9882   1.821   6.159   5.768 -0.7457  0.5321 -0.6626
   99SAPS  O13B 9883   1.706   6.012   5.652 -0.0933  0.6730  0.7073
   99SAPS   C11 9884   1.538   6.005   5.909 -0.2988  0.5084 -0.1813
   99SAPS  H11A 9885   1.541   5.910   5.851 -0.0709 -1.0782  2.2919
   99SAPS  H11B 9886   1.434   6.007   5.950  0.3449 -0.3420  1.5957
   99SAPS     P 9887   1.621   5.870   6.111  0.0773 -0.3997  0.1372
   99SAPS   O13 9888   1.625   5.737   6.049 -0.0302 -0.6664  0.2583
   99SAPS   O14 9889   1.727   5.894   6.216  0.2822  0.8617  0.5505
   99SAPS   O12 9890   1.628   5.993   6.011 -0.1543 -0.3537 -0.0408
   99SAPS   O11 9891   1.476   5.884   6.176  0.0897 -0.0401 -0.1859
   99SAPS    C1 9892   1.422   6.010   6.229 -0.0329  0.1824 -0.7392
   99SAPS    HA 9893   1.468   6.104   6.191 -0.0661  0.3645 -0.3295
   99SAPS    HB 9894   1.311   6.006   6.217 -0.2450  3.4697 -0.6963
   99SAPS    C2 9895   1.435   6.020   6.385  0.8328 -0.5931  0.6606
   99SAPS    HS 9896   1.540   6.050   6.406  0.5066  1.1685 -0.0774
   99SAPS   O21 9897   1.388   5.899   6.448 -0.5917 -0.0065 -0.0986
   99SAPS   C21 9898   1.463   5.850   6.543  0.2727 -0.9457  0.9274
   99SAPS   O22 9899   1.575   5.894   6.569 -0.2984 -0.3511  0.4815
   99SAPS   C22 9900   1.381   5.751   6.620  0.6703  0.0179  0.1093
   99SAPS   H2R 9901   1.279   5.793   6.631  1.3411  1.4500  1.0687
   99SAPS   H2S 9902   1.355   5.668   6.550 -2.5291  0.4263  0.6638
   99SAPS    C3 9903   1.353   6.146   6.433 -0.5667  0.7282  0.6705
   99SAPS    HX 9904   1.244   6.122   6.434 -0.8219  1.6649 -0.7645
   99SAPS    HY 9905   1.367   6.221   6.352 -0.7871 -0.3770 -0.4253
   99SAPS   O31 9906   1.407   6.197   6.551 -0.3557  1.1936  0.1501
   99SAPS   C31 9907   1.344   6.152   6.657 -0.6202  0.1619  0.1946
   99SAPS   O32 9908   1.248   6.077   6.660 -0.2732 -0.2679  0.0335
   99SAPS   C32 9909   1.414   6.212   6.773  0.6074 -1.0613 -0.2890
   99SAPS   H2X 9910   1.438   6.316   6.743 -0.1600 -1.0288 -0.8047
   99SAPS   H2Y 9911   1.516   6.177   6.801  1.6525  2.5873  0.9950
   99SAPS   C23 9912   1.445   5.698   6.752 -0.1330 -0.9808  0.6933
   99SAPS   H3R 9913   1.479   5.785   6.812 -2.3632 -0.3770  1.1721
   99SAPS   H3S 9914   1.533   5.634   6.730  0.2816 -0.9958  2.2706
   99SAPS   C24 9915   1.358   5.601   6.830  0.1497  0.0058 -0.0639
   99SAPS   H4R 9916   1.417   5.546   6.906 -0.3925 -0.2609  0.1747
   99SAPS   H4S 9917   1.332   5.519   6.759  1.3653 -1.2836  0.9204
   99SAPS   C25 9918   1.227   5.663   6.877  0.4706  0.4630 -1.4393
   99SAPS   H5R 9919   1.154   5.709   6.809 -0.4304  0.1593 -0.7083
   99SAPS   C26 9920   1.191   5.676   7.009  0.7261  0.3581  0.4532
   99SAPS   H6R 9921   1.090   5.717   7.020  0.5182  0.1900 -0.6346
   99SAPS   C27 9922   1.264   5.637   7.134 -0.5050  0.3001  0.2114
   99SAPS   H7R 9923   1.288   5.725   7.197  3.3008 -0.1320 -0.4028
   99SAPS   H7S 9924   1.364   5.596   7.108  0.1505  1.7531  0.3610
   99SAPS   C28 9925   1.199   5.532   7.220 -0.2159 -0.1476  0.0354
   99SAPS   H8R 9926   1.126   5.463   7.176  0.8158  0.2429 -2.4921
   99SAPS   C29 9927   1.213   5.527   7.355 -0.5749  0.0909 -0.7842
   99SAPS   H9R 9928   1.151   5.455   7.409 -0.2543 -1.0463 -1.8698
   99SAPS  C210 9929   1.302   5.618   7.437  0.9825 -0.1479  0.1867
   99SAPS  H10R 9930   1.247   5.713   7.452  2.1875  0.4258  1.1315
   99SAPS  H10S 9931   1.391   5.657   7.383 -0.0509  0.0721 -1.4140
   99SAPS  C211 9932   1.357   5.541   7.558  0.3259 -0.3024 -0.4434
   99SAPS  H11R 9933   1.395   5.445   7.518 -1.4607 -1.1366 -0.2536
   99SAPS  C212 9934   1.343   5.575   7.693  0.2517  0.5340  0.6971
   99SAPS  H12R 9935   1.385   5.508   7.769 -1.0687  1.0790  1.9620
   99SAPS  C213 9936   1.281   5.703   7.745 -0.3065 -0.1536 -0.1625
   99SAPS  H13R 9937   1.251   5.767   7.659 -1.0518  0.6997  0.7229
   99SAPS  H13S 9938   1.360   5.759   7.799 -0.6681 -0.9200  1.2176
   99SAPS  C214 9939   1.152   5.675   7.813 -0.2498  0.1992 -0.3723
   99SAPS  H14R 9940   1.074   5.632   7.748  1.3194 -0.5773 -1.8188
   99SAPS  C215 9941   1.124   5.689   7.944  0.4811 -0.2798 -0.4380
   99SAPS  H15R 9942   1.022   5.660   7.972  1.3369 -2.1541  0.9532
   99SAPS  C216 9943   1.217   5.741   8.053 -0.5694  0.2980  0.5532
   99SAPS  H16R 9944   1.273   5.833   8.024 -0.2567  0.3097  1.1802
   99SAPS  H16S 9945   1.291   5.661   8.075  0.5155  1.2528  0.4566
   99SAPS  C217 9946   1.140   5.760   8.184  0.1747 -0.1866 -0.1680
   99SAPS  H17R 9947   1.090   5.664   8.212 -1.1817  0.0400 -1.6839
   99SAPS  H17S 9948   1.065   5.837   8.158 -0.0176 -0.8827 -1.7923
   99SAPS  C218 9949   1.227   5.805   8.301  0.3258  0.5564  0.4461
   99SAPS  H18R 9950   1.266   5.906   8.275  0.6688  0.2622 -0.2305
   99SAPS  H18S 9951   1.309   5.730   8.296 -0.0853  0.0584  1.0611
   99SAPS  C219 9952   1.169   5.789   8.442  0.4463 -0.5767 -0.7174
   99SAPS  H19R 9953   1.251   5.782   8.516  0.4790  3.3179 -0.1612
   99SAPS  H19S 9954   1.098   5.704   8.441 -1.3037  0.8119 -0.3473
   99SAPS  C220 9955   1.083   5.905   8.496  0.1859  0.2690  0.9000
   99SAPS  H20R 9956   1.012   5.923   8.412 -0.8000 -1.4394  1.3111
   99SAPS  H20S 9957   1.145   5.995   8.518 -1.2846  1.4563  0.3622
   99SAPS  H20T 9958   1.031   5.868   8.586 -1.6113 -0.4952 -0.3900
   99SAPS   C33 9959   1.330   6.197   6.901 -0.2718  0.1019  0.0271
   99SAPS   H3X 9960   1.230   6.241   6.879 -0.3136  0.2631  0.5284
   99SAPS   H3Y 9961   1.383   6.266   6.970  2.2189 -1.7025  0.0502
   99SAPS   C34 9962   1.311   6.064   6.966 -0.1077 -0.5457  0.3888
   99SAPS   H4X 9963   1.405   6.005   6.964  0.9191  1.0574 -0.0265
   99SAPS   H4Y 9964   1.232   6.013   6.906 -1.1622  0.2342  1.0761
   99SAPS   C35 9965   1.258   6.052   7.113 -0.1455  0.0095 -0.1934
   99SAPS   H5X 9966   1.255   5.942   7.121 -0.7963  0.0283 -0.1584
   99SAPS   H5Y 9967   1.155   6.095   7.112  0.2628  1.0056 -1.2737
   99SAPS   C36 9968   1.349   6.120   7.216  0.0964 -0.9970  0.0346
   99SAPS   H6X 9969   1.342   6.231   7.211 -1.6346 -1.1105 -0.5646
   99SAPS   H6Y 9970   1.452   6.096   7.181  0.6632  2.1058 -0.7398
   99SAPS   C37 9971   1.328   6.067   7.359 -0.1280 -0.7544 -0.0191
   99SAPS   H7X 9972   1.325   5.956   7.367  0.0466 -0.7678 -0.1357
   99SAPS   H7Y 9973   1.231   6.107   7.396  1.1893  1.5924  1.0691
   99SAPS   C38 9974   1.446   6.115   7.453 -0.4011  0.1692  0.4672
   99SAPS   H8X 9975   1.450   6.226   7.451 -2.1096  0.2607 -0.2392
   99SAPS   H8Y 9976   1.546   6.077   7.425 -0.1246  1.8141 -0.9056
   99SAPS   C39 9977   1.434   6.065   7.594 -0.1391 -0.6544 -0.9803
   99SAPS   H9X 9978   1.452   5.955   7.593 -0.3469 -0.6862 -1.2944
   99SAPS   H9Y 9979   1.327   6.062   7.621 -0.2224 -1.7748 -1.3636
   99SAPS  C310 9980   1.539   6.125   7.684 -0.4903 -0.8597  0.3964
   99SAPS  H10X 9981   1.509   6.230   7.703 -0.7044 -0.9827  0.7497
   99SAPS  H10Y 9982   1.633   6.140   7.627 -1.0850 -1.8029 -0.8864
   99SAPS  C311 9983   1.569   6.040   7.800 -0.1785 -0.4011 -0.2792
   99SAPS  H11X 9984   1.650   6.080   7.864 -0.7323 -0.4792  0.4739
   99SAPS  H11Y 9985   1.600   5.938   7.769  3.2169 -0.3834  2.5285
   99SAPS  C312 9986   1.447   6.028   7.889 -0.4066  0.1580 -0.4597
   99SAPS  H12X 9987   1.474   5.975   7.982 -1.3916  0.9627  0.3092
   99SAPS  H12Y 9988   1.366   5.970   7.841 -1.3719 -0.3191  1.6478
   99SAPS  C313 9989   1.395   6.163   7.937  0.7065  0.0743 -0.2373
   99SAPS  H13X 9990   1.330   6.212   7.861 -0.6886 -1.2390  0.0602
   99SAPS  H13Y 9991   1.484   6.227   7.957  1.3432 -0.0980 -2.3174
   99SAPS  C314 9992   1.312   6.147   8.059 -0.1124  0.4205 -0.3813
   99SAPS  H14X 9993   1.371   6.080   8.125 -0.5437  1.3198  0.9425
   99SAPS  H14Y 9994   1.221   6.093   8.027  1.3479 -0.8842 -2.6904
   99SAPS  C315 9995   1.287   6.287   8.125 -0.2770  0.5645  0.7250
   99SAPS  H15X 9996   1.230   6.342   8.047 -1.1480  0.0293  0.9714
   99SAPS  H15Y 9997   1.384   6.340   8.137 -0.0218  0.9644 -2.2635
   99SAPS  C316 9998   1.212   6.294   8.253 -0.0022  0.2959 -0.2196
   99SAPS  H16X 9999   1.273   6.239   8.327 -0.5838  0.2981  0.2671
   99SAPS  H16Y10000   1.112   6.246   8.247 -1.1236  1.8520  3.2902
   99SAPS  C31710001   1.191   6.439   8.302 -1.2572 -0.3349 -0.3045
   99SAPS  H17X10002   1.112   6.441   8.380  0.4047 -1.2035  1.4571
   99SAPS  H17Y10003   1.152   6.503   8.220  0.8510  0.4696 -0.7260
   99SAPS  C31810004   1.316   6.492   8.371  0.4522  0.8393  0.3979
   99SAPS  H18X10005   1.408   6.488   8.309  0.7056 -1.7234  0.8567
   99SAPS  H18Y10006   1.337   6.450   8.471  1.1122  2.9384  1.1975
   99SAPS  H18Z10007   1.298   6.600   8.392 -0.5116  0.2450  2.9554
  100SAPS     N10008   1.442   0.007   6.026  0.6638  0.9111  0.0766
  100SAPS   HN110009   1.526   0.062   6.052  0.0795  1.9633 -0.2012
  100SAPS   HN210010   1.453  -0.030   5.929  1.5563  0.7432  0.2314
  100SAPS   HN310011   1.367   0.078   6.016  0.7086  1.0243  0.5286
  100SAPS   C1210012   1.419  -0.112   6.108  0.0009 -0.3448  0.1299
  100SAPS  H12A10013   1.396  -0.063   6.202  0.1912  2.5948 -1.2620
  100SAPS   C1310014   1.291  -0.188   6.059  0.2827  0.1964  0.4911
  100SAPS  O13A10015   1.220  -0.144   5.964 -0.7755  0.7073  0.0688
  100SAPS  O13B10016   1.247  -0.275   6.137 -0.5366  0.1586  0.4268
  100SAPS   C1110017   1.542  -0.202   6.123 -0.0711  0.0079  0.3308
  100SAPS  H11A10018   1.581  -0.239   6.026 -0.1800  0.8364 -0.0324
  100SAPS  H11B10019   1.517  -0.292   6.184  0.4543 -0.4090 -0.0510
  100SAPS     P10020   1.784  -0.204   6.238 -0.1947  0.3047  0.3567
  100SAPS   O1310021   1.836  -0.290   6.127  0.0491 -0.1443  0.1657
  100SAPS   O1410022   1.873  -0.098   6.284 -0.3736 -0.4613 -0.4066
  100SAPS   O1210023   1.650  -0.138   6.188 -0.1166  0.0516  0.4875
  100SAPS   O1110024   1.751  -0.300   6.353  0.0770 -0.0746 -0.4510
  100SAPS    C110025   1.639  -0.288   6.434 -0.0221  0.4245 -0.0316
  100SAPS    HA10026   1.569  -0.205   6.409 -0.6319  0.2578  1.0792
  100SAPS    HB10027   1.575  -0.376   6.415 -0.4301  0.9491 -1.1916
  100SAPS    C210028   1.682  -0.272   6.578 -0.2585  0.0303 -0.0940
  100SAPS    HS10029   1.779  -0.218   6.582 -0.1092 -0.3299  2.7873
  100SAPS   O2110030   1.699  -0.407   6.629 -0.3004  0.3847  0.3350
  100SAPS   C2110031   1.821  -0.452   6.625  0.4267  0.4917  0.2395
  100SAPS   O2210032   1.919  -0.379   6.608  0.3354 -0.4305 -0.3022
  100SAPS   C2210033   1.837  -0.602   6.654 -0.5575 -0.9037  1.1961
  100SAPS   H2R10034   1.764  -0.654   6.588  0.7651 -0.5998 -0.5979
  100SAPS   H2S10035   1.937  -0.636   6.617 -0.0922  1.4553  0.1142
  100SAPS    C310036   1.578  -0.191   6.666  0.2483  0.1465  0.7943
  100SAPS    HX10037   1.480  -0.234   6.635  0.6337 -0.5208  0.5018
  100SAPS    HY10038   1.579  -0.082   6.645  0.1769  0.5922  2.8807
  100SAPS   O3110039   1.603  -0.210   6.806  0.0639 -0.6908  0.2312
  100SAPS   C3110040   1.705  -0.147   6.859  0.4689  1.3011 -0.2450
  100SAPS   O3210041   1.778  -0.069   6.800 -0.0786  0.6241 -0.3772
  100SAPS   C3210042   1.723  -0.182   7.009  0.0920 -0.0676 -0.3091
  100SAPS   H2X10043   1.708  -0.292   7.014 -2.6895  0.1766 -1.5424
  100SAPS   H2Y10044   1.642  -0.131   7.064  0.1999 -0.2471  0.0196
  100SAPS   C2310045   1.812  -0.640   6.800  0.4278  0.0886  0.0399
  100SAPS   H3R10046   1.820  -0.750   6.808 -1.0941 -0.2172 -1.9165
  100SAPS   H3S10047   1.708  -0.615   6.828  0.5270 -1.3976  1.9235
  100SAPS   C2410048   1.916  -0.577   6.894  0.4681  0.1510  0.3260
  100SAPS   H4R10049   1.877  -0.604   6.994  1.8022 -2.2990  0.2639
  100SAPS   H4S10050   1.916  -0.467   6.879  0.4497  0.5195  2.6273
  100SAPS   C2510051   2.060  -0.629   6.879  0.3814  0.3056 -0.0381
  100SAPS   H5R10052   2.072  -0.669   6.777 -0.9816 -2.3990  0.7729
  100SAPS   C2610053   2.157  -0.633   6.969 -0.1205  0.0612  0.4750
  100SAPS   H6R10054   2.256  -0.662   6.932 -0.1654  1.8860 -1.2130
  100SAPS   C2710055   2.161  -0.582   7.104  0.6039 -0.1377 -0.3285
  100SAPS   H7R10056   2.060  -0.575   7.151  1.1018 -0.6219  0.8634
  100SAPS   H7S10057   2.209  -0.481   7.106  1.3863 -0.4637 -1.6035
  100SAPS   C2810058   2.256  -0.658   7.190  0.1254  0.0974  0.1637
  100SAPS   H8R10059   2.211  -0.735   7.255 -1.7433  1.4221  0.4981
  100SAPS   C2910060   2.391  -0.646   7.199  0.3464 -0.3875  0.1838
  100SAPS   H9R10061   2.450  -0.719   7.255  0.9932 -0.2242 -0.2786
  100SAPS  C21010062   2.469  -0.543   7.120 -0.6962  0.0878  0.3346
  100SAPS  H10R10063   2.470  -0.446   7.174 -1.2231  0.6994 -0.7186
  100SAPS  H10S10064   2.415  -0.513   7.028  0.9223  0.8536 -0.4153
  100SAPS  C21110065   2.609  -0.599   7.090 -0.3393 -0.2119 -0.2473
  100SAPS  H11R10066   2.606  -0.694   7.035 -1.4563 -1.3424  1.6307
  100SAPS  C21210067   2.721  -0.577   7.167 -0.3341 -1.2382  0.3724
  100SAPS  H12R10068   2.807  -0.638   7.135  0.8853  0.8434 -0.5457
  100SAPS  C21310069   2.734  -0.487   7.290  0.2169  0.6186 -0.0433
  100SAPS  H13R10070   2.683  -0.540   7.374  1.6980 -0.9893 -0.0807
  100SAPS  H13S10071   2.669  -0.399   7.270 -1.1448 -0.7791 -2.2641
  100SAPS  C21410072   2.872  -0.436   7.324  0.3108  0.3347 -0.6490
  100SAPS  H14R10073   2.938  -0.428   7.236  1.4257  1.8559  0.2830
  100SAPS  C21510074   2.921  -0.409   7.449  0.2842 -0.5892  0.6340
  100SAPS  H15R10075   3.025  -0.374   7.453  0.3464 -0.8124  0.9809
  100SAPS  C21610076   2.848  -0.424   7.583 -0.0752 -0.2449 -0.0702
  100SAPS  H16R10077   2.738  -0.427   7.568  0.1064  2.5411 -3.1428
  100SAPS  H16S10078   2.866  -0.338   7.650  0.1318  1.1651 -1.8599
  100SAPS  C21710079   2.890  -0.554   7.651  0.1334 -0.1503 -0.4458
  100SAPS  H17R10080   2.815  -0.557   7.732 -0.5102  0.7741 -0.9853
  100SAPS  H17S10081   2.985  -0.536   7.706 -0.3040 -2.1685  1.0718
  100SAPS  C21810082   2.888  -0.679   7.568 -0.2657  0.0572 -0.1636
  100SAPS  H18R10083   2.978  -0.691   7.503 -0.6588  0.2918 -0.7649
  100SAPS  H18S10084   2.805  -0.674   7.494 -1.3175 -2.4518  0.7403
  100SAPS  C21910085   2.876  -0.811   7.651 -0.4814  0.2757  0.4372
  100SAPS  H19R10086   2.794  -0.794   7.723  1.8830  0.8657  3.1706
  100SAPS  H19S10087   2.967  -0.833   7.712  0.6685 -0.9624 -1.5913
  100SAPS  C22010088   2.857  -0.927   7.559 -0.0029  0.0174  0.5252
  100SAPS  H20R10089   2.859  -1.017   7.623 -1.6654 -0.8416 -0.5669
  100SAPS  H20S10090   2.941  -0.930   7.486  0.1179  5.7055 -0.0823
  100SAPS  H20T10091   2.759  -0.913   7.508  0.2770  0.9340  0.2114
  100SAPS   C3310092   1.850  -0.131   7.074  0.4515 -0.3392 -0.9523
  100SAPS   H3X10093   1.863  -0.021   7.075  2.9962 -0.6060 -0.1483
  100SAPS   H3Y10094   1.938  -0.162   7.014  0.5195 -0.3275 -0.8583
  100SAPS   C3410095   1.871  -0.183   7.220 -0.2863 -0.3328  0.6474
  100SAPS   H4X10096   1.799  -0.122   7.280 -0.2977  0.4640 -0.1429
  100SAPS   H4Y10097   1.972  -0.148   7.248  0.2884 -0.3718 -1.2562
  100SAPS   C3510098   1.855  -0.334   7.244 -0.7594 -0.4398  0.1904
  100SAPS   H5X10099   1.893  -0.388   7.155  1.5033  1.3558 -0.0196
  100SAPS   H5Y10100   1.745  -0.348   7.249 -1.5519  4.1195 -0.2352
  100SAPS   C3610101   1.926  -0.388   7.371 -0.5540  0.4484  0.5220
  100SAPS   H6X10102   2.035  -0.366   7.366 -0.4414 -0.1306  0.3514
  100SAPS   H6Y10103   1.912  -0.498   7.375 -1.2741  0.5278  0.2626
  100SAPS   C3710104   1.877  -0.353   7.511  0.0999 -0.3097  0.6489
  100SAPS   H7X10105   1.802  -0.434   7.526  2.6573 -3.2051 -1.0217
  100SAPS   H7Y10106   1.824  -0.255   7.507 -1.0253 -0.9354 -0.8802
  100SAPS   C3810107   1.997  -0.345   7.608  0.2143 -0.3793  1.0766
  100SAPS   H8X10108   2.068  -0.270   7.566  0.6285 -2.1062 -1.5357
  100SAPS   H8Y10109   2.050  -0.442   7.607  0.1911 -0.4333 -1.6821
  100SAPS   C3910110   1.951  -0.307   7.746 -0.4470 -0.1212  0.1059
  100SAPS   H9X10111   1.886  -0.217   7.740  0.7662  0.7698  0.0130
  100SAPS   H9Y10112   2.039  -0.283   7.809 -1.2582  1.2050  0.7961
  100SAPS  C31010113   1.881  -0.421   7.828 -0.6560 -0.0802 -0.3613
  100SAPS  H10X10114   1.951  -0.506   7.820  0.8584  1.2171 -1.5402
  100SAPS  H10Y10115   1.780  -0.443   7.789 -0.4650  0.1685 -1.0035
  100SAPS  C31110116   1.857  -0.388   7.978  0.4886 -0.9016  0.4562
  100SAPS  H11X10117   1.813  -0.286   7.981 -0.8167 -1.4288 -0.0501
  100SAPS  H11Y10118   1.951  -0.399   8.037 -0.8589 -2.4682  2.4574
  100SAPS  C31210119   1.767  -0.486   8.056  0.2698  0.6297  0.1728
  100SAPS  H12X10120   1.801  -0.589   8.032 -0.7614 -0.2854  2.4014
  100SAPS  H12Y10121   1.660  -0.471   8.031  0.1252 -0.3933  0.1074
  100SAPS  C31310122   1.776  -0.475   8.211  0.2468 -1.1613 -0.3078
  100SAPS  H13X10123   1.748  -0.370   8.234 -0.8144 -1.3913 -0.5136
  100SAPS  H13Y10124   1.882  -0.494   8.238  0.5197 -0.0326 -0.5586
  100SAPS  C31410125   1.673  -0.563   8.280 -0.1704  0.9694 -0.5504
  100SAPS  H14X10126   1.699  -0.670   8.266 -2.4858 -0.3225  3.3655
  100SAPS  H14Y10127   1.567  -0.559   8.247 -0.6875 -3.1310  0.1783
  100SAPS  C31510128   1.682  -0.532   8.431  0.2031  0.0503  0.4036
  100SAPS  H15X10129   1.639  -0.430   8.445  0.7302  0.6228 -1.7145
  100SAPS  H15Y10130   1.789  -0.539   8.461  0.3480 -2.1020 -0.4217
  100SAPS  C31610131   1.606  -0.637   8.513  0.1267 -0.1308 -0.2508
  100SAPS  H16X10132   1.645  -0.615   8.614 -1.4386  0.8053  0.1854
  100SAPS  H16Y10133   1.616  -0.740   8.473 -0.9734 -1.8603  3.5022
  100SAPS  C31710134   1.454  -0.631   8.529  0.1759  0.8126 -0.2072
  100SAPS  H17X10135   1.398  -0.654   8.436 -0.8792  4.0588 -0.5018
  100SAPS  H17Y10136   1.434  -0.527   8.563  0.3883  0.9043 -0.3621
  100SAPS  C31810137   1.392  -0.723   8.640  0.7767 -0.2915 -0.0884
  100SAPS  H18X10138   1.369  -0.824   8.600  0.7055 -0.4814  0.4299
  100SAPS  H18Y10139   1.300  -0.671   8.674  0.7830  0.6859 -1.4445
  100SAPS  H18Z10140   1.463  -0.743   8.723 -0.2657  1.5410  1.3109
  101OSM      N10141   2.247   1.965  11.131 -0.0343  0.4417  0.5553
  101OSM    C1510142   2.269   1.821  11.182  0.2047  0.5096 -0.1400
  101OSM   H15A10143   2.369   1.783  11.164 -0.1580 -1.7422  1.9801
  101OSM   H15B10144   2.206   1.752  11.127  2.6451 -0.8020 -1.4745
  101OSM   H15C10145   2.243   1.813  11.287  1.7889 -0.8698  0.1972
  101OSM    C1410146   2.107   2.006  11.152  0.3197 -0.0557  0.5556
  101OSM   H14A10147   2.048   1.927  11.107 -1.3508  2.2619 -1.6165
  101OSM   H14B10148   2.090   2.097  11.097 -2.5021 -0.6594  0.2489
  101OSM   H14C10149   2.078   2.019  11.256  1.5350 -1.7028  1.1549
  101OSM    C1310150   2.332   2.054  11.223  0.3146 -0.5851  0.2009
  101OSM   H13A10151   2.438   2.035  11.217  1.0347  3.0402 -1.3550
  101OSM   H13B10152   2.314   2.023  11.325 -0.0622  0.3946  0.4443
  101OSM   H13C10153   2.330   2.161  11.210  2.3017 -0.3408  1.3437
  101OSM    C1210154   2.295   1.984  10.985  0.2196  0.1033 -0.2049
  101OSM   H12A10155   2.382   1.923  10.964 -0.7715 -1.3614 -0.1680
  101OSM   H12B10156   2.319   2.087  10.964  0.8112  0.2889  1.2760
  101OSM    C1110157   2.184   1.940  10.885  1.0080 -0.0984 -0.0069
  101OSM   H11A10158   2.132   1.846  10.912 -1.7780  1.2506 -0.3551
  101OSM   H11B10159   2.225   1.908  10.787 -0.5610 -1.3750 -0.2716
  101OSM      P10160   2.134   2.168  10.773  0.0874  0.3421 -0.3430
  101OSM    O1310161   2.015   2.258  10.763 -0.0884 -0.4974  1.1251
  101OSM    O1410162   2.259   2.235  10.815 -0.1345  0.0768  0.4182
  101OSM    O1110163   2.157   2.101  10.632  0.2311  0.0075  0.0710
  101OSM    O1210164   2.094   2.052  10.876 -0.2101  0.0745  0.3729
  101OSM    C1S10165   2.042   2.049  10.563 -0.5581  0.1381 -0.1876
  101OSM    H1S10166   1.962   2.028  10.638  0.8463  2.5089  2.1407
  101OSM    H1T10167   2.070   1.955  10.511  0.6548  0.3903 -0.0091
  101OSM     NF10168   1.877   2.083  10.386  0.1075  0.2807 -0.3170
  101OSM    HNF10169   1.906   2.015  10.320  0.4292 -1.0669  1.1550
  101OSM    C2S10170   1.989   2.146  10.454  0.4530  0.2597 -0.3740
  101OSM    H2S10171   1.958   2.239  10.506 -0.1392  0.5069 -1.1515
  101OSM    C3S10172   2.103   2.185  10.355  0.6728 -0.2527 -0.2217
  101OSM    H3S10173   2.118   2.093  10.294 -0.6124 -0.9217  0.4233
  101OSM     O310174   2.230   2.211  10.409 -0.4936 -0.4055 -0.2897
  101OSM    HO310175   2.226   2.187  10.502 -0.3101  0.2677 -0.1032
  101OSM    C4S10176   2.065   2.311  10.277  0.8762  0.5827 -0.7130
  101OSM    H4S10177   2.035   2.403  10.329  0.3830  0.0990 -0.1270
  101OSM    C5S10178   2.027   2.303  10.154 -0.0050  0.2466  0.6555
  101OSM    H5S10179   2.023   2.201  10.114 -1.5171 -0.2630  1.9957
  101OSM    C6S10180   1.971   2.414  10.070 -0.1980  0.1315  0.0795
  101OSM    H6S10181   1.940   2.377   9.970 -0.4484 -0.1463  0.2588
  101OSM    H6T10182   2.057   2.480  10.046  0.2215 -0.7018 -0.7825
  101OSM    C7S10183   1.857   2.497  10.139 -0.6256  0.6614  0.8651
  101OSM    H7S10184   1.905   2.546  10.227 -0.2859  0.8780  0.5621
  101OSM    H7T10185   1.779   2.429  10.178  0.4141 -0.2178  1.4767
  101OSM    C8S10186   1.800   2.595  10.039 -0.0710  0.3566  0.7264
  101OSM    H8S10187   1.701   2.639  10.066 -1.0864  0.4118 -2.5749
  101OSM    H8T10188   1.776   2.545   9.942 -0.3638  0.9523  0.4825
  101OSM    C9S10189   1.888   2.730  10.025  1.0724  0.1903  0.0470
  101OSM    H9S10190   1.988   2.693   9.995  1.5219  2.0084 -0.8423
  101OSM    H9T10191   1.887   2.774  10.127 -0.3426  0.2859  0.0189
  101OSM   C10S10192   1.841   2.836   9.930  0.0594  0.2689 -0.2854
  101OSM   H10S10193   1.913   2.920   9.933  1.2093 -0.7232  0.9192
  101OSM   H10T10194   1.744   2.873   9.970 -0.2805 -1.6311  0.7519
  101OSM   C11S10195   1.823   2.793   9.780  0.0605 -0.2441 -0.0537
  101OSM   H11S10196   1.769   2.696   9.778 -1.6155  0.6213  0.7125
  101OSM   H11T10197   1.925   2.764   9.747 -0.6347 -3.5323  0.3211
  101OSM   C12S10198   1.754   2.902   9.709  0.0202  0.2044 -0.1102
  101OSM   H12S10199   1.807   2.998   9.728 -0.8717  0.1663  3.1827
  101OSM   H12T10200   1.649   2.920   9.742  0.2074  2.7667 -0.6870
  101OSM   C13S10201   1.743   2.881   9.552  0.0617  0.1398 -0.5428
  101OSM   H13S10202   1.848   2.856   9.525  0.4429 -0.1319  1.1116
  101OSM   H13T10203   1.707   2.977   9.510  0.0397  0.5218  0.3316
  101OSM   C14S10204   1.652   2.760   9.512 -0.5245  0.0244 -0.2551
  101OSM   H14S10205   1.549   2.767   9.553 -1.1361 -0.8139 -1.5784
  101OSM   H14T10206   1.695   2.669   9.560  1.8177 -0.7488 -3.4653
  101OSM   C15S10207   1.663   2.738   9.360 -0.3821 -0.2196 -0.7956
  101OSM   H15S10208   1.765   2.711   9.324  0.3230  1.9120 -0.5754
  101OSM   H15T10209   1.631   2.832   9.310 -0.9225 -0.2149 -0.4428
  101OSM   C16S10210   1.578   2.621   9.311 -0.6838 -0.6547 -0.3299
  101OSM   H16S10211   1.470   2.649   9.314 -0.3771  0.6055 -0.4594
  101OSM   H16T10212   1.596   2.528   9.369 -0.0689 -1.7708 -2.2377
  101OSM   C17S10213   1.605   2.577   9.166  0.2192 -0.6344  0.0610
  101OSM   H17S10214   1.575   2.472   9.144 -1.0284  0.0471 -1.7319
  101OSM   H17T10215   1.712   2.596   9.143 -0.4243  2.3431 -0.8974
  101OSM   C18S10216   1.511   2.649   9.063  0.5375 -0.0375 -0.6734
  101OSM   H18S10217   1.538   2.612   8.961 -0.5728 -2.5625 -0.1049
  101OSM   H18T10218   1.543   2.755   9.073  0.0841 -0.1388  3.8790
  101OSM   H18U10219   1.404   2.643   9.089  0.2688  0.5389 -1.5757
  101OSM    C1F10220   1.756   2.071  10.439  0.1551 -0.3777 -0.4145
  101OSM     OF10221   1.731   2.143  10.536  0.0377  0.1410 -0.0653
  101OSM    C2F10222   1.652   1.981  10.386  0.7513  0.1922  0.0128
  101OSM    H2F10223   1.700   1.883  10.367  0.8657 -0.0419  1.4054
  101OSM    H2G10224   1.617   2.025  10.291  2.2677 -0.9049 -1.1049
  101OSM    C3F10225   1.537   1.940  10.484  0.6807  0.0450  0.0450
  101OSM    H3F10226   1.475   2.027  10.514  0.5340  0.3076 -0.9984
  101OSM    H3G10227   1.580   1.883  10.570 -0.4540 -1.6727 -0.4704
  101OSM    C4F10228   1.440   1.834  10.413  0.1709 -0.5874  0.7463
  101OSM    H4F10229   1.366   1.804  10.491 -0.7875 -0.1250  0.0414
  101OSM    H4G10230   1.508   1.750  10.390  0.2570 -0.2156 -0.4115
  101OSM    C5F10231   1.365   1.883  10.289  0.0812  0.3007  0.0503
  101OSM    H5F10232   1.399   1.979  10.244 -0.9025 -0.1196 -1.7004
  101OSM    H5G10233   1.262   1.908  10.322  0.3729  1.2794  0.2333
  101OSM    C6F10234   1.348   1.780  10.174  0.5110 -0.2241 -0.0802
  101OSM    H6F10235   1.271   1.707  10.208 -0.2070  0.1403 -0.8701
  101OSM    H6G10236   1.437   1.729  10.133  0.3603 -2.7577  2.4246
  101OSM    C7F10237   1.272   1.842  10.052 -0.2896  0.3220 -0.9267
  101OSM    H7F10238   1.196   1.916  10.085 -2.6578 -2.2123 -0.4061
  101OSM    H7G10239   1.216   1.756  10.011 -0.6637  0.3542 -0.4849
  101OSM    C8F10240   1.363   1.890   9.935 -0.0587 -0.0534  0.2621
  101OSM    H8F10241   1.400   1.796   9.889 -1.3626 -0.7452  0.5643
  101OSM    H8G10242   1.447   1.942   9.986 -2.0770  1.3896  2.3098
  101OSM    C9F10243   1.302   1.978   9.826  0.0830 -0.4209 -0.1421
  101OSM    H9F10244   1.304   2.086   9.846  1.1763  0.0270 -2.3285
  101OSM   C10F10245   1.260   1.945   9.701 -0.0155  0.0061  0.2705
  101OSM   H10F10246   1.238   2.026   9.630  0.7166  0.4556  0.5440
  101OSM   C11F10247   1.248   1.815   9.635 -0.6999 -0.3676  0.2189
  101OSM   H11F10248   1.139   1.802   9.616 -1.0144 -0.2091  1.7633
  101OSM   H11G10249   1.278   1.736   9.708  0.6989  1.1917  1.4187
  101OSM   C12F10250   1.334   1.803   9.508 -0.1574 -0.2304 -0.7147
  101OSM   H12F10251   1.325   1.700   9.468 -1.6266 -0.2239 -0.4711
  101OSM   H12G10252   1.442   1.813   9.530 -0.4660  0.6566  0.5026
  101OSM   C13F10253   1.297   1.898   9.387  0.2415 -0.4954  0.1862
  101OSM   H13F10254   1.341   1.996   9.416  0.7896 -0.8360  0.5284
  101OSM   H13G10255   1.187   1.890   9.374  0.2566 -2.2424  0.7776
  101OSM   C14F10256   1.353   1.862   9.243  0.3083 -0.6778 -0.5845
  101OSM   H14F10257   1.309   1.765   9.215  1.0237 -0.7343 -1.5412
  101OSM   H14G10258   1.464   1.866   9.241  0.2724  0.1394 -1.9167
  101OSM   C15F10259   1.270   1.943   9.150 -1.0376 -0.3213  0.6850
  101OSM   H15F10260   1.299   2.050   9.157  1.6787 -1.0397  1.4651
  101OSM   H15G10261   1.162   1.941   9.175 -0.7264 -0.3003  2.0862
  101OSM   C16F10262   1.273   1.902   9.001 -0.6121  0.5106 -0.2654
  101OSM   H16F10263   1.212   1.977   8.946  1.5524  0.6154 -2.7035
  101OSM   H16G10264   1.238   1.796   9.006  1.2561 -0.1633 -0.5778
  101OSM   C17F10265   1.417   1.903   8.950 -0.5040 -0.2809  0.5518
  101OSM   H17F10266   1.482   1.843   9.017 -0.7280  0.0994  1.1189
  101OSM   H17G10267   1.447   2.010   8.951 -1.6927  0.1122 -1.1534
  101OSM   C18F10268   1.435   1.839   8.808  0.3052 -0.2152 -0.5354
  101OSM   H18F10269   1.377   1.892   8.729 -2.3078 -2.8245 -0.5424
  101OSM   H18G10270   1.410   1.730   8.807  1.2519 -0.4796  1.4042
  101OSM   H18H10271   1.544   1.851   8.794  0.8700  0.6034  3.5412
  102OSM      N10272   2.244   0.264  10.941 -0.1612  0.4338 -0.3473
  102OSM    C1510273   2.305   0.219  11.074  0.4523 -1.0700 -0.1875
  102OSM   H15A10274   2.269   0.282  11.155  0.6237  0.7356 -1.4442
  102OSM   H15B10275   2.412   0.230  11.065  0.3510 -0.2056 -0.4963
  102OSM   H15C10276   2.275   0.116  11.087 -0.4932 -1.1980 -2.8328
  102OSM    C1410277   2.252   0.421  10.941  0.2206  0.4759  0.1501
  102OSM   H14A10278   2.254   0.463  11.040  1.3315  1.0712 -0.1133
  102OSM   H14B10279   2.181   0.470  10.875  1.6309 -0.6256 -2.3422
  102OSM   H14C10280   2.347   0.448  10.898  1.4222 -1.3505  1.5257
  102OSM    C1310281   2.325   0.207  10.829  0.2435  0.3658  0.0893
  102OSM   H13A10282   2.333   0.099  10.820 -0.1968  0.3951 -0.8057
  102OSM   H13B10283   2.421   0.253  10.813  0.5723 -1.2958 -3.6379
  102OSM   H13C10284   2.274   0.230  10.737 -0.4854 -1.8634 -0.1359
  102OSM    C1210285   2.104   0.211  10.948 -0.4578 -0.2943 -0.0320
  102OSM   H12A10286   2.072   0.212  11.051  1.3630 -2.1327  0.6206
  102OSM   H12B10287   2.099   0.111  10.908 -0.8227 -0.5462  0.6259
  102OSM    C1110288   1.997   0.288  10.871 -0.0390  0.0379  0.5246
  102OSM   H11A10289   2.036   0.313  10.770  1.4975  0.0876  1.1146
  102OSM   H11B10290   1.991   0.382  10.930 -0.1776  0.2769  0.1388
  102OSM      P10291   1.853   0.095  10.767  0.1259  0.0704 -0.1030
  102OSM    O1310292   1.956  -0.004  10.794 -0.9507 -0.1507  0.0718
  102OSM    O1410293   1.716   0.046  10.778  0.2117 -0.1217 -0.3082
  102OSM    O1110294   1.870   0.143  10.619  0.1887  0.0134 -0.1852
  102OSM    O1210295   1.875   0.216  10.862 -0.2155 -0.2864  0.3250
  102OSM    C1S10296   1.807   0.270  10.579 -0.0200  0.3009 -0.1394
  102OSM    H1S10297   1.875   0.347  10.621  1.0616 -1.8378  2.3775
  102OSM    H1T10298   1.707   0.277  10.625 -0.0167 -1.9191  0.3451
  102OSM     NF10299   1.725   0.397  10.387  0.4077 -0.3618  0.0028
  102OSM    HNF10300   1.626   0.403  10.378  0.5516  0.8744 -0.8591
  102OSM    C2S10301   1.783   0.271  10.427  0.0021  0.7251  0.2161
  102OSM    H2S10302   1.878   0.256  10.371 -0.3871  0.6519 -0.4465
  102OSM    C3S10303   1.687   0.156  10.394  0.9550 -0.7617 -0.2644
  102OSM    H3S10304   1.585   0.169  10.437 -0.7158 -3.4073 -3.0016
  102OSM     O310305   1.726   0.026  10.440  0.7564 -0.4742  0.0750
  102OSM    HO310306   1.789   0.052  10.508  2.9298 -1.7977 -1.3171
  102OSM    C4S10307   1.654   0.147  10.243  0.0835  0.3144 -0.4482
  102OSM    H4S10308   1.552   0.182  10.224  0.0680  0.3145 -0.3660
  102OSM    C5S10309   1.730   0.103  10.140 -0.7663  0.3119 -0.2640
  102OSM    H5S10310   1.834   0.073  10.158 -1.0630 -0.0146  0.9636
  102OSM    C6S10311   1.686   0.092   9.997 -0.2021 -0.7392 -0.2159
  102OSM    H6S10312   1.768   0.064   9.927 -0.6139  0.9098 -1.4267
  102OSM    H6T10313   1.645   0.184   9.950 -3.9885 -0.6745  2.7404
  102OSM    C7S10314   1.568  -0.008   9.981 -0.1386 -0.9206  0.7121
  102OSM    H7S10315   1.486   0.038  10.039  1.1714  0.1579  1.7938
  102OSM    H7T10316   1.586  -0.114  10.012  0.0255 -0.1524  3.4725
  102OSM    C8S10317   1.517  -0.029   9.835  0.2175 -0.9928  0.5506
  102OSM    H8S10318   1.482   0.064   9.785  2.0613 -0.6285 -0.1635
  102OSM    H8T10319   1.440  -0.110   9.833 -1.4724  0.4754  2.4732
  102OSM    C9S10320   1.638  -0.067   9.749 -0.0525  0.5434  0.2672
  102OSM    H9S10321   1.701  -0.138   9.808 -0.0522  0.2409 -0.0918
  102OSM    H9T10322   1.694   0.027   9.732 -1.6266  1.3861 -0.4356
  102OSM   C10S10323   1.585  -0.142   9.623 -0.3066  0.3376 -0.0709
  102OSM   H10S10324   1.506  -0.218   9.640  0.8809 -1.2014 -1.1472
  102OSM   H10T10325   1.671  -0.207   9.595 -0.8668 -0.5109  0.1418
  102OSM   C11S10326   1.556  -0.039   9.514  0.1977  0.3601  0.0538
  102OSM   H11S10327   1.647   0.022   9.494  0.6873 -0.6045 -0.7340
  102OSM   H11T10328   1.490   0.038   9.560  0.7287  0.4376  0.6997
  102OSM   C12S10329   1.492  -0.087   9.382  0.4325  0.6964  0.1047
  102OSM   H12S10330   1.429  -0.170   9.420 -0.2720  0.4187 -1.5606
  102OSM   H12T10331   1.564  -0.138   9.315  1.2848  0.2880  1.3160
  102OSM   C13S10332   1.405   0.019   9.317 -0.1603 -0.6818  0.0882
  102OSM   H13S10333   1.472   0.105   9.294 -1.1220 -0.1567 -0.8257
  102OSM   H13T10334   1.327   0.062   9.384  0.4747  0.4257  0.1582
  102OSM   C14S10335   1.316  -0.031   9.202  0.5262 -0.6184 -0.0951
  102OSM   H14S10336   1.353  -0.133   9.177  0.0894 -1.1620  1.3943
  102OSM   H14T10337   1.331   0.045   9.122 -0.0576  1.8536  2.0176
  102OSM   C15S10338   1.161  -0.029   9.216  0.1444  0.0301  0.0650
  102OSM   H15S10339   1.130   0.066   9.265 -0.3356  0.8747 -1.7612
  102OSM   H15T10340   1.122  -0.111   9.279 -1.9313  2.4072  2.0919
  102OSM   C16S10341   1.089  -0.052   9.081 -0.6863  0.0097  0.1350
  102OSM   H16S10342   1.115  -0.153   9.043 -2.2440 -1.6010  2.9493
  102OSM   H16T10343   1.109   0.033   9.012 -0.7379  1.6722  2.0651
  102OSM   C17S10344   0.939  -0.050   9.093  0.1671 -0.6213 -0.4700
  102OSM   H17S10345   0.908  -0.012   8.993  2.2410  0.1288 -0.8872
  102OSM   H17T10346   0.910   0.034   9.159 -0.8643 -0.2470 -1.3563
  102OSM   C18S10347   0.860  -0.173   9.130 -0.3532 -0.3360  0.3094
  102OSM   H18S10348   0.894  -0.260   9.070  0.2259 -0.3422  0.6407
  102OSM   H18T10349   0.758  -0.147   9.094 -0.2817  0.7081  0.8317
  102OSM   H18U10350   0.865  -0.194   9.239  0.5905 -1.2161  0.1086
  102OSM    C1F10351   1.794   0.515  10.398 -0.4549  0.4387 -0.0255
  102OSM     OF10352   1.919   0.509  10.416  0.3024  0.0943 -0.3521
  102OSM    C2F10353   1.724   0.646  10.381 -0.0689 -0.0818 -0.0234
  102OSM    H2F10354   1.761   0.717  10.457 -2.0485  1.0485 -0.0619
  102OSM    H2G10355   1.616   0.629  10.401  0.1490 -0.5261  0.8401
  102OSM    C3F10356   1.772   0.720  10.254  0.0533 -0.4847  0.3119
  102OSM    H3F10357   1.881   0.739  10.254 -0.1713  0.9063 -0.9894
  102OSM    H3G10358   1.715   0.815  10.244  1.3192  0.3059  0.4323
  102OSM    C4F10359   1.738   0.650  10.120 -0.0332 -0.0633 -0.8014
  102OSM    H4F10360   1.821   0.582  10.089 -0.7883 -0.0201 -3.1724
  102OSM    H4G10361   1.740   0.727  10.040 -0.0396 -1.0804 -1.8067
  102OSM    C5F10362   1.607   0.571  10.112 -0.2948 -0.0687  0.2260
  102OSM    H5F10363   1.526   0.643  10.139  0.3526  0.6202  0.3743
  102OSM    H5G10364   1.605   0.485  10.181 -3.9344  0.1657  0.6103
  102OSM    C6F10365   1.585   0.529   9.961 -0.3898 -0.0123 -0.4322
  102OSM    H6F10366   1.674   0.468   9.935  1.0973  2.6047 -2.0384
  102OSM    H6G10367   1.577   0.621   9.899 -0.2895  0.6862  0.5665
  102OSM    C7F10368   1.458   0.449   9.951 -0.3277  0.5571 -0.0207
  102OSM    H7F10369   1.377   0.523   9.970 -1.9496 -1.2233  0.3233
  102OSM    H7G10370   1.465   0.367  10.026  0.8794  0.8565  0.2096
  102OSM    C8F10371   1.439   0.401   9.801 -0.4041  0.0845 -0.1531
  102OSM    H8F10372   1.367   0.317   9.800 -2.4447  1.7091  1.3704
  102OSM    H8G10373   1.533   0.353   9.765 -0.4486  0.4637 -0.7942
  102OSM    C9F10374   1.406   0.509   9.702  0.1773 -0.0511 -0.0117
  102OSM    H9F10375   1.307   0.554   9.715 -0.0954 -0.5072 -0.4308
  102OSM   C10F10376   1.490   0.551   9.605 -0.3207 -0.5339 -0.9453
  102OSM   H10F10377   1.448   0.619   9.530  1.0886 -0.4638 -1.6993
  102OSM   C11F10378   1.636   0.510   9.586 -0.2279  0.7053  0.0585
  102OSM   H11F10379   1.669   0.463   9.681 -1.3612  0.9301  0.5779
  102OSM   H11G10380   1.707   0.594   9.570  0.5391 -0.3929 -2.8261
  102OSM   C12F10381   1.654   0.407   9.467 -0.3189 -0.0524  0.2708
  102OSM   H12F10382   1.592   0.318   9.490  0.9414 -0.9612  0.2991
  102OSM   H12G10383   1.759   0.380   9.441  0.0804  0.4370  1.2943
  102OSM   C13F10384   1.605   0.465   9.334  0.0139 -0.0596 -0.3093
  102OSM   H13F10385   1.670   0.423   9.253 -0.3243 -2.2463  0.4817
  102OSM   H13G10386   1.610   0.575   9.341 -0.7983  0.0424 -1.1962
  102OSM   C14F10387   1.463   0.433   9.292 -0.0843 -0.1438  0.2750
  102OSM   H14F10388   1.391   0.501   9.342 -1.7724  2.2675 -4.8111
  102OSM   H14G10389   1.441   0.329   9.323 -0.5787 -0.1650 -0.1363
  102OSM   C15F10390   1.443   0.438   9.143  0.5114  0.5023  0.2564
  102OSM   H15F10391   1.526   0.389   9.087 -0.0236  1.5073 -1.5193
  102OSM   H15G10392   1.472   0.538   9.104 -0.1608  0.6858  0.2100
  102OSM   C16F10393   1.305   0.399   9.099 -0.2316 -0.3223 -0.2771
  102OSM   H16F10394   1.238   0.485   9.119  1.7949  0.7825  2.4635
  102OSM   H16G10395   1.259   0.314   9.153 -2.4224 -0.2220 -1.8486
  102OSM   C17F10396   1.307   0.361   8.950  0.4824 -0.2308  0.4742
  102OSM   H17F10397   1.215   0.312   8.912 -0.4672  0.7775  1.4014
  102OSM   H17G10398   1.391   0.288   8.947  1.9560  1.4210 -0.9601
  102OSM   C18F10399   1.331   0.486   8.860  0.2857 -0.3279 -0.2936
  102OSM   H18F10400   1.384   0.457   8.767  0.2812 -1.4573  0.0369
  102OSM   H18G10401   1.395   0.555   8.919  2.4221 -0.3976 -2.4045
  102OSM   H18H10402   1.235   0.537   8.840 -0.1058 -1.0232 -0.2510
  103OSM      N10403   3.690   3.857  11.120 -0.0366 -0.1008  0.0038
  103OSM    C1510404   3.683   3.859  10.969  0.0976  0.0443  0.5910
  103OSM   H15A10405   3.756   3.927  10.928 -0.0543  0.6108  1.2442
  103OSM   H15B10406   3.587   3.884  10.927  0.1270 -0.5220  0.1762
  103OSM   H15C10407   3.695   3.758  10.931 -0.9432  0.8021 -1.9209
  103OSM    C1410408   3.822   3.791  11.163  0.4596  0.1254  0.4306
  103OSM   H14A10409   3.897   3.816  11.089 -0.1291 -1.4180 -0.7199
  103OSM   H14B10410   3.804   3.685  11.163  1.2021 -0.0104  0.1419
  103OSM   H14C10411   3.857   3.815  11.263  1.3037  0.3351  0.0948
  103OSM    C1310412   3.687   3.997  11.166  0.7700  0.0569  0.1638
  103OSM   H13A10413   3.599   4.047  11.130  0.6138  0.0683  0.5526
  103OSM   H13B10414   3.781   4.043  11.140  1.7033 -1.4121  0.7885
  103OSM   H13C10415   3.681   3.992  11.274 -2.0021 -0.9973  0.0451
  103OSM    C1210416   3.580   3.773  11.182 -0.3643  0.3894 -0.4704
  103OSM   H12A10417   3.489   3.832  11.175  1.3798  3.1690 -1.4067
  103OSM   H12B10418   3.601   3.763  11.287 -0.8075  1.1550 -0.3042
  103OSM    C1110419   3.543   3.627  11.129 -0.3363 -0.0025  0.2072
  103OSM   H11A10420   3.491   3.643  11.031  2.2271 -0.4954 -1.3281
  103OSM   H11B10421   3.475   3.585  11.206  1.5865  0.3821  2.2115
  103OSM      P10422   3.704   3.456  10.997 -0.5304 -0.3179 -0.4547
  103OSM    O1310423   3.850   3.437  11.019 -0.3843  0.0829  0.2601
  103OSM    O1410424   3.611   3.345  10.991 -0.3922 -0.0943 -0.2753
  103OSM    O1110425   3.674   3.554  10.878  0.5840 -0.0214 -0.4509
  103OSM    O1210426   3.653   3.535  11.123  0.2606  0.1712 -0.1379
  103OSM    C1S10427   3.738   3.532  10.752  0.2545 -0.0255  0.1007
  103OSM    H1S10428   3.835   3.480  10.770 -0.1343 -0.6071  0.5298
  103OSM    H1T10429   3.770   3.632  10.715  1.7787  0.0682  1.5646
  103OSM     NF10430   3.720   3.416  10.541 -0.4419  0.8301 -0.3163
  103OSM    HNF10431   3.760   3.487  10.485 -0.5847  0.8930 -0.3382
  103OSM    C2S10432   3.642   3.473  10.649  0.0501 -0.0074  0.0890
  103OSM    H2S10433   3.588   3.392  10.702 -0.6889 -0.1835 -0.9214
  103OSM    C3S10434   3.550   3.583  10.599  0.4229 -0.0590  0.2098
  103OSM    H3S10435   3.612   3.652  10.537  0.0583 -0.0887 -0.1952
  103OSM     O310436   3.493   3.670  10.695  0.5001  0.1655 -0.2888
  103OSM    HO310437   3.524   3.627  10.776  1.7617  0.5640 -0.5489
  103OSM    C4S10438   3.442   3.523  10.516 -0.0827  0.1983  0.5028
  103OSM    H4S10439   3.404   3.424  10.546  0.3027  0.0566  0.5202
  103OSM    C5S10440   3.402   3.577  10.397 -0.9160  0.4798 -0.3736
  103OSM    H5S10441   3.441   3.674  10.362  0.5555  0.2247  0.4954
  103OSM    C6S10442   3.301   3.503  10.318 -0.0473 -0.7603  0.6422
  103OSM    H6S10443   3.202   3.552  10.324  1.6438  2.9297  0.8892
  103OSM    H6T10444   3.291   3.396  10.346  0.7258 -0.7816  0.8503
  103OSM    C7S10445   3.345   3.519  10.168 -0.4747 -0.2628 -0.3284
  103OSM    H7S10446   3.447   3.479  10.154  0.5661  2.5765 -1.7474
  103OSM    H7T10447   3.359   3.627  10.144 -0.9206 -0.4534 -1.5313
  103OSM    C8S10448   3.241   3.469  10.068  0.3257  0.4426 -0.3696
  103OSM    H8S10449   3.145   3.518  10.094 -0.2160 -1.4661  1.4593
  103OSM    H8T10450   3.225   3.362  10.092  1.1365  0.4527  0.2423
  103OSM    C9S10451   3.280   3.485   9.914  0.5526 -0.1846 -0.0281
  103OSM    H9S10452   3.370   3.421   9.897  1.3600  0.8490  0.2127
  103OSM    H9T10453   3.304   3.592   9.897  0.8028  0.0153  1.4558
  103OSM   C10S10454   3.155   3.451   9.841  0.2537 -0.2393 -0.1284
  103OSM   H10S10455   3.066   3.511   9.870  0.8005 -0.0353  1.1776
  103OSM   H10T10456   3.123   3.350   9.874  0.4996  0.1053  1.2024
  103OSM   C11S10457   3.182   3.466   9.694  0.3944 -0.0453 -0.4358
  103OSM   H11S10458   3.282   3.430   9.662  0.7979  0.0043  0.7212
  103OSM   H11T10459   3.181   3.570   9.655 -1.0214 -0.2329 -0.9479
  103OSM   C12S10460   3.084   3.377   9.618 -0.6108 -0.3816  0.1608
  103OSM   H12S10461   2.979   3.389   9.654 -0.6003 -0.2804  0.1591
  103OSM   H12T10462   3.117   3.274   9.644  0.0492 -0.3781 -0.6295
  103OSM   C13S10463   3.095   3.401   9.469  0.5901  0.4109 -0.3042
  103OSM   H13S10464   3.202   3.400   9.437  2.0658  0.1255  3.9437
  103OSM   H13T10465   3.050   3.502   9.458 -1.2875 -0.3297  0.1525
  103OSM   C14S10466   3.001   3.308   9.383  0.1228  0.5341 -0.2956
  103OSM   H14S10467   2.895   3.304   9.418 -0.3661 -0.7348 -1.8220
  103OSM   H14T10468   3.048   3.209   9.395 -0.4130  0.0712 -1.7603
  103OSM   C15S10469   3.006   3.343   9.231  0.2057  0.2934  0.2322
  103OSM   H15S10470   2.963   3.261   9.170  1.8825  1.8146 -3.2766
  103OSM   H15T10471   3.115   3.350   9.214  0.2094 -1.7274 -0.9775
  103OSM   C16S10472   2.923   3.467   9.197 -0.1629  0.1619 -0.0499
  103OSM   H16S10473   2.978   3.543   9.256  0.8561 -0.2476 -0.4462
  103OSM   H16T10474   2.826   3.445   9.247 -0.5006 -1.3968 -1.2891
  103OSM   C17S10475   2.919   3.477   9.045  0.0818  0.6124  0.4845
  103OSM   H17S10476   2.881   3.379   9.010  0.5422  0.1404  1.2694
  103OSM   H17T10477   3.027   3.490   9.024  0.0014  1.6343  0.6457
  103OSM   C18S10478   2.851   3.594   8.979 -0.7849 -0.4290  0.4390
  103OSM   H18S10479   2.908   3.688   8.993  0.4890 -0.8053 -1.7265
  103OSM   H18T10480   2.746   3.610   9.012 -0.6411  0.9775  0.2700
  103OSM   H18U10481   2.840   3.574   8.870  0.7715  1.9862 -0.2419
  103OSM    C1F10482   3.762   3.287  10.541  0.0058  0.0645 -0.2527
  103OSM     OF10483   3.709   3.204  10.615 -0.5615 -0.0245  0.0056
  103OSM    C2F10484   3.874   3.257  10.448  0.6830  0.5843  0.0411
  103OSM    H2F10485   3.968   3.258  10.508 -0.8009 -2.5331  2.7011
  103OSM    H2G10486   3.873   3.329  10.363 -2.2640 -0.1776 -0.6737
  103OSM    C3F10487   3.873   3.105  10.394  0.5275 -0.4180  0.2301
  103OSM    H3F10488   3.768   3.078  10.370  0.8630 -1.8470  0.2708
  103OSM    H3G10489   3.896   3.046  10.485 -0.8021 -0.9342  0.2568
  103OSM    C4F10490   3.964   3.070  10.284  0.1122  0.1485  0.2665
  103OSM    H4F10491   3.994   2.964  10.272 -0.0641  0.2305 -1.0830
  103OSM    H4G10492   4.062   3.118  10.306  0.8136 -1.4819  0.7909
  103OSM    C5F10493   3.920   3.118  10.141  0.7806 -0.2537  0.1156
  103OSM    H5F10494   3.902   3.226  10.159  0.8120 -0.5876  2.4014
  103OSM    H5G10495   3.831   3.063  10.105  0.5791  0.0220  0.1911
  103OSM    C6F10496   4.038   3.103  10.041  0.0277  0.1523 -0.2856
  103OSM    H6F10497   4.080   3.000  10.046  0.0201  0.1010 -1.1492
  103OSM    H6G10498   4.118   3.173  10.074  1.0824  0.1913 -2.7185
  103OSM    C7F10499   3.998   3.123   9.892 -0.3372  0.1558  0.3660
  103OSM    H7F10500   3.899   3.074   9.874  1.4549 -2.9132 -2.1521
  103OSM    H7G10501   4.068   3.067   9.828  0.5108 -1.0029  2.2123
  103OSM    C8F10502   3.991   3.268   9.846  0.5218 -0.5916  0.1854
  103OSM    H8F10503   3.922   3.329   9.908 -1.7275  0.1427 -2.8151
  103OSM    H8G10504   3.949   3.280   9.744 -1.6919 -1.2169  0.9862
  103OSM    C9F10505   4.132   3.339   9.842  0.6243  1.0577  0.3869
  103OSM    H9F10506   4.187   3.342   9.937  1.1458 -1.2897  0.2276
  103OSM   C10F10507   4.193   3.394   9.742 -0.0565 -0.4152 -1.0454
  103OSM   H10F10508   4.286   3.441   9.778 -0.8797  1.0893 -0.7779
  103OSM   C11F10509   4.158   3.411   9.593  0.4583 -0.3894 -0.0610
  103OSM   H11F10510   4.070   3.344   9.579  0.7699 -1.3092  2.0946
  103OSM   H11G10511   4.241   3.367   9.534  0.5831 -1.7050  1.0604
  103OSM   C12F10512   4.127   3.554   9.549  0.2233 -0.2672  0.5621
  103OSM   H12F10513   4.209   3.626   9.567 -1.0483  1.3293  0.1327
  103OSM   H12G10514   4.042   3.587   9.612  0.4939  2.7205 -0.4908
  103OSM   C13F10515   4.094   3.554   9.402 -0.2259  0.0212  0.1056
  103OSM   H13F10516   4.118   3.656   9.363 -0.7337 -0.1584 -0.6997
  103OSM   H13G10517   4.162   3.480   9.355 -0.2297 -1.1240  1.8196
  103OSM   C14F10518   3.946   3.507   9.371 -0.3333 -0.5338  0.2223
  103OSM   H14F10519   3.885   3.573   9.436  2.0432  1.1213  0.9150
  103OSM   H14G10520   3.929   3.402   9.404 -0.0357  0.4231  3.8410
  103OSM   C15F10521   3.918   3.525   9.221 -0.3865 -0.2157 -0.4390
  103OSM   H15F10522   3.961   3.448   9.153  1.5072  1.4567 -1.2276
  103OSM   H15G10523   3.965   3.620   9.187 -0.1199  0.5112  1.8338
  103OSM   C16F10524   3.773   3.542   9.189  0.0169  0.2068  0.2675
  103OSM   H16F10525   3.732   3.643   9.209  1.7374  0.5293  2.5026
  103OSM   H16G10526   3.724   3.479   9.266  0.2122  1.2136  1.2495
  103OSM   C17F10527   3.729   3.482   9.052 -0.2309 -0.4679 -0.0249
  103OSM   H17F10528   3.619   3.491   9.043 -0.7204 -3.1228  1.8656
  103OSM   H17G10529   3.746   3.372   9.046 -1.1155 -0.6076 -0.0943
  103OSM   C18F10530   3.794   3.542   8.933 -0.3747 -0.3133 -0.3486
  103OSM   H18F10531   3.755   3.646   8.925 -0.7811 -0.3498  0.9346
  103OSM   H18G10532   3.769   3.484   8.841  0.5082  0.5291 -1.1481
  103OSM   H18H10533   3.905   3.533   8.934 -0.4426 -1.3272  0.4903
  104OSM      N10534   0.581   4.284  10.914 -0.7138  0.1492 -0.0446
  104OSM    C1510535   0.640   4.160  10.985  0.2054 -0.6334 -0.2515
  104OSM   H15A10536   0.679   4.198  11.079 -2.0544  3.8769 -0.8606
  104OSM   H15B10537   0.714   4.109  10.926 -0.8912 -1.4725 -0.9517
  104OSM   H15C10538   0.562   4.091  11.012 -1.5636  1.1569 -0.5380
  104OSM    C1410539   0.456   4.324  10.986 -0.0648 -0.2321 -0.1711
  104OSM   H14A10540   0.386   4.387  10.932  0.8811  1.1818  0.2162
  104OSM   H14B10541   0.482   4.376  11.077 -2.2802  1.1124 -0.2265
  104OSM   H14C10542   0.395   4.239  11.013 -2.3588  1.6091  0.8504
  104OSM    C1310543   0.675   4.402  10.925 -0.2016  0.0908 -0.3333
  104OSM   H13A10544   0.775   4.374  10.897 -0.5307 -2.1782  0.5573
  104OSM   H13B10545   0.686   4.427  11.029  1.2217 -1.4559 -0.0839
  104OSM   H13C10546   0.628   4.485  10.874 -0.7631 -0.5025 -0.7987
  104OSM    C1210547   0.545   4.250  10.774 -0.5337  0.0700  0.4319
  104OSM   H12A10548   0.479   4.322  10.728 -0.9578 -1.3756 -1.3521
  104OSM   H12B10549   0.492   4.156  10.772  0.7766 -0.6991 -1.1623
  104OSM    C1110550   0.658   4.232  10.667  0.0753 -0.0403 -0.5877
  104OSM   H11A10551   0.715   4.328  10.669 -1.0535  0.6543  0.6446
  104OSM   H11B10552   0.618   4.217  10.565  0.6293 -1.0964 -0.6582
  104OSM      P10553   0.692   3.979  10.669  0.0670 -0.2397  0.2669
  104OSM    O1310554   0.798   3.881  10.678 -0.7611  0.3275  0.2644
  104OSM    O1410555   0.565   3.952  10.733 -0.0449 -0.8274 -0.2342
  104OSM    O1110556   0.659   3.995  10.515 -0.3929 -0.2802  0.0132
  104OSM    O1210557   0.745   4.126  10.698 -0.5636 -0.3765  0.3467
  104OSM    C1S10558   0.751   4.037  10.414 -0.7405 -0.0721 -0.6595
  104OSM    H1S10559   0.846   4.078  10.457 -0.6730 -0.6917 -0.1960
  104OSM    H1T10560   0.710   4.128  10.366  0.4811  0.7831 -0.1508
  104OSM     NF10561   0.862   3.974  10.205 -0.5422  0.4059  0.7242
  104OSM    HNF10562   0.821   3.969  10.114  0.3117  1.2516  0.2702
  104OSM    C2S10563   0.796   3.922  10.324 -0.2923  0.5075  0.5020
  104OSM    H2S10564   0.866   3.866  10.391  0.0158  2.5250  1.9619
  104OSM    C3S10565   0.682   3.822  10.300  0.2205  0.4614  0.1203
  104OSM    H3S10566   0.597   3.879  10.255  1.6125  2.4499 -0.1183
  104OSM     O310567   0.635   3.743  10.411 -0.5322  0.3513  0.3876
  104OSM    HO310568   0.692   3.774  10.482  2.3468 -1.0873 -1.1224
  104OSM    C4S10569   0.728   3.727  10.196  0.6930 -0.4794  0.2191
  104OSM    H4S10570   0.826   3.682  10.217  0.4586 -0.1797  2.1527
  104OSM    C5S10571   0.665   3.701  10.083 -0.0038  0.4151 -0.1556
  104OSM    H5S10572   0.564   3.743  10.077  0.3215  1.5325  1.5057
  104OSM    C6S10573   0.719   3.612   9.972 -0.0885 -0.2216 -0.8237
  104OSM    H6S10574   0.647   3.530   9.950 -0.1139 -0.1029 -1.1926
  104OSM    H6T10575   0.821   3.577   9.999 -0.6537 -1.3182 -0.0048
  104OSM    C7S10576   0.729   3.698   9.845  0.1643 -0.1340 -0.2145
  104OSM    H7S10577   0.785   3.792   9.864  1.3462 -0.7923 -0.3446
  104OSM    H7T10578   0.628   3.736   9.819  0.3147 -0.3313 -1.1192
  104OSM    C8S10579   0.780   3.610   9.727  0.6686  0.4413 -0.7092
  104OSM    H8S10580   0.725   3.513   9.720  0.0637  0.7672 -0.5564
  104OSM    H8T10581   0.886   3.581   9.742  0.3111 -1.1031 -0.9249
  104OSM    C9S10582   0.755   3.672   9.589  0.1593  0.2210  0.0843
  104OSM    H9S10583   0.818   3.762   9.575  2.5194 -1.2195  0.7695
  104OSM    H9T10584   0.647   3.688   9.570  0.1334 -1.3243 -1.2488
  104OSM   C10S10585   0.804   3.567   9.478  0.7070 -0.0496 -0.2558
  104OSM   H10S10586   0.740   3.477   9.487  0.4295 -0.1250 -2.4699
  104OSM   H10T10587   0.903   3.530   9.513  0.2125 -2.1951 -0.9541
  104OSM   C11S10588   0.805   3.635   9.345 -0.4827 -0.2721  0.5668
  104OSM   H11S10589   0.822   3.554   9.270 -1.5177  0.1586 -0.1581
  104OSM   H11T10590   0.889   3.708   9.339 -1.1546  0.8483  3.2358
  104OSM   C12S10591   0.678   3.701   9.288  0.6131 -0.5569 -0.1650
  104OSM   H12S10592   0.679   3.804   9.330  2.5370 -0.4143 -0.4795
  104OSM   H12T10593   0.585   3.648   9.317 -0.0289 -0.3078 -1.6851
  104OSM   C13S10594   0.683   3.721   9.138 -0.6282 -0.1509  0.2677
  104OSM   H13S10595   0.582   3.749   9.103 -1.1981 -0.2504  1.7751
  104OSM   H13T10596   0.687   3.620   9.091  1.1751  0.3777 -0.8175
  104OSM   C14S10597   0.794   3.816   9.090  0.9813  0.1487  0.0576
  104OSM   H14S10598   0.888   3.763   9.113  0.6890 -0.5286 -0.2850
  104OSM   H14T10599   0.783   3.916   9.138  2.1055 -0.1985  1.0857
  104OSM   C15S10600   0.791   3.838   8.946  0.0178  0.3023 -0.2923
  104OSM   H15S10601   0.703   3.898   8.913  0.5570 -0.4343 -3.3325
  104OSM   H15T10602   0.774   3.747   8.885  0.8474 -0.6449  0.8544
  104OSM   C16S10603   0.913   3.910   8.896 -0.1727  0.1870  0.3423
  104OSM   H16S10604   0.946   3.998   8.956  3.9577  1.7939 -3.6882
  104OSM   H16T10605   0.908   3.961   8.798 -2.0454 -0.6692 -0.0641
  104OSM   C17S10606   1.041   3.818   8.895 -0.3666  0.1782 -0.2864
  104OSM   H17S10607   1.024   3.708   8.890  2.7309 -0.4554  0.4705
  104OSM   H17T10608   1.082   3.829   8.998  0.5653 -0.5626 -0.5652
  104OSM   C18S10609   1.141   3.855   8.779  0.7665  0.3611 -0.6888
  104OSM   H18S10610   1.193   3.952   8.796  0.2586  0.5783 -0.3686
  104OSM   H18T10611   1.087   3.863   8.682  2.0825  1.7804 -1.3546
  104OSM   H18U10612   1.216   3.773   8.779  1.4852  1.0066 -0.5321
  104OSM    C1F10613   0.970   4.036  10.193 -0.8045 -1.0037 -0.3524
  104OSM     OF10614   1.058   4.039  10.281 -0.1589 -0.2439  0.6395
  104OSM    C2F10615   0.997   4.116  10.059  0.6755  0.0511 -0.5172
  104OSM    H2F10616   1.102   4.115  10.023  0.4490  0.5885 -1.2249
  104OSM    H2G10617   0.987   4.222  10.091  0.5642 -0.5622  1.6292
  104OSM    C3F10618   0.907   4.064   9.947  0.0402  1.0826 -0.2814
  104OSM    H3F10619   0.803   4.087   9.979  0.1998  0.5891  0.6148
  104OSM    H3G10620   0.925   3.956   9.930 -0.2277  1.0463 -0.3412
  104OSM    C4F10621   0.934   4.127   9.811  0.8654 -0.1421  0.6222
  104OSM    H4F10622   1.038   4.100   9.784  0.6309  0.1018 -0.5607
  104OSM    H4G10623   0.918   4.237   9.815  0.3264 -0.2508  2.1190
  104OSM    C5F10624   0.845   4.070   9.695  0.4992 -0.8850 -0.2796
  104OSM    H5F10625   0.746   4.101   9.734  0.9828 -0.1162  0.3625
  104OSM    H5G10626   0.858   3.961   9.679 -1.2470 -0.6322 -5.3349
  104OSM    C6F10627   0.863   4.148   9.561 -1.0729  0.2241 -0.7315
  104OSM    H6F10628   0.896   4.253   9.571  1.4079 -0.2976 -2.2532
  104OSM    H6G10629   0.776   4.140   9.492 -0.5093 -0.1861 -1.4074
  104OSM    C7F10630   0.980   4.082   9.490 -0.1399 -0.4466 -0.9431
  104OSM    H7F10631   0.965   3.972   9.483  2.4914 -1.1580  2.0806
  104OSM    H7G10632   1.072   4.086   9.553 -0.8390  0.5393  0.0351
  104OSM    C8F10633   1.005   4.136   9.348 -0.5069  0.5973 -0.5194
  104OSM    H8F10634   0.931   4.092   9.278  1.3641 -2.7824 -0.5973
  104OSM    H8G10635   1.102   4.095   9.314 -0.3084  1.0845 -0.5582
  104OSM    C9F10636   1.002   4.285   9.344  0.8633  0.2868 -0.0555
  104OSM    H9F10637   0.904   4.326   9.374  1.0340 -0.9256  2.4682
  104OSM   C10F10638   1.094   4.370   9.294  0.3207  1.6079 -0.1747
  104OSM   H10F10639   1.068   4.477   9.291 -0.3345  1.4522 -0.1263
  104OSM   C11F10640   1.229   4.341   9.241 -0.3367  0.5837  0.3955
  104OSM   H11F10641   1.280   4.278   9.317  1.5243 -1.1826 -2.1783
  104OSM   H11G10642   1.279   4.440   9.233  1.0371 -0.0575  0.8071
  104OSM   C12F10643   1.245   4.277   9.102  0.2592  0.1771 -0.3871
  104OSM   H12F10644   1.179   4.328   9.028 -0.1724  0.5780  0.2618
  104OSM   H12G10645   1.215   4.170   9.102  2.1426 -0.3884  0.1186
  104OSM   C13F10646   1.395   4.272   9.061  0.6746 -0.1720 -0.0006
  104OSM   H13F10647   1.435   4.375   9.052 -0.8550  0.4420 -0.0471
  104OSM   H13G10648   1.400   4.222   8.962 -0.4716 -0.9454  0.3150
  104OSM   C14F10649   1.484   4.197   9.162  0.6015 -0.4796 -0.4059
  104OSM   H14F10650   1.426   4.107   9.190  0.2768 -0.1542 -0.0088
  104OSM   H14G10651   1.488   4.260   9.253 -1.1830 -0.2516 -0.4470
  104OSM   C15F10652   1.617   4.155   9.103 -0.5670  0.4610 -0.1042
  104OSM   H15F10653   1.672   4.099   9.182 -1.1427 -0.5818 -0.4184
  104OSM   H15G10654   1.681   4.241   9.074  0.0872  0.4633  1.2824
  104OSM   C16F10655   1.596   4.053   8.987  0.3536  0.1502  0.3454
  104OSM   H16F10656   1.559   4.108   8.898  2.2679 -0.1499 -0.6830
  104OSM   H16G10657   1.512   3.986   9.013  0.2729  0.0864 -0.0847
  104OSM   C17F10658   1.712   3.956   8.943 -0.2224  1.0928 -0.3766
  104OSM   H17F10659   1.758   3.901   9.029  2.5195  1.4462 -1.5011
  104OSM   H17G10660   1.803   4.016   8.922 -1.0681  1.9558 -1.6865
  104OSM   C18F10661   1.667   3.882   8.825 -0.4571  0.3453  0.4167
  104OSM   H18F10662   1.565   3.841   8.846 -0.3229 -0.7516 -0.9513
  104OSM   H18G10663   1.738   3.810   8.780  0.3568 -0.2801  2.5499
  104OSM   H18H10664   1.658   3.966   8.753 -0.9729  2.1487  2.4582
  105OSM      N10665   0.366   2.978  11.093  0.1729 -0.5772 -0.5080
  105OSM    C1510666   0.501   2.923  11.073 -0.6193  0.8926  0.2365
  105OSM   H15A10667   0.480   2.832  11.019 -2.3949  0.5198  1.4769
  105OSM   H15B10668   0.539   2.902  11.172 -1.2221  0.0485  0.2969
  105OSM   H15C10669   0.563   2.991  11.016 -0.2622  1.3270  1.1256
  105OSM    C1410670   0.291   2.899  11.199 -0.2498 -0.3637 -0.1955
  105OSM   H14A10671   0.266   2.798  11.171 -1.4916  0.2178 -1.2853
  105OSM   H14B10672   0.202   2.955  11.224  0.0011 -0.7942  1.8914
  105OSM   H14C10673   0.346   2.890  11.292 -3.1669  0.3734  1.7372
  105OSM    C1310674   0.386   3.120  11.150  0.4378 -0.3573  0.3361
  105OSM   H13A10675   0.430   3.188  11.079 -0.3485  1.3334  1.4048
  105OSM   H13B10676   0.446   3.113  11.240 -0.7458  1.0678  1.2709
  105OSM   H13C10677   0.284   3.152  11.163 -0.0325 -1.9535  0.8099
  105OSM    C1210678   0.284   2.979  10.968  0.1190  0.1143  0.4438
  105OSM   H12A10679   0.189   3.028  10.985 -0.0080 -0.2168  0.6788
  105OSM   H12B10680   0.259   2.886  10.919 -2.3939  1.2522 -0.6272
  105OSM    C1110681   0.333   3.062  10.841  0.1396  0.4387 -0.0445
  105OSM   H11A10682   0.270   3.027  10.757 -0.5967  0.6270  0.4227
  105OSM   H11B10683   0.431   3.031  10.798 -0.1975  2.6621 -2.6796
  105OSM      P10684   0.215   3.300  10.820  0.0730  0.3375  0.4507
  105OSM    O1310685   0.089   3.217  10.824  0.3899 -0.8429 -0.3321
  105OSM    O1410686   0.229   3.424  10.902  0.5341  0.7760  0.0806
  105OSM    O1110687   0.260   3.336  10.671 -0.6835 -0.0683 -0.1311
  105OSM    O1210688   0.331   3.202  10.867  0.4143  0.3807  0.6840
  105OSM    C1S10689   0.383   3.400  10.650  0.1994  0.0629  0.1977
  105OSM    H1S10690   0.468   3.365  10.712 -0.4537 -2.4554 -0.2333
  105OSM    H1T10691   0.378   3.507  10.679  0.9304 -0.2911  1.7400
  105OSM     NF10692   0.573   3.439  10.508 -0.2378 -0.4364 -0.2993
  105OSM    HNF10693   0.592   3.524  10.459 -1.0285 -0.2486 -0.2993
  105OSM    C2S10694   0.436   3.399  10.502  0.3566  0.1545  0.0139
  105OSM    H2S10695   0.442   3.292  10.475 -2.1907  0.0811 -0.5218
  105OSM    C3S10696   0.345   3.478  10.408 -0.3359 -0.2376 -0.1564
  105OSM    H3S10697   0.361   3.584  10.436  1.2705  0.7114 -4.0767
  105OSM     O310698   0.199   3.462  10.420 -0.5080  0.1572  0.5559
  105OSM    HO310699   0.179   3.436  10.510  2.3337 -1.3123  0.8890
  105OSM    C4S10700   0.380   3.457  10.271  0.2578  0.3404 -0.4466
  105OSM    H4S10701   0.462   3.522  10.238 -0.0531  0.5633 -0.7916
  105OSM    C5S10702   0.332   3.378  10.175  0.4212 -0.2443  0.0411
  105OSM    H5S10703   0.240   3.323  10.199 -0.7440  1.9936  1.0110
  105OSM    C6S10704   0.381   3.366  10.036  0.0270 -0.5674 -0.0476
  105OSM    H6S10705   0.441   3.273  10.041 -0.9263 -1.2115 -0.5340
  105OSM    H6T10706   0.451   3.449  10.010  0.6754 -1.1906 -0.3328
  105OSM    C7S10707   0.278   3.357   9.921 -0.0976 -0.2688  0.0308
  105OSM    H7S10708   0.195   3.431   9.924 -0.4976 -0.5643 -2.2184
  105OSM    H7T10709   0.232   3.257   9.936  1.5094 -0.8171  1.6677
  105OSM    C8S10710   0.349   3.355   9.781 -0.0950 -0.0595  0.1304
  105OSM    H8S10711   0.429   3.279   9.766 -0.5915 -0.0519 -3.4457
  105OSM    H8T10712   0.395   3.455   9.766  0.7769 -0.5129 -0.3081
  105OSM    C9S10713   0.250   3.321   9.664  0.2547  0.0846  0.4922
  105OSM    H9S10714   0.170   3.399   9.660  0.7338  0.6515  1.5917
  105OSM    H9T10715   0.195   3.224   9.663 -1.0831  0.7469 -2.6349
  105OSM   C10S10716   0.320   3.321   9.527 -0.0457 -0.4851  0.3960
  105OSM   H10S10717   0.355   3.218   9.506  2.1784  0.2012  0.4240
  105OSM   H10T10718   0.411   3.385   9.534  0.0757 -0.4163 -1.3546
  105OSM   C11S10719   0.246   3.382   9.405 -0.0057 -0.4376 -0.5913
  105OSM   H11S10720   0.175   3.462   9.434  0.5910  0.9066 -2.6124
  105OSM   H11T10721   0.181   3.297   9.377  1.3975 -2.1829  1.1463
  105OSM   C12S10722   0.345   3.430   9.303 -0.3252  0.0133 -0.3435
  105OSM   H12S10723   0.426   3.354   9.291  1.6606  2.1796 -1.4878
  105OSM   H12T10724   0.400   3.514   9.350  0.9068 -0.3861 -1.0038
  105OSM   C13S10725   0.282   3.461   9.172 -0.1549  0.3345  0.2832
  105OSM   H13S10726   0.206   3.542   9.180 -0.4816  0.1033 -0.3899
  105OSM   H13T10727   0.229   3.371   9.135 -0.0164  0.4541 -0.2155
  105OSM   C14S10728   0.383   3.500   9.064 -0.3447 -0.0405 -0.1374
  105OSM   H14S10729   0.449   3.412   9.050 -0.3109  0.0626 -0.6402
  105OSM   H14T10730   0.440   3.587   9.103 -2.6898  1.9224 -0.8569
  105OSM   C15S10731   0.304   3.513   8.931 -0.4999  0.1905  0.2433
  105OSM   H15S10732   0.240   3.603   8.938 -0.3074  0.5213 -1.6494
  105OSM   H15T10733   0.232   3.430   8.912 -1.3998  0.8675  0.6489
  105OSM   C16S10734   0.388   3.518   8.802 -0.8951 -0.5877 -0.2373
  105OSM   H16S10735   0.479   3.579   8.822 -0.0060 -0.8163 -3.1753
  105OSM   H16T10736   0.326   3.568   8.725 -0.3881 -2.3005 -1.8132
  105OSM   C17S10737   0.432   3.382   8.741  0.4946 -0.2316  0.3802
  105OSM   H17S10738   0.338   3.336   8.704 -0.9291  1.7872  1.3472
  105OSM   H17T10739   0.479   3.307   8.808  1.9005  2.0319  2.0793
  105OSM   C18S10740   0.530   3.389   8.620 -0.1209 -0.3241 -0.1060
  105OSM   H18S10741   0.526   3.291   8.568  2.1410  0.6345 -2.3377
  105OSM   H18T10742   0.634   3.416   8.647 -0.5971 -0.2663  1.7683
  105OSM   H18U10743   0.496   3.465   8.546 -0.7568  0.0090  0.5162
  105OSM    C1F10744   0.676   3.369  10.558  0.1515  0.4513  0.1619
  105OSM     OF10745   0.659   3.259  10.617  0.1780 -0.0258 -0.6323
  105OSM    C2F10746   0.814   3.421  10.527  0.5912  0.1521  0.1210
  105OSM    H2F10747   0.863   3.427  10.627 -0.4693 -0.4882  0.6957
  105OSM    H2G10748   0.805   3.528  10.498 -0.4829  0.1991  0.5728
  105OSM    C3F10749   0.892   3.349  10.419 -0.5260  0.2477  0.2733
  105OSM    H3F10750   0.907   3.246  10.456 -0.4627 -0.4878 -1.6952
  105OSM    H3G10751   0.996   3.388  10.413 -0.9362  1.2783 -0.3825
  105OSM    C4F10752   0.829   3.346  10.276 -0.9083 -0.1606  0.0739
  105OSM    H4F10753   0.838   3.439  10.216 -3.1097  0.4240  0.5451
  105OSM    H4G10754   0.718   3.338  10.270 -0.9475  0.2326  0.2770
  105OSM    C5F10755   0.896   3.231  10.203 -0.6456  0.2608  0.9261
  105OSM    H5F10756   0.844   3.136  10.226  0.8740 -0.6594  0.6868
  105OSM    H5G10757   1.002   3.219  10.235 -0.5453  0.0645  0.5219
  105OSM    C6F10758   0.894   3.250  10.046 -0.3412 -0.5770  0.4158
  105OSM    H6F10759   0.974   3.185  10.005  0.7942  1.0006  0.0598
  105OSM    H6G10760   0.914   3.357  10.023 -1.4877 -0.3979  0.2098
  105OSM    C7F10761   0.756   3.205   9.987  0.5802 -0.4137 -0.1654
  105OSM    H7F10762   0.682   3.267  10.042 -1.2744 -2.9089  0.3339
  105OSM    H7G10763   0.731   3.099  10.009 -0.4214 -0.3498 -0.9464
  105OSM    C8F10764   0.736   3.233   9.833 -0.2833  0.2429  0.9419
  105OSM    H8F10765   0.756   3.341   9.816 -2.1871  0.2326 -2.1198
  105OSM    H8G10766   0.630   3.220   9.804  0.4346 -1.1718 -1.2435
  105OSM    C9F10767   0.831   3.153   9.754 -0.3327 -0.0856 -0.7424
  105OSM    H9F10768   0.936   3.177   9.778 -0.8634  1.2026  0.4013
  105OSM   C10F10769   0.792   3.065   9.654 -0.5281 -0.0672  0.5354
  105OSM   H10F10770   0.866   3.012   9.591 -0.4397  1.6378 -0.8666
  105OSM   C11F10771   0.656   3.044   9.605  0.5535 -0.0668  0.1976
  105OSM   H11F10772   0.580   3.077   9.679  0.4104 -0.0493  0.0439
  105OSM   H11G10773   0.646   2.937   9.578  2.0910 -0.0294 -0.6450
  105OSM   C12F10774   0.629   3.122   9.475  0.0016  0.2504 -0.4851
  105OSM   H12F10775   0.633   3.228   9.509  0.7124  0.3496 -0.8614
  105OSM   H12G10776   0.526   3.101   9.440  0.8821 -0.5036 -2.8225
  105OSM   C13F10777   0.720   3.097   9.359 -0.4566  0.1373 -0.6350
  105OSM   H13F10778   0.716   2.994   9.319  2.2047 -1.3915  2.5176
  105OSM   H13G10779   0.824   3.117   9.392 -0.3071 -0.1057 -0.9580
  105OSM   C14F10780   0.695   3.208   9.260  0.3033 -0.1544  0.6401
  105OSM   H14F10781   0.703   3.307   9.311  0.1049  0.6984 -0.9112
  105OSM   H14G10782   0.593   3.205   9.216  0.6481 -1.0372 -0.1281
  105OSM   C15F10783   0.790   3.216   9.134  0.0687 -0.8651 -0.0675
  105OSM   H15F10784   0.795   3.114   9.088  0.5303 -0.8353 -0.0937
  105OSM   H15G10785   0.892   3.246   9.167 -0.5416 -0.5696  1.6312
  105OSM   C16F10786   0.732   3.303   9.026 -0.0678  0.1626 -0.4163
  105OSM   H16F10787   0.721   3.403   9.075 -1.4150 -0.0834 -0.1847
  105OSM   H16G10788   0.637   3.249   9.009  0.1329 -1.2702  2.4176
  105OSM   C17F10789   0.814   3.321   8.897 -0.8922  0.0347  0.3147
  105OSM   H17F10790   0.737   3.369   8.833 -1.6175 -1.8450 -0.2782
  105OSM   H17G10791   0.827   3.222   8.847 -0.1079  0.6450 -0.7419
  105OSM   C18F10792   0.939   3.408   8.891 -0.8061  0.4668  0.2440
  105OSM   H18F10793   0.977   3.389   8.788  1.3517  2.7042  0.5218
  105OSM   H18G10794   1.013   3.379   8.968 -0.3722  0.7427 -0.0639
  105OSM   H18H10795   0.932   3.519   8.891  1.1657  0.6287 -0.8908
  106OSM      N10796   2.731   0.212  10.646 -0.6616  0.0944 -0.7122
  106OSM    C1510797   2.604   0.174  10.584 -0.5459  0.5355 -0.1646
  106OSM   H15A10798   2.620   0.098  10.508 -1.3098 -0.2242  0.4187
  106OSM   H15B10799   2.557   0.260  10.539  2.4263  2.4153  0.0527
  106OSM   H15C10800   2.542   0.128  10.660  0.3558 -0.7741 -0.1768
  106OSM    C1410801   2.831   0.249  10.536 -0.4091 -0.8977 -0.4355
  106OSM   H14A10802   2.793   0.327  10.471 -0.1705  0.9785  1.5473
  106OSM   H14B10803   2.859   0.161  10.480  0.2909  0.0005 -1.5409
  106OSM   H14C10804   2.923   0.288  10.576 -0.7642 -0.1561 -0.3124
  106OSM    C1310805   2.719   0.336  10.731 -0.1695 -0.6312 -0.0631
  106OSM   H13A10806   2.694   0.424  10.673 -2.0858 -1.8155 -1.1499
  106OSM   H13B10807   2.814   0.360  10.776 -0.5191 -0.0830  0.3922
  106OSM   H13C10808   2.659   0.319  10.819 -0.2639 -0.9491 -0.1847
  106OSM    C1210809   2.785   0.086  10.722 -0.6681  0.0028  0.6908
  106OSM   H12A10810   2.888   0.109  10.747 -0.7631  0.4301  0.6877
  106OSM   H12B10811   2.782   0.011  10.645  3.2753  1.4800 -1.1618
  106OSM    C1110812   2.714   0.045  10.851  0.1313  0.4682 -0.4566
  106OSM   H11A10813   2.720   0.127  10.925  1.2247  0.0939 -0.1100
  106OSM   H11B10814   2.766  -0.041  10.898 -2.8295 -0.7231  0.9569
  106OSM      P10815   2.506  -0.126  10.795 -0.1162  0.0219 -0.4618
  106OSM    O1310816   2.480  -0.205  10.916  0.3532  0.6874  0.6359
  106OSM    O1410817   2.385  -0.093  10.723 -0.5496  0.0257  0.4499
  106OSM    O1110818   2.610  -0.197  10.699  0.0253 -0.2703  0.0638
  106OSM    O1210819   2.581   0.006  10.829 -0.0336  0.7046 -0.1960
  106OSM    C1S10820   2.592  -0.325  10.639 -0.0935 -0.6648 -0.8556
  106OSM    H1S10821   2.532  -0.390  10.707  0.6418 -0.3427  0.1170
  106OSM    H1T10822   2.688  -0.381  10.635  0.3479 -0.2604  1.9549
  106OSM     NF10823   2.480  -0.438  10.439  0.2383  0.6656  0.1135
  106OSM    HNF10824   2.530  -0.470  10.359 -0.9328  3.0346 -1.7128
  106OSM    C2S10825   2.519  -0.312  10.496  0.4076 -0.4058  0.1094
  106OSM    H2S10826   2.423  -0.258  10.514  0.7849  0.4687 -0.4860
  106OSM    C3S10827   2.603  -0.218  10.406 -0.6240 -0.1850 -0.5605
  106OSM    H3S10828   2.693  -0.271  10.367  0.3524  1.0032  0.0294
  106OSM     O310829   2.659  -0.103  10.469  0.1593  0.2745 -0.7369
  106OSM    HO310830   2.631  -0.119  10.559 -1.5876 -2.7866 -1.6859
  106OSM    C4S10831   2.523  -0.190  10.282  0.6827 -0.6118 -0.1857
  106OSM    H4S10832   2.523  -0.269  10.206  2.0459  1.1791 -2.1557
  106OSM    C5S10833   2.457  -0.074  10.254 -0.0467  0.7280 -0.7938
  106OSM    H5S10834   2.469   0.011  10.323  0.8364 -2.2313  3.1080
  106OSM    C6S10835   2.379  -0.051  10.124 -0.4835  0.4737  0.2545
  106OSM    H6S10836   2.318   0.042  10.132 -1.9945 -0.4867  0.3726
  106OSM    H6T10837   2.321  -0.142  10.097 -1.3834  1.2004 -0.3563
  106OSM    C7S10838   2.482  -0.047  10.007  0.2386  0.2803 -0.1494
  106OSM    H7S10839   2.523  -0.148   9.986  0.2555  0.1549  0.4697
  106OSM    H7T10840   2.568   0.011  10.048 -0.2105  1.2666 -0.5829
  106OSM    C8S10841   2.429   0.021   9.877  0.4256  0.5858  0.2252
  106OSM    H8S10842   2.400   0.125   9.900 -2.3623 -0.1131  0.3350
  106OSM    H8T10843   2.338  -0.030   9.837 -0.4796  0.4236  2.3855
  106OSM    C9S10844   2.532   0.018   9.769  0.4597 -0.4461  0.5784
  106OSM    H9S10845   2.559  -0.086   9.744 -1.2914 -0.5536 -1.0797
  106OSM    H9T10846   2.622   0.076   9.801  0.2918  0.6608 -0.8235
  106OSM   C10S10847   2.472   0.058   9.629  0.5330 -0.5352  0.0727
  106OSM   H10S10848   2.412   0.151   9.641  1.4383  0.2469 -1.2711
  106OSM   H10T10849   2.394  -0.019   9.610  0.8234 -0.7664 -0.1790
  106OSM   C11S10850   2.569   0.072   9.514  0.1621 -0.1926  0.8425
  106OSM   H11S10851   2.641  -0.013   9.514 -0.3066 -0.6002  0.3727
  106OSM   H11T10852   2.641   0.153   9.538 -1.9210  0.9155  3.9635
  106OSM   C12S10853   2.486   0.087   9.384 -0.7700  0.7318  0.2992
  106OSM   H12S10854   2.405   0.162   9.395 -0.2465  1.9676 -3.0468
  106OSM   H12T10855   2.441  -0.014   9.377 -0.4131  0.6496 -1.2553
  106OSM   C13S10856   2.567   0.117   9.264 -0.0679  0.2439  0.1181
  106OSM   H13S10857   2.610   0.020   9.233  3.7280  1.2168  1.8074
  106OSM   H13T10858   2.652   0.187   9.274 -1.0016  1.4912 -0.3149
  106OSM   C14S10859   2.495   0.172   9.140 -0.3991  0.5417  0.0097
  106OSM   H14S10860   2.563   0.180   9.053 -0.4401  1.4156  0.0510
  106OSM   H14T10861   2.461   0.276   9.159  2.7010  1.4472  1.1500
  106OSM   C15S10862   2.377   0.079   9.097 -0.2611 -0.3296  0.5305
  106OSM   H15S10863   2.299   0.084   9.176  1.7416 -1.0573  2.6680
  106OSM   H15T10864   2.423  -0.020   9.079 -0.0433  0.0466 -1.2375
  106OSM   C16S10865   2.317   0.142   8.969  0.0432  0.0683 -0.0789
  106OSM   H16S10866   2.388   0.152   8.884 -1.4741  0.2984 -1.3667
  106OSM   H16T10867   2.299   0.251   8.985  1.5889  0.3808 -0.3022
  106OSM   C17S10868   2.187   0.071   8.909  0.1943  0.6689  0.6883
  106OSM   H17S10869   2.107   0.057   8.985 -0.1757  3.5159  0.9594
  106OSM   H17T10870   2.217  -0.026   8.864 -0.2912 -0.0762  1.9234
  106OSM   C18S10871   2.118   0.152   8.791  0.1531 -0.2410 -0.6585
  106OSM   H18S10872   2.010   0.127   8.787  0.4581 -2.7884  2.9100
  106OSM   H18T10873   2.164   0.142   8.691 -2.1861 -0.3998 -1.7938
  106OSM   H18U10874   2.131   0.262   8.805 -1.9878 -0.1576  1.2612
  106OSM    C1F10875   2.385  -0.516  10.495  0.3120  0.1597 -0.0439
  106OSM     OF10876   2.336  -0.486  10.603 -0.4866 -0.4849  0.3098
  106OSM    C2F10877   2.345  -0.643  10.429  0.3224  0.6096 -0.0401
  106OSM    H2F10878   2.390  -0.724  10.490  1.4280 -1.4465 -3.2838
  106OSM    H2G10879   2.386  -0.655  10.326 -2.4992  2.2950 -1.4866
  106OSM    C3F10880   2.197  -0.662  10.421 -0.6443  0.5242  0.1333
  106OSM    H3F10881   2.157  -0.650  10.524 -0.8455 -0.3098  0.1528
  106OSM    H3G10882   2.186  -0.758  10.368  1.7968 -0.1803  0.7386
  106OSM    C4F10883   2.117  -0.564  10.326  0.2603  0.9904 -0.4722
  106OSM    H4F10884   2.127  -0.460  10.363 -0.2506  0.4410  1.3205
  106OSM    H4G10885   2.009  -0.591  10.336 -0.1840  1.7929 -2.5237
  106OSM    C5F10886   2.155  -0.581  10.178 -0.6620 -0.4855 -0.3059
  106OSM    H5F10887   2.061  -0.590  10.120 -1.7702  1.8435  1.0102
  106OSM    H5G10888   2.210  -0.674  10.150  0.3778 -0.3649  1.1947
  106OSM    C6F10889   2.223  -0.452  10.121 -0.1078  0.4567  0.2061
  106OSM    H6F10890   2.333  -0.453  10.137  0.0537  0.6654 -0.7853
  106OSM    H6G10891   2.176  -0.361  10.164 -0.9877  0.6704 -1.1511
  106OSM    C7F10892   2.219  -0.439   9.967 -0.6352  0.5125  0.7772
  106OSM    H7F10893   2.257  -0.532   9.919 -2.7873  0.0264 -0.0868
  106OSM    H7G10894   2.293  -0.363   9.933  0.8960 -2.4429 -3.3751
  106OSM    C8F10895   2.093  -0.408   9.891  0.6928  0.2254  0.1661
  106OSM    H8F10896   2.030  -0.499   9.901  1.1699 -0.0347  0.8820
  106OSM    H8G10897   2.120  -0.404   9.783  1.2298 -1.7983  0.1787
  106OSM    C9F10898   2.008  -0.287   9.934  0.7772  1.2168  0.3581
  106OSM    H9F10899   1.951  -0.298  10.028  2.8141  0.6012  1.5715
  106OSM   C10F10900   1.993  -0.171   9.870  0.3472 -0.4672  0.0589
  106OSM   H10F10901   1.934  -0.092   9.920  2.1269 -0.2999  2.0023
  106OSM   C11F10902   2.049  -0.141   9.734 -0.2383  0.2838  0.7043
  106OSM   H11F10903   2.044  -0.240   9.684 -1.9251  0.2164  0.9447
  106OSM   H11G10904   2.155  -0.112   9.747  0.6872 -1.8857 -1.2078
  106OSM   C12F10905   1.966  -0.046   9.651  0.0653 -0.7834 -0.1673
  106OSM   H12F10906   1.956   0.055   9.696  2.3771  0.4530 -2.1690
  106OSM   H12G10907   1.863  -0.081   9.629 -0.1889  0.7498 -1.6158
  106OSM   C13F10908   2.035  -0.023   9.517 -0.0750  0.2834 -0.6556
  106OSM   H13F10909   2.038  -0.123   9.471 -0.0095 -0.3721  0.7117
  106OSM   H13G10910   2.139   0.014   9.533  1.3346 -3.4929 -0.0617
  106OSM   C14F10911   1.945   0.051   9.415 -0.3257 -0.0578 -0.3408
  106OSM   H14F10912   1.894   0.135   9.466 -0.3043 -0.3940  0.2446
  106OSM   H14G10913   1.860  -0.016   9.387 -2.7518  1.6507  2.3876
  106OSM   C15F10914   2.021   0.106   9.295  0.1263 -0.2291  0.4335
  106OSM   H15F10915   2.060   0.018   9.240  1.5234  0.7667 -0.2146
  106OSM   H15G10916   2.101   0.180   9.314  2.1911 -1.8293 -1.4993
  106OSM   C16F10917   1.938   0.189   9.191  0.1351 -0.1182  0.5486
  106OSM   H16F10918   2.011   0.216   9.111  1.0445  0.6226  1.5989
  106OSM   H16G10919   1.893   0.282   9.232  0.6196 -0.1738  1.2327
  106OSM   C17F10920   1.820   0.121   9.121  0.9423 -0.1432 -0.8599
  106OSM   H17F10921   1.758   0.088   9.207  1.7582  0.0528 -0.1838
  106OSM   H17G10922   1.852   0.025   9.076  3.8544 -0.7339  2.0976
  106OSM   C18F10923   1.722   0.200   9.025 -0.6714 -0.0880 -0.6214
  106OSM   H18F10924   1.711   0.301   9.068 -0.4713 -0.3335  0.0127
  106OSM   H18G10925   1.622   0.150   9.019 -1.7586  2.0543 -1.1479
  106OSM   H18H10926   1.766   0.207   8.923 -0.2616  0.0013 -0.4389
  107OSM      N10927   2.879   4.403  11.287 -0.8804 -0.2435 -0.8344
  107OSM    C1510928   2.857   4.462  11.157 -0.4825 -0.3992  0.1903
  107OSM   H15A10929   2.784   4.420  11.089  0.1321  1.3629 -1.6567
  107OSM   H15B10930   2.947   4.455  11.098  0.6863 -1.1302  1.9767
  107OSM   H15C10931   2.825   4.564  11.172  1.2666  0.3718 -0.9808
  107OSM    C1410932   2.983   4.483  11.361 -0.4765 -0.1269  0.2422
  107OSM   H14A10933   3.071   4.491  11.299 -1.3857  0.8540 -0.9723
  107OSM   H14B10934   3.017   4.445  11.456 -0.5848 -0.9530 -0.0382
  107OSM   H14C10935   2.947   4.584  11.377  2.1552  0.7658  0.9824
  107OSM    C1310936   2.753   4.401  11.366  0.2881  0.1150 -0.7525
  107OSM   H13A10937   2.782   4.366  11.464  2.5572 -1.0456 -1.7777
  107OSM   H13B10938   2.673   4.343  11.322 -0.8327  0.9393  0.1179
  107OSM   H13C10939   2.704   4.497  11.375 -1.7943 -0.8439 -1.2574
  107OSM    C1210940   2.928   4.264  11.268 -0.6433  0.4299 -0.1004
  107OSM   H12A10941   2.847   4.210  11.222  0.8147  0.3523 -2.8099
  107OSM   H12B10942   2.950   4.230  11.369 -2.0875  0.7419  0.3364
  107OSM    C1110943   3.052   4.229  11.180  0.8121  0.1620 -0.3090
  107OSM   H11A10944   3.145   4.278  11.216 -0.0330  1.2356  0.4799
  107OSM   H11B10945   3.041   4.276  11.080 -1.6331  2.3885  0.8935
  107OSM      P10946   2.953   3.999  11.097  0.1167  0.3791 -0.3823
  107OSM    O1310947   3.015   3.867  11.092 -0.4786  0.3104 -0.1836
  107OSM    O1410948   2.818   4.006  11.158  0.4600  0.0895 -0.4793
  107OSM    O1110949   2.938   4.058  10.947 -0.5417 -0.0606 -0.6891
  107OSM    O1210950   3.061   4.082  11.172  0.3632  0.4724  0.8910
  107OSM    C1S10951   3.057   4.051  10.871 -0.5743  0.1576 -0.2956
  107OSM    H1S10952   3.090   3.946  10.856  1.0792  0.5174  0.6111
  107OSM    H1T10953   3.137   4.109  10.922 -0.6951 -0.1653  0.2696
  107OSM     NF10954   3.154   4.086  10.644  1.0092 -0.0333 -0.3517
  107OSM    HNF10955   3.214   4.165  10.644  1.3486 -0.2828 -0.8976
  107OSM    C2S10956   3.039   4.104  10.726 -0.5397  0.2136  0.5264
  107OSM    H2S10957   2.961   4.046  10.672 -0.7875  0.5857  0.4812
  107OSM    C3S10958   2.998   4.254  10.746 -0.6553  0.1709  0.3346
  107OSM    H3S10959   3.062   4.313  10.814 -1.8360  1.8951  0.0129
  107OSM     O310960   2.867   4.264  10.800  0.1142 -0.8260 -0.0926
  107OSM    HO310961   2.871   4.176  10.838  1.2303 -0.5421  0.4735
  107OSM    C4S10962   3.003   4.324  10.613  0.1843 -0.5154  0.4160
  107OSM    H4S10963   3.104   4.343  10.575 -0.5419  0.3317 -1.1747
  107OSM    C5S10964   2.900   4.371  10.534  0.3179  0.0338 -0.2656
  107OSM    H5S10965   2.801   4.360  10.580  0.7227 -0.3672  0.5496
  107OSM    C6S10966   2.910   4.433  10.396 -0.2339  0.0900  0.0472
  107OSM    H6S10967   2.991   4.507  10.410 -1.6860  1.4085  2.3082
  107OSM    H6T10968   2.822   4.492  10.363  0.6495 -0.2052 -3.0871
  107OSM    C7S10969   2.930   4.332  10.284 -0.3686  0.4822  0.2487
  107OSM    H7S10970   2.863   4.244  10.291  1.3681 -0.8469  0.8244
  107OSM    H7T10971   3.030   4.284  10.289 -0.2051  0.5003 -2.0805
  107OSM    C8S10972   2.911   4.390  10.144  0.8634  0.4814  0.2112
  107OSM    H8S10973   2.984   4.473  10.142  2.1340 -0.6009 -0.3766
  107OSM    H8T10974   2.809   4.431  10.134  0.6225 -0.4854 -1.9394
  107OSM    C9S10975   2.934   4.287  10.033  0.5424 -0.6692 -0.4395
  107OSM    H9S10976   2.851   4.212  10.030  0.2458 -0.3776  0.2211
  107OSM    H9T10977   3.035   4.244  10.046  1.2217  1.2013  0.8046
  107OSM   C10S10978   2.944   4.359   9.898 -0.4849 -0.2615  0.1520
  107OSM   H10S10979   3.011   4.446   9.912  0.2752 -0.6165 -1.1644
  107OSM   H10T10980   2.844   4.405   9.882 -0.2272 -0.4415 -2.4137
  107OSM   C11S10981   2.997   4.279   9.778 -0.4912  0.3721 -0.3975
  107OSM   H11S10982   2.913   4.216   9.742 -0.0220 -0.3872 -0.1797
  107OSM   H11T10983   3.091   4.225   9.802 -0.7900  0.6286  1.5808
  107OSM   C12S10984   3.022   4.373   9.659 -0.2066 -0.2086  0.2919
  107OSM   H12S10985   3.113   4.434   9.677  0.3223 -0.8809 -0.0763
  107OSM   H12T10986   2.941   4.449   9.654 -0.4491 -0.1796  2.9194
  107OSM   C13S10987   3.016   4.304   9.527 -0.7265  0.0990  0.6231
  107OSM   H13S10988   2.915   4.260   9.518  0.1052 -2.1477  1.4029
  107OSM   H13T10989   3.096   4.227   9.516  0.1480  1.1317 -0.5080
  107OSM   C14S10990   3.033   4.397   9.400  0.6082  0.4018 -0.7156
  107OSM   H14S10991   3.116   4.471   9.410  1.1502 -0.1921 -0.7370
  107OSM   H14T10992   2.939   4.456   9.394  0.1268 -0.3043 -0.2831
  107OSM   C15S10993   3.066   4.334   9.264  0.1458 -0.0112 -0.6359
  107OSM   H15S10994   3.010   4.238   9.256 -1.1488  0.8100 -1.7914
  107OSM   H15T10995   3.174   4.310   9.264  0.1099 -0.3439  1.3428
  107OSM   C16S10996   3.032   4.420   9.147  0.5324  0.2963  0.1383
  107OSM   H16S10997   3.077   4.373   9.057 -1.2283  1.5023 -1.4508
  107OSM   H16T10998   3.069   4.524   9.157 -0.3973  0.4586  2.6112
  107OSM   C17S10999   2.880   4.408   9.118  0.1538  0.3824 -0.7968
  107OSM   H17S11000   2.834   4.461   9.204  1.0750 -0.1919  0.0687
  107OSM   H17T11001   2.858   4.299   9.112  0.1947  0.4053 -1.4079
  107OSM   C18S11002   2.838   4.472   8.989  0.3886  0.2823 -0.8453
  107OSM   H18S11003   2.882   4.412   8.906  0.8321 -0.6468  0.0306
  107OSM   H18T11004   2.876   4.576   8.993  0.1998  0.3234  0.1651
  107OSM   H18U11005   2.728   4.463   8.971  0.5761  0.3220 -2.1338
  107OSM    C1F11006   3.194   3.970  10.596  0.0838 -0.0194 -0.1004
  107OSM     OF11007   3.143   3.865  10.630 -0.1718  0.8458  0.3050
  107OSM    C2F11008   3.308   3.967  10.497 -0.0449  0.0114 -0.2504
  107OSM    H2F11009   3.354   3.866  10.489  0.7249  0.2732  0.7462
  107OSM    H2G11010   3.389   4.031  10.538  0.6453 -1.1564  0.2664
  107OSM    C3F11011   3.270   4.020  10.356  0.3695  0.3048 -0.2983
  107OSM    H3F11012   3.362   4.028  10.293 -0.0008 -0.5877 -0.9622
  107OSM    H3G11013   3.214   4.116  10.357 -2.6016 -1.3233 -1.0543
  107OSM    C4F11014   3.191   3.919  10.272  0.2929 -0.6038 -0.8370
  107OSM    H4F11015   3.100   3.907  10.334  1.5261 -1.2294  0.9131
  107OSM    H4G11016   3.236   3.817  10.269 -0.1233 -0.8167 -0.0082
  107OSM    C5F11017   3.144   3.968  10.136  0.0002  0.3533  0.0767
  107OSM    H5F11018   3.134   4.079  10.145  0.8923  0.2852  2.7330
  107OSM    H5G11019   3.043   3.926  10.117  0.5830 -1.2315  0.3932
  107OSM    C6F11020   3.230   3.931  10.017  0.1306  0.3884  0.4720
  107OSM    H6F11021   3.252   3.825  10.040 -2.5397 -0.4537 -0.4822
  107OSM    H6G11022   3.322   3.992  10.008  0.6450 -0.2684  1.1020
  107OSM    C7F11023   3.149   3.938   9.883 -0.9289  0.1724 -0.6051
  107OSM    H7F11024   3.173   4.032   9.829 -1.7455  0.8817  0.2256
  107OSM    H7G11025   3.039   3.931   9.899 -1.0522 -0.7075 -1.7467
  107OSM    C8F11026   3.191   3.831   9.783 -0.4674  0.0555  0.5454
  107OSM    H8F11027   3.137   3.830   9.687 -0.8096  0.1408  0.7344
  107OSM    H8G11028   3.173   3.736   9.837  0.2872 -0.1345  0.4673
  107OSM    C9F11029   3.342   3.840   9.755 -0.0081  0.4156  0.5088
  107OSM    H9F11030   3.413   3.836   9.839  1.7387  2.9754 -0.7204
  107OSM   C10F11031   3.404   3.844   9.635  0.1589  0.4124  0.5301
  107OSM   H10F11032   3.513   3.832   9.646 -0.0030  0.8942  4.0627
  107OSM   C11F11033   3.339   3.848   9.494 -0.2830  0.0210 -1.2498
  107OSM   H11F11034   3.385   3.931   9.437  2.5937  0.6888  1.7391
  107OSM   H11G11035   3.229   3.864   9.497 -0.2120  0.8575  2.6894
  107OSM   C12F11036   3.367   3.714   9.418  0.0309  0.3768  0.6240
  107OSM   H12F11037   3.329   3.626   9.473 -0.6035  1.4275  1.9048
  107OSM   H12G11038   3.477   3.696   9.412  0.1177  1.2907 -2.3199
  107OSM   C13F11039   3.314   3.717   9.275  0.9274 -0.3953  0.9229
  107OSM   H13F11040   3.364   3.808   9.233 -2.6779  2.6500  2.6050
  107OSM   H13G11041   3.212   3.759   9.284 -0.2882 -2.9785  0.0786
  107OSM   C14F11042   3.325   3.588   9.192  0.0721 -0.2513 -0.2516
  107OSM   H14F11043   3.258   3.508   9.229  1.1861 -1.7389 -1.2924
  107OSM   H14G11044   3.426   3.550   9.217 -1.2453 -1.9799  2.9452
  107OSM   C15F11045   3.304   3.615   9.042 -0.0875 -0.4544 -0.4026
  107OSM   H15F11046   3.371   3.693   9.000  3.2235 -2.4893  0.7518
  107OSM   H15G11047   3.198   3.648   9.029  0.5418  1.6204 -0.5957
  107OSM   C16F11048   3.331   3.488   8.963 -0.7574 -0.0695  0.0872
  107OSM   H16F11049   3.274   3.409   9.017  0.9267 -1.1431  0.3433
  107OSM   H16G11050   3.440   3.471   8.972 -0.9315 -0.6568  1.3070
  107OSM   C17F11051   3.299   3.510   8.812  0.0120  0.6002 -0.3772
  107OSM   H17F11052   3.332   3.417   8.762  0.4695  0.6260 -0.1281
  107OSM   H17G11053   3.358   3.597   8.774  2.4911 -1.9322 -2.7745
  107OSM   C18F11054   3.147   3.531   8.773  0.1215 -0.3346 -0.5598
  107OSM   H18F11055   3.152   3.545   8.663  0.6496 -0.0096 -0.4999
  107OSM   H18G11056   3.094   3.613   8.824 -2.1699 -1.8386 -0.3974
  107OSM   H18H11057   3.093   3.435   8.784 -1.5121  0.7863  2.4558
  108OSM      N11058   0.159   3.814  10.736  0.1942  0.5338 -0.5165
  108OSM    C1511059   0.136   3.738  10.607  0.0333  0.5578 -0.2199
  108OSM   H15A11060   0.087   3.799  10.532  0.4114  3.0063  1.3862
  108OSM   H15B11061   0.070   3.655  10.627 -0.0691  0.4390 -1.0171
  108OSM   H15C11062   0.223   3.690  10.566 -0.2253  1.2882 -1.6746
  108OSM    C1411063   0.192   3.719  10.852  0.0691  0.1453  0.6969
  108OSM   H14A11064   0.260   3.640  10.825  1.8280  1.6944  0.3429
  108OSM   H14B11065   0.101   3.690  10.901 -0.3821  0.0344 -0.1999
  108OSM   H14C11066   0.250   3.778  10.922  0.2962 -0.5762  1.1229
  108OSM    C1311067   0.266   3.907  10.720 -0.1487  0.3196 -0.4628
  108OSM   H13A11068   0.257   3.983  10.643  0.5361  0.6780 -0.1964
  108OSM   H13B11069   0.354   3.859  10.681  0.2167  1.0779 -0.6065
  108OSM   H13C11070   0.288   3.960  10.811  0.3160  0.3066 -0.5649
  108OSM    C1211071   0.019   3.880  10.780 -0.0660  0.3810  0.4392
  108OSM   H12A11072  -0.007   3.958  10.709  0.7517 -1.0715 -1.5341
  108OSM   H12B11073   0.018   3.926  10.878 -0.5792  0.3459  0.4546
  108OSM    C1111074  -0.106   3.787  10.773  0.9558  0.3198  0.1140
  108OSM   H11A11075  -0.124   3.748  10.670 -0.4033 -1.3052  0.9260
  108OSM   H11B11076  -0.185   3.861  10.801  0.2645 -1.1640  2.2753
  108OSM      P11077  -0.215   3.575  10.883 -0.0708 -0.4647 -0.7324
  108OSM    O1311078  -0.158   3.456  10.953 -0.1857 -0.0942  0.0461
  108OSM    O1411079  -0.338   3.644  10.934  0.4733  0.0598 -0.0851
  108OSM    O1111080  -0.241   3.531  10.731 -0.3944 -0.6578  0.3001
  108OSM    O1211081  -0.100   3.692  10.878 -0.0500 -0.0629  0.3771
  108OSM    C1S11082  -0.140   3.445  10.671 -0.7088 -0.6554 -0.6249
  108OSM    H1S11083  -0.134   3.346  10.720 -1.5467 -1.3644 -1.8955
  108OSM    H1T11084  -0.042   3.497  10.682 -1.6728  0.9338  1.2694
  108OSM     NF11085  -0.082   3.306  10.484  0.1518 -0.9135 -0.1992
  108OSM    HNF11086   0.001   3.340  10.440 -0.6103  2.0477  0.4319
  108OSM    C2S11087  -0.176   3.410  10.528 -0.0868 -0.2532 -0.2039
  108OSM    H2S11088  -0.279   3.369  10.519  0.3874 -1.0639 -2.9856
  108OSM    C3S11089  -0.174   3.540  10.436 -0.6827  0.1343  0.9887
  108OSM    H3S11090  -0.080   3.598  10.443 -0.5336  0.3528 -1.6838
  108OSM     O311091  -0.263   3.638  10.488  0.5191 -0.0906  0.2874
  108OSM    HO311092  -0.275   3.608  10.579  1.8698 -2.9451 -0.3466
  108OSM    C4S11093  -0.183   3.510  10.290  0.4182  0.0968 -0.1083
  108OSM    H4S11094  -0.273   3.450  10.269 -1.1538  1.3536  2.4031
  108OSM    C5S11095  -0.088   3.532  10.201  0.4697 -0.5651  0.2171
  108OSM    H5S11096   0.003   3.587  10.228 -0.2060  0.3316  0.7178
  108OSM    C6S11097  -0.104   3.509  10.049  0.3855 -0.5877 -0.4419
  108OSM    H6S11098  -0.202   3.460  10.039 -0.7547  1.5979 -0.6696
  108OSM    H6T11099  -0.024   3.442  10.012  0.1833 -1.4790  0.6823
  108OSM    C7S11100  -0.112   3.643   9.974 -0.5917  0.0393  0.2671
  108OSM    H7S11101  -0.028   3.709  10.006  0.1472 -0.4106 -0.6907
  108OSM    H7T11102  -0.203   3.698  10.005 -0.0357  1.2914 -0.2315
  108OSM    C8S11103  -0.129   3.630   9.823 -0.2615  0.1962 -0.0333
  108OSM    H8S11104  -0.224   3.574   9.811  0.1389 -0.2120 -1.4444
  108OSM    H8T11105  -0.052   3.564   9.777  1.4836  0.9120  1.7432
  108OSM    C9S11106  -0.139   3.765   9.754 -0.3143 -0.5975  0.3229
  108OSM    H9S11107  -0.037   3.809   9.755  0.0804 -1.4984  0.0217
  108OSM    H9T11108  -0.204   3.833   9.813  1.3175  2.8743 -1.5864
  108OSM   C10S11109  -0.189   3.764   9.617  0.1742  0.3934 -0.1027
  108OSM   H10S11110  -0.228   3.862   9.582 -2.2069 -0.5235 -0.1535
  108OSM   H10T11111  -0.278   3.698   9.621 -0.6724  1.5325  0.7846
  108OSM   C11S11112  -0.090   3.714   9.514 -0.2055  0.2733  0.3052
  108OSM   H11S11113  -0.050   3.613   9.538 -0.0586 -0.8407 -3.7612
  108OSM   H11T11114   0.002   3.777   9.510  0.7902 -1.1319  0.3612
  108OSM   C12S11115  -0.145   3.708   9.369 -0.4038 -0.2455 -0.6565
  108OSM   H12S11116  -0.175   3.805   9.325  1.2442 -0.0046 -1.3311
  108OSM   H12T11117  -0.240   3.650   9.369 -0.9764  0.6043 -3.1291
  108OSM   C13S11118  -0.041   3.657   9.265  0.6438 -0.0469 -0.9546
  108OSM   H13S11119  -0.041   3.548   9.288 -3.2997 -0.4484 -2.1032
  108OSM   H13T11120   0.049   3.712   9.300 -0.6970  1.3388  0.5092
  108OSM   C14S11121  -0.084   3.669   9.121 -0.7700  0.4065 -0.8837
  108OSM   H14S11122  -0.193   3.649   9.125 -0.4133 -1.9289 -1.3506
  108OSM   H14T11123  -0.032   3.582   9.075 -1.7690  0.1240 -1.5153
  108OSM   C15S11124  -0.050   3.802   9.054  0.1124 -0.6172  0.1214
  108OSM   H15S11125   0.038   3.851   9.100  0.9476 -1.1252 -0.8769
  108OSM   H15T11126  -0.127   3.880   9.069 -1.4893 -1.7759 -1.6446
  108OSM   C16S11127  -0.030   3.789   8.899  0.2721 -0.6137 -0.0332
  108OSM   H16S11128  -0.123   3.745   8.855 -0.7169  2.5238 -1.3533
  108OSM   H16T11129   0.049   3.712   8.891  0.2436 -0.5948 -0.5906
  108OSM   C17S11130   0.024   3.915   8.832  0.7533  0.2097 -0.0185
  108OSM   H17S11131   0.115   3.954   8.883 -0.7739  2.5281  1.0805
  108OSM   H17T11132  -0.057   3.988   8.851  0.8649 -0.0201  1.3991
  108OSM   C18S11133   0.042   3.887   8.689  0.2440 -0.1415 -0.4258
  108OSM   H18S11134  -0.045   3.843   8.636  1.8167 -1.0768 -2.3976
  108OSM   H18T11135   0.117   3.807   8.668  0.0640 -0.3201 -0.3936
  108OSM   H18U11136   0.084   3.977   8.638 -0.5972  0.6748  0.2927
  108OSM    C1F11137  -0.103   3.176  10.520 -0.8269 -0.0822 -0.1905
  108OSM     OF11138  -0.216   3.139  10.551 -0.3143  0.8816 -0.3549
  108OSM    C2F11139   0.016   3.091  10.527 -0.2400  1.1998  0.2126
  108OSM    H2F11140  -0.028   2.990  10.513  1.6415  0.6081 -2.0388
  108OSM    H2G11141   0.068   3.100  10.625  1.7777 -1.1333 -0.5362
  108OSM    C3F11142   0.120   3.110  10.417  0.3742  0.4944 -0.7773
  108OSM    H3F11143   0.169   3.208  10.432  1.1939 -0.0166 -0.0575
  108OSM    H3G11144   0.070   3.113  10.317 -3.8177 -0.6036  1.0742
  108OSM    C4F11145   0.234   3.005  10.424  0.3608  0.0761  0.1551
  108OSM    H4F11146   0.192   2.904  10.407 -1.0287  0.6428  0.0404
  108OSM    H4G11147   0.284   2.997  10.523  1.4541 -0.6569 -0.4427
  108OSM    C5F11148   0.356   3.022  10.325 -0.2756 -0.1802  0.2406
  108OSM    H5F11149   0.431   2.946  10.356  0.0744 -0.3248 -0.9360
  108OSM    H5G11150   0.410   3.117  10.346 -0.0410  0.0492 -1.2776
  108OSM    C6F11151   0.339   3.023  10.174 -0.2436 -0.1045  0.2240
  108OSM    H6F11152   0.278   3.112  10.148  0.4015  0.2815  0.0121
  108OSM    H6G11153   0.292   2.927  10.145  1.1115 -0.8068  0.2519
  108OSM    C7F11154   0.471   3.002  10.106 -0.1570  0.5149  0.3112
  108OSM    H7F11155   0.533   2.933  10.167 -0.6766  0.6001  0.9414
  108OSM    H7G11156   0.533   3.094  10.099 -1.0888  1.0539 -1.7679
  108OSM    C8F11157   0.447   2.950   9.962 -1.2802 -0.5492  0.3931
  108OSM    H8F11158   0.548   2.957   9.916 -0.6784 -1.4785  1.5183
  108OSM    H8G11159   0.385   3.023   9.906  0.8523  0.6085 -0.5693
  108OSM    C9F11160   0.418   2.806   9.954  0.4061  0.4891  0.1176
  108OSM    H9F11161   0.456   2.750  10.042 -1.5927 -1.9249 -0.4324
  108OSM   C10F11162   0.326   2.739   9.874 -0.0830 -0.4397 -0.0247
  108OSM   H10F11163   0.313   2.630   9.882  1.3356 -0.5959  0.3313
  108OSM   C11F11164   0.234   2.814   9.783 -1.0084  0.7012  0.2093
  108OSM   H11F11165   0.181   2.895   9.837 -2.2466  0.4511 -0.5728
  108OSM   H11G11166   0.154   2.739   9.767  2.9461 -4.4300  1.5814
  108OSM   C12F11167   0.288   2.859   9.648  0.3093 -1.0917 -0.1582
  108OSM   H12F11168   0.376   2.926   9.654 -0.3682 -0.1680 -0.2523
  108OSM   H12G11169   0.211   2.921   9.597  2.7809  2.5063  0.1345
  108OSM   C13F11170   0.331   2.755   9.550 -0.0994  0.4242 -0.2879
  108OSM   H13F11171   0.253   2.684   9.517  1.0164 -0.6183 -0.7208
  108OSM   H13G11172   0.411   2.701   9.605 -1.4903 -0.5808  0.8354
  108OSM   C14F11173   0.395   2.806   9.416  0.0664 -0.2959 -0.2979
  108OSM   H14F11174   0.417   2.725   9.343 -0.5681  1.1778 -2.2073
  108OSM   H14G11175   0.491   2.861   9.430 -0.6697  0.9514 -0.0283
  108OSM   C15F11176   0.303   2.912   9.345 -0.4326 -0.0089  0.7044
  108OSM   H15F11177   0.301   3.006   9.403 -1.4543 -0.5186  1.5226
  108OSM   H15G11178   0.197   2.883   9.331 -1.3242  2.8011  1.1809
  108OSM   C16F11179   0.359   2.949   9.203 -0.3271 -0.5163 -0.8263
  108OSM   H16F11180   0.387   2.866   9.134 -0.7218 -1.8307  0.5563
  108OSM   H16G11181   0.456   3.004   9.214 -1.7809  2.1528 -0.5059
  108OSM   C17F11182   0.276   3.048   9.119  0.3580  0.1751  0.1620
  108OSM   H17F11183   0.219   3.128   9.172 -2.0619 -1.5283  0.2816
  108OSM   H17G11184   0.197   2.989   9.068 -0.0187  2.5142 -2.1382
  108OSM   C18F11185   0.359   3.116   9.014  0.4300  0.8958 -0.6988
  108OSM   H18F11186   0.454   3.154   9.058  0.7620  0.7640 -1.3004
  108OSM   H18G11187   0.306   3.199   8.962 -0.5939  0.8418  0.2039
  108OSM   H18H11188   0.380   3.044   8.932  0.0753  0.0298 -0.0392
  109OSM      N11189   6.637   4.573  10.884 -0.1633 -0.4796  0.2895
  109OSM    C1511190   6.540   4.635  10.787 -0.1085 -0.4533  0.1153
  109OSM   H15A11191   6.480   4.563  10.734 -0.8147  1.4525 -1.7999
  109OSM   H15B11192   6.587   4.698  10.713 -0.2520  1.1952  1.3870
  109OSM   H15C11193   6.480   4.708  10.839  2.5625  1.6976  0.4133
  109OSM    C1411194   6.660   4.687  10.991  0.5957  0.5854  0.9323
  109OSM   H14A11195   6.576   4.697  11.058  0.1497  0.1770  0.4513
  109OSM   H14B11196   6.668   4.782  10.941  1.0216  1.6271  2.9033
  109OSM   H14C11197   6.748   4.683  11.053  0.2341  2.6872  1.6607
  109OSM    C1311198   6.586   4.448  10.950  0.7571  0.4403  0.1912
  109OSM   H13A11199   6.644   4.425  11.038 -0.6970 -1.9595  0.6057
  109OSM   H13B11200   6.580   4.368  10.877  0.1152  0.4574  0.2209
  109OSM   H13C11201   6.488   4.458  10.993  0.3267  1.2204 -0.9144
  109OSM    C1211202   6.764   4.548  10.794  0.2725 -0.3314 -0.1449
  109OSM   H12A11203   6.777   4.636  10.731  0.0104 -0.0551  0.1812
  109OSM   H12B11204   6.729   4.468  10.730  0.8596 -0.7818  0.0884
  109OSM    C1111205   6.900   4.505  10.852  1.0462 -0.2070 -0.4749
  109OSM   H11A11206   6.886   4.430  10.933 -0.5684 -0.8758 -1.3362
  109OSM   H11B11207   6.949   4.595  10.895 -2.1477  0.2890  2.5496
  109OSM      P11208   6.953   4.290  10.702  0.3722  0.0960 -0.2889
  109OSM    O1311209   7.044   4.277  10.587 -0.5103  0.5644 -0.1200
  109OSM    O1411210   6.977   4.195  10.820 -0.0503 -0.1963  0.8014
  109OSM    O1111211   6.804   4.276  10.653  0.0875  0.1897 -0.3965
  109OSM    O1211212   6.963   4.447  10.740 -0.7748  0.3244  0.1955
  109OSM    C1S11213   6.750   4.342  10.535  0.9172  0.1278 -0.4764
  109OSM    H1S11214   6.829   4.403  10.486  2.9943 -1.4459  0.7126
  109OSM    H1T11215   6.655   4.392  10.563 -0.3391 -2.7893  0.8828
  109OSM     NF11216   6.657   4.337  10.299 -0.6465 -0.4991 -0.1588
  109OSM    HNF11217   6.559   4.357  10.296 -0.5787  0.1848  1.2407
  109OSM    C2S11218   6.706   4.249  10.410  0.1471 -0.5675 -0.6840
  109OSM    H2S11219   6.799   4.195  10.380  0.7423 -0.5517  1.0090
  109OSM    C3S11220   6.601   4.146  10.468 -0.3087 -0.7353  0.5811
  109OSM    H3S11221   6.505   4.198  10.485 -0.1946 -1.0421  2.3612
  109OSM     O311222   6.639   4.078  10.587  0.2703  0.7958 -0.0080
  109OSM    HO311223   6.720   4.122  10.614  0.1967  0.8636  0.1049
  109OSM    C4S11224   6.584   4.044  10.360 -0.1395 -0.1481  0.4889
  109OSM    H4S11225   6.669   3.975  10.353 -0.8949 -1.0662  0.1499
  109OSM    C5S11226   6.467   4.017  10.295  0.1725 -0.0607  0.7377
  109OSM    H5S11227   6.377   4.079  10.308  0.6232  0.7810 -0.0177
  109OSM    C6S11228   6.442   3.906  10.194  0.1892 -0.3423 -0.0343
  109OSM    H6S11229   6.377   3.824  10.233 -0.2525  0.3080  0.6247
  109OSM    H6T11230   6.537   3.848  10.186  0.5195  0.2737 -0.6812
  109OSM    C7S11231   6.406   3.960  10.059 -0.7630  0.4251  0.1961
  109OSM    H7S11232   6.316   4.025  10.062 -1.2223 -0.0976 -1.2964
  109OSM    H7T11233   6.370   3.886   9.984  1.4149 -0.0638 -0.4351
  109OSM    C8S11234   6.526   4.031   9.997 -0.5910 -0.7847  0.9160
  109OSM    H8S11235   6.620   3.974   9.986  0.1677  0.1217  2.3454
  109OSM    H8T11236   6.546   4.110  10.072 -0.3818  0.1903 -0.1486
  109OSM    C9S11237   6.494   4.093   9.854  0.1350  0.1083  0.5787
  109OSM    H9S11238   6.411   4.166   9.865 -1.1957 -1.3206  0.3315
  109OSM    H9T11239   6.447   4.015   9.791 -2.3456  0.8859  1.3769
  109OSM   C10S11240   6.611   4.139   9.766  0.6772 -0.3390 -0.5211
  109OSM   H10S11241   6.672   4.048   9.750 -1.5577 -2.1217  0.5388
  109OSM   H10T11242   6.681   4.218   9.801  0.1941  1.0843 -2.5524
  109OSM   C11S11243   6.563   4.183   9.626  0.0879  0.8347  0.2380
  109OSM   H11S11244   6.552   4.293   9.626  0.1824  0.8528 -0.6475
  109OSM   H11T11245   6.464   4.138   9.600  0.0637  0.3277  1.1542
  109OSM   C12S11246   6.660   4.151   9.512 -0.9063  0.3598 -0.0267
  109OSM   H12S11247   6.669   4.041   9.500 -0.7026  0.5266 -1.6348
  109OSM   H12T11248   6.754   4.197   9.550 -0.8937 -2.1115  3.3591
  109OSM   C13S11249   6.618   4.204   9.380 -0.1007 -0.3049  0.5829
  109OSM   H13S11250   6.705   4.218   9.311 -2.0947  0.5387 -1.9180
  109OSM   H13T11251   6.579   4.307   9.391  3.0391  0.9475  1.0717
  109OSM   C14S11252   6.502   4.136   9.308 -0.3718 -0.3093 -0.9053
  109OSM   H14S11253   6.426   4.114   9.386 -0.0692 -3.6608 -1.4322
  109OSM   H14T11254   6.529   4.031   9.285  0.3110 -0.6967  1.4364
  109OSM   C15S11255   6.445   4.216   9.195  0.6049  0.1908  0.5063
  109OSM   H15S11256   6.447   4.323   9.225 -2.2033  0.3032  0.5551
  109OSM   H15T11257   6.342   4.194   9.160  1.2933 -1.4775 -0.5746
  109OSM   C16S11258   6.542   4.206   9.073 -0.0880  0.5959 -0.0809
  109OSM   H16S11259   6.564   4.103   9.037  2.0841  1.5062 -1.6466
  109OSM   H16T11260   6.641   4.246   9.105  0.5347 -1.3514  0.5598
  109OSM   C17S11261   6.486   4.287   8.951 -0.6324 -0.7475 -0.0257
  109OSM   H17S11262   6.571   4.289   8.880 -1.1702 -1.0208 -0.6965
  109OSM   H17T11263   6.462   4.387   8.993  1.4471 -1.0666  2.1450
  109OSM   C18S11264   6.356   4.227   8.884 -1.4479  0.2732 -0.5428
  109OSM   H18S11265   6.260   4.240   8.937 -1.9149 -0.2714 -1.2314
  109OSM   H18T11266   6.367   4.117   8.875  2.3194  0.1876  2.5927
  109OSM   H18U11267   6.340   4.273   8.784 -1.1766 -2.1807 -1.7887
  109OSM    C1F11268   6.746   4.393  10.215  0.3273 -0.1591  0.3570
  109OSM     OF11269   6.862   4.399  10.252  0.7945  0.2354 -0.1439
  109OSM    C2F11270   6.694   4.452  10.088  0.3415 -0.2272  0.9303
  109OSM    H2F11271   6.605   4.512  10.116 -0.7213 -1.8818  1.2452
  109OSM    H2G11272   6.661   4.374  10.015  0.9731 -0.0079  0.4017
  109OSM    C3F11273   6.794   4.560  10.028  0.1394 -0.3367  0.2564
  109OSM    H3F11274   6.872   4.503   9.974 -1.2307  0.5943 -2.9540
  109OSM    H3G11275   6.830   4.615  10.117  0.2620 -1.6071  1.0117
  109OSM    C4F11276   6.720   4.645   9.928 -0.0023 -0.1649 -0.8679
  109OSM    H4F11277   6.792   4.719   9.888  1.8682 -2.2629 -1.5894
  109OSM    H4G11278   6.646   4.703   9.987 -1.0474 -1.0154 -1.3170
  109OSM    C5F11279   6.659   4.566   9.814  0.1376  0.7829 -0.0177
  109OSM    H5F11280   6.591   4.629   9.754  0.1794  0.2525 -0.6343
  109OSM    H5G11281   6.592   4.485   9.850 -0.4126  1.5676  0.7568
  109OSM    C6F11282   6.754   4.506   9.713  0.4826 -0.2658 -0.0058
  109OSM    H6F11283   6.689   4.445   9.647 -0.5700  0.9639 -0.1276
  109OSM    H6G11284   6.836   4.444   9.756  1.0334 -0.5952 -1.4784
  109OSM    C7F11285   6.818   4.612   9.621  0.6163  0.4051  0.2529
  109OSM    H7F11286   6.874   4.688   9.681 -0.1934 -0.4942  2.2415
  109OSM    H7G11287   6.739   4.668   9.567  1.1374 -2.0830 -3.4178
  109OSM    C8F11288   6.901   4.547   9.510 -0.6484  0.3724  0.1929
  109OSM    H8F11289   6.964   4.462   9.544 -1.1574 -0.5613 -1.1139
  109OSM    H8G11290   6.971   4.624   9.473  0.6010 -1.8162 -2.3587
  109OSM    C9F11291   6.812   4.498   9.398 -0.0586  0.8862 -0.2825
  109OSM    H9F11292   6.733   4.428   9.431 -0.2761  0.8679 -0.8408
  109OSM   C10F11293   6.809   4.540   9.268 -0.3357  0.5353 -1.0852
  109OSM   H10F11294   6.746   4.496   9.189 -2.4509  3.4570 -1.2010
  109OSM   C11F11295   6.906   4.646   9.214  0.2505 -0.5043 -0.1982
  109OSM   H11F11296   6.951   4.719   9.285  2.3697 -1.6377 -0.3105
  109OSM   H11G11297   6.853   4.707   9.137 -0.8056  0.5516  1.2880
  109OSM   C12F11298   7.025   4.575   9.149 -0.6877 -0.0583 -0.6103
  109OSM   H12F11299   7.075   4.512   9.225 -0.8937  0.7358  0.1924
  109OSM   H12G11300   7.109   4.645   9.130 -0.3756 -0.4150 -0.5466
  109OSM   C13F11301   6.986   4.513   9.013  0.7942 -0.1516 -1.2908
  109OSM   H13F11302   6.932   4.589   8.953  0.2676  0.4437 -0.0991
  109OSM   H13G11303   6.916   4.429   9.034  1.5825 -0.2958  1.1603
  109OSM   C14F11304   7.108   4.454   8.933  0.6095 -0.3489 -0.3718
  109OSM   H14F11305   7.067   4.385   8.856  0.8288  1.2176 -1.9554
  109OSM   H14G11306   7.170   4.389   8.997 -1.0142 -0.9870  0.6193
  109OSM   C15F11307   7.193   4.552   8.860 -0.3234  0.5970 -0.1282
  109OSM   H15F11308   7.262   4.493   8.796 -0.7733 -0.1319  0.0356
  109OSM   H15G11309   7.258   4.603   8.935 -0.9933 -0.3830  1.1680
  109OSM   C16F11310   7.123   4.656   8.772  0.0423  0.3800  0.2651
  109OSM   H16F11311   7.067   4.714   8.848  0.5880 -0.6069  1.4665
  109OSM   H16G11312   7.051   4.599   8.710  1.3093 -0.8540 -0.1180
  109OSM   C17F11313   7.219   4.741   8.689 -0.1901 -0.5652 -0.2469
  109OSM   H17F11314   7.311   4.757   8.748 -0.8619 -2.0497  1.3114
  109OSM   H17G11315   7.189   4.847   8.677  0.3230 -0.4044 -0.1346
  109OSM   C18F11316   7.247   4.696   8.545  0.1548  0.3616 -0.5250
  109OSM   H18F11317   7.258   4.785   8.479  0.3141  1.0160  0.3635
  109OSM   H18G11318   7.154   4.642   8.517 -0.4401  1.2485 -0.3144
  109OSM   H18H11319   7.319   4.612   8.541 -2.1383 -1.9062  1.8679
  110OSM      N11320   1.287   2.151  11.066  0.3048 -0.2324 -0.2389
  110OSM    C1511321   1.292   2.001  11.069 -0.0299 -0.4650 -0.0822
  110OSM   H15A11322   1.385   1.958  11.035 -1.6774 -2.3731 -2.4653
  110OSM   H15B11323   1.209   1.957  11.017  0.6978  0.0946 -1.7852
  110OSM   H15C11324   1.286   1.957  11.167  1.1154  1.0975  0.7529
  110OSM    C1411325   1.170   2.198  11.144  0.0500 -0.2757  0.0976
  110OSM   H14A11326   1.076   2.162  11.104 -0.7259  1.3376  0.3732
  110OSM   H14B11327   1.150   2.302  11.125  0.4430 -0.5057 -1.8227
  110OSM   H14C11328   1.194   2.180  11.248  0.3704  0.2560  0.1183
  110OSM    C1311329   1.412   2.193  11.139 -0.8669 -0.4190 -0.0716
  110OSM   H13A11330   1.406   2.170  11.244  0.1438  0.1793  0.1368
  110OSM   H13B11331   1.427   2.300  11.150  1.9305 -0.9543  2.8625
  110OSM   H13C11332   1.499   2.142  11.100 -1.3214 -2.8779  1.9132
  110OSM    C1211333   1.288   2.200  10.919  0.4917  0.3289 -0.6903
  110OSM   H12A11334   1.378   2.168  10.869  0.5558  0.6608 -0.7910
  110OSM   H12B11335   1.271   2.307  10.921 -1.6148  0.0177  0.7090
  110OSM    C1111336   1.164   2.148  10.841  0.6798  0.1884 -0.8916
  110OSM   H11A11337   1.159   2.038  10.853 -0.9369  0.2417 -0.8230
  110OSM   H11B11338   1.181   2.174  10.735  0.6746  1.0142 -0.6979
  110OSM      P11339   0.969   2.317  10.799 -0.0184  0.0040  0.4200
  110OSM    O1311340   0.865   2.378  10.876  0.3813 -0.2565  0.2892
  110OSM    O1411341   1.079   2.397  10.743  0.0848  0.0481  0.0469
  110OSM    O1111342   0.894   2.233  10.685  0.7042  0.2337 -0.1461
  110OSM    O1211343   1.036   2.201  10.888 -0.2443  0.2552  0.4067
  110OSM    C1S11344   0.791   2.276  10.585 -0.0398 -0.6854 -0.3346
  110OSM    H1S11345   0.808   2.373  10.534 -0.3484 -0.3791  0.1274
  110OSM    H1T11346   0.689   2.286  10.627  0.3066 -0.1149  0.4076
  110OSM     NF11347   0.676   2.188  10.373 -0.2017  0.6119  0.2313
  110OSM    HNF11348   0.590   2.137  10.375  0.4539 -0.4978  0.9701
  110OSM    C2S11349   0.776   2.161  10.477  0.8594  0.2653  0.5105
  110OSM    H2S11350   0.874   2.142  10.428  1.0216  0.7932  0.6263
  110OSM    C3S11351   0.736   2.018  10.547 -0.9448 -0.0996 -0.4824
  110OSM    H3S11352   0.633   2.024  10.587 -1.6003 -1.4025 -1.8584
  110OSM     O311353   0.818   1.993  10.661 -0.5217  0.5433  0.0824
  110OSM    HO311354   0.857   2.079  10.677  1.1830 -0.5183  2.3046
  110OSM    C4S11355   0.730   1.908  10.455  0.2831 -0.1162 -0.2737
  110OSM    H4S11356   0.629   1.895  10.412 -0.5441 -1.0896  1.7902
  110OSM    C5S11357   0.829   1.827  10.415  0.2329  0.1397  0.5598
  110OSM    H5S11358   0.930   1.849  10.452  1.4950 -1.2711 -1.7532
  110OSM    C6S11359   0.829   1.720  10.308 -0.2467 -0.2256 -0.5039
  110OSM    H6S11360   0.722   1.695  10.287  0.0368 -0.0219 -2.4331
  110OSM    H6T11361   0.871   1.625  10.348  0.5391  0.0688 -0.6234
  110OSM    C7S11362   0.911   1.755  10.177 -0.0987  0.0932  0.5102
  110OSM    H7S11363   0.910   1.660  10.119  0.2843 -0.8634  2.0050
  110OSM    H7T11364   1.013   1.764  10.219 -0.0346 -3.3184  1.3461
  110OSM    C8S11365   0.849   1.871  10.096 -0.5897 -0.2093  0.0247
  110OSM    H8S11366   0.838   1.963  10.157 -1.1379 -0.5375  0.4352
  110OSM    H8T11367   0.748   1.825  10.085 -0.6873 -1.2205  3.7898
  110OSM    C9S11368   0.916   1.909   9.966  0.3881  0.3787 -0.3509
  110OSM    H9S11369   0.932   1.820   9.902 -2.9681 -0.6901  0.0996
  110OSM    H9T11370   1.011   1.964   9.985  0.7842  0.0203 -1.2702
  110OSM   C10S11371   0.831   2.006   9.877  0.4724 -0.2274  0.6122
  110OSM   H10S11372   0.788   2.095   9.928 -1.0560 -0.2288 -0.5939
  110OSM   H10T11373   0.747   1.946   9.837 -0.1651 -0.1214  1.7638
  110OSM   C11S11374   0.901   2.072   9.756 -0.1656  0.6774  0.4610
  110OSM   H11S11375   0.982   2.002   9.725  0.2609  1.5344 -0.3873
  110OSM   H11T11376   0.951   2.165   9.790 -0.6387  0.9186  0.5015
  110OSM   C12S11377   0.816   2.111   9.638  0.0568 -0.2016  0.4102
  110OSM   H12S11378   0.746   2.189   9.675  0.8861  2.0921 -2.4864
  110OSM   H12T11379   0.753   2.028   9.599  1.5177 -0.7234 -0.9693
  110OSM   C13S11380   0.888   2.183   9.529 -0.1234  0.3939  0.0829
  110OSM   H13S11381   0.958   2.257   9.573  0.2821  0.3340 -0.4610
  110OSM   H13T11382   0.830   2.248   9.459  2.2828 -0.4399 -2.8827
  110OSM   C14S11383   0.975   2.093   9.427  0.1072  0.0162 -0.2992
  110OSM   H14S11384   0.981   1.994   9.478  0.7183 -0.1790 -0.7319
  110OSM   H14T11385   1.077   2.136   9.423  0.1422  0.0124  0.4285
  110OSM   C15S11386   0.908   2.076   9.290  0.4215 -0.2718  0.4904
  110OSM   H15S11387   0.957   2.024   9.205 -0.4127 -1.6294  0.8098
  110OSM   H15T11388   0.889   2.177   9.248 -0.1633 -0.9951 -1.0307
  110OSM   C16S11389   0.775   1.998   9.303  0.3419  0.0108  0.5165
  110OSM   H16S11390   0.716   2.056   9.377 -0.2601 -1.2714  1.0683
  110OSM   H16T11391   0.783   1.892   9.335  0.8070 -0.3297 -0.6774
  110OSM   C17S11392   0.704   2.007   9.171 -0.1741 -0.3913  0.3258
  110OSM   H17S11393   0.702   2.105   9.120  1.1902 -1.2957 -1.5793
  110OSM   H17T11394   0.602   1.971   9.200  0.2182 -3.2957 -1.4911
  110OSM   C18S11395   0.757   1.900   9.073 -0.1238  0.0333 -0.4491
  110OSM   H18S11396   0.802   1.809   9.118 -0.3356  0.8671  1.5228
  110OSM   H18T11397   0.839   1.955   9.021  1.4608 -0.8617  0.9990
  110OSM   H18U11398   0.677   1.866   9.004  0.5069  0.7885 -1.5962
  110OSM    C1F11399   0.685   2.299  10.299  0.7140 -0.2735  0.2829
  110OSM     OF11400   0.785   2.365  10.287 -0.4264  0.5431 -0.0185
  110OSM    C2F11401   0.564   2.345  10.223  0.2948  0.3853  0.5243
  110OSM    H2F11402   0.562   2.456  10.222  2.4387  0.5054  2.4023
  110OSM    H2G11403   0.464   2.324  10.269  0.5114 -1.6257  0.1614
  110OSM    C3F11404   0.566   2.279  10.079  0.6925  0.1577  0.2877
  110OSM    H3F11405   0.554   2.169  10.088 -0.4534  0.3904  2.3589
  110OSM    H3G11406   0.658   2.311  10.027  1.3882 -0.3800  1.1364
  110OSM    C4F11407   0.453   2.334   9.997  0.6781 -0.0982 -0.0473
  110OSM    H4F11408   0.464   2.443   9.978  0.1843 -0.1185 -0.4704
  110OSM    H4G11409   0.362   2.321  10.060 -1.9177  0.3794 -3.4096
  110OSM    C5F11410   0.427   2.255   9.871 -0.0214  0.1956  0.2373
  110OSM    H5F11411   0.319   2.262   9.844  0.4439  1.8024 -1.4254
  110OSM    H5G11412   0.464   2.151   9.881 -1.1957 -0.4699 -1.7962
  110OSM    C6F11413   0.498   2.323   9.751  0.1309 -0.2689  0.0426
  110OSM    H6F11414   0.609   2.324   9.757  0.3128 -1.5554 -2.0042
  110OSM    H6G11415   0.478   2.432   9.755  3.2340  0.3634  1.5103
  110OSM    C7F11416   0.467   2.252   9.624  0.0074  0.0392  0.1951
  110OSM    H7F11417   0.513   2.151   9.620  0.5909  0.3438 -1.7460
  110OSM    H7G11418   0.518   2.308   9.543 -0.3093 -0.8460 -0.6288
  110OSM    C8F11419   0.316   2.241   9.593  0.4815 -1.1153 -0.1095
  110OSM    H8F11420   0.266   2.337   9.619  0.9825 -0.1463 -2.4667
  110OSM    H8G11421   0.264   2.164   9.655  1.9480  0.2865  3.0891
  110OSM    C9F11422   0.286   2.200   9.455  0.3665  0.0796 -0.0724
  110OSM    H9F11423   0.253   2.096   9.439 -0.5588  0.2068  0.9230
  110OSM   C10F11424   0.285   2.278   9.342  1.2826 -0.6166 -0.7205
  110OSM   H10F11425   0.256   2.237   9.244  0.5738 -1.2631 -0.2501
  110OSM   C11F11426   0.323   2.423   9.337 -0.7908 -0.4239 -0.0153
  110OSM   H11F11427   0.398   2.455   9.413 -1.8090  1.2623  0.3342
  110OSM   H11G11428   0.231   2.485   9.341 -1.1739 -0.9752 -0.1507
  110OSM   C12F11429   0.389   2.452   9.202 -0.7216  0.2584  0.5101
  110OSM   H12F11430   0.430   2.554   9.216 -0.7674  0.7748 -2.3637
  110OSM   H12G11431   0.318   2.458   9.117  1.0245  1.9131 -0.9381
  110OSM   C13F11432   0.501   2.356   9.162  0.3166 -0.5558 -0.1640
  110OSM   H13F11433   0.454   2.258   9.143 -0.1724 -0.4948  0.7054
  110OSM   H13G11434   0.568   2.359   9.250  0.0967  2.9409  0.0418
  110OSM   C14F11435   0.568   2.389   9.029 -1.0898 -0.5198 -0.0033
  110OSM   H14F11436   0.674   2.355   9.032 -1.1240 -0.8983 -1.7052
  110OSM   H14G11437   0.573   2.500   9.028 -2.5137 -0.4303  0.6019
  110OSM   C15F11438   0.497   2.331   8.909 -0.2757 -0.1888 -0.7305
  110OSM   H15F11439   0.392   2.314   8.943  0.5734 -3.1491  0.7608
  110OSM   H15G11440   0.536   2.233   8.875  1.7780 -0.2227  1.5016
  110OSM   C16F11441   0.518   2.435   8.796 -0.0374 -0.1375  0.1758
  110OSM   H16F11442   0.626   2.459   8.786 -0.3656  0.5642 -2.3455
  110OSM   H16G11443   0.467   2.527   8.830  1.4278  0.7372  0.0629
  110OSM   C17F11444   0.466   2.398   8.658 -0.2231 -0.6605 -0.6788
  110OSM   H17F11445   0.357   2.381   8.663 -0.4513  0.3329 -1.8101
  110OSM   H17G11446   0.511   2.301   8.628 -0.5686 -1.2793  0.7448
  110OSM   C18F11447   0.488   2.508   8.547  0.3760  0.5524 -0.0066
  110OSM   H18F11448   0.450   2.611   8.569 -2.7646 -0.5389  0.1422
  110OSM   H18G11449   0.428   2.481   8.458  0.6168  3.3692 -1.1333
  110OSM   H18H11450   0.593   2.517   8.511  0.8390 -0.2278  1.0823
  111OSM      N11451   2.711   5.939  10.760 -0.5237  0.5238 -0.1376
  111OSM    C1511452   2.858   5.923  10.769  0.2018  0.4561  0.0534
  111OSM   H15A11453   2.903   6.013  10.808  0.6782 -0.3711  1.5132
  111OSM   H15B11454   2.907   5.931  10.673 -0.7272  3.6848 -0.2572
  111OSM   H15C11455   2.894   5.837  10.825 -0.4468  0.8899  1.1756
  111OSM    C1411456   2.659   5.956  10.900 -0.0220  0.2764 -0.0758
  111OSM   H14A11457   2.724   6.027  10.950 -0.0457 -0.3427  0.8572
  111OSM   H14B11458   2.670   5.861  10.950  1.2408  0.2392 -0.3888
  111OSM   H14C11459   2.559   5.997  10.899  0.0775  0.5036 -0.7135
  111OSM    C1311460   2.684   6.071  10.692 -0.7309  0.1594 -0.0450
  111OSM   H13A11461   2.584   6.087  10.656 -0.0995  2.6710 -0.9126
  111OSM   H13B11462   2.750   6.086  10.608  1.2103  0.0276  1.3921
  111OSM   H13C11463   2.697   6.163  10.747  1.9984  0.6783 -1.3599
  111OSM    C1211464   2.647   5.813  10.694 -0.5295 -0.3361  0.1238
  111OSM   H12A11465   2.685   5.799  10.594 -0.2551 -0.9723  0.3087
  111OSM   H12B11466   2.540   5.825  10.684 -0.4922  1.8394  1.6043
  111OSM    C1111467   2.663   5.686  10.774 -0.5176  0.3397  0.0141
  111OSM   H11A11468   2.648   5.697  10.884  1.8902 -0.2505  0.4624
  111OSM   H11B11469   2.764   5.640  10.765 -1.0082 -0.5162 -1.4339
  111OSM      P11470   2.423   5.596  10.730  0.1698  0.4062  0.2715
  111OSM    O1311471   2.389   5.476  10.801  0.3821  0.6390 -0.1251
  111OSM    O1411472   2.383   5.719  10.794  1.0912 -0.6359  0.5131
  111OSM    O1111473   2.369   5.589  10.585  0.4145  0.0617  0.3047
  111OSM    O1211474   2.577   5.601  10.702  0.0003 -0.0299 -0.3747
  111OSM    C1S11475   2.404   5.470  10.506  0.2210 -0.9204 -0.4871
  111OSM    H1S11476   2.317   5.401  10.503 -0.2510 -0.3887  0.3296
  111OSM    H1T11477   2.491   5.415  10.547  1.2887  0.8795 -0.2483
  111OSM     NF11478   2.473   5.378  10.290 -0.4314 -0.0524  0.5120
  111OSM    HNF11479   2.570   5.364  10.311 -0.8848 -3.1569  0.9020
  111OSM    C2S11480   2.432   5.506  10.357  0.6742 -0.6271  0.1431
  111OSM    H2S11481   2.334   5.528  10.310 -0.5138 -0.2751  2.6350
  111OSM    C3S11482   2.530   5.627  10.345 -0.4986 -0.0563  0.5929
  111OSM    H3S11483   2.624   5.608  10.400 -0.7927  2.5478  2.1480
  111OSM     O311484   2.491   5.747  10.409  0.1240  0.5589  0.5533
  111OSM    HO311485   2.415   5.725  10.462  0.1239  4.0552  2.2883
  111OSM    C4S11486   2.571   5.659  10.202 -0.1734 -0.1636 -0.8678
  111OSM    H4S11487   2.487   5.676  10.133 -0.3882  3.1821  0.0681
  111OSM    C5S11488   2.694   5.676  10.164 -0.2411  0.7836 -0.0744
  111OSM    H5S11489   2.776   5.652  10.234  0.1223  2.0560 -0.0375
  111OSM    C6S11490   2.736   5.716  10.025 -0.1329 -0.1140  0.1945
  111OSM    H6S11491   2.842   5.686  10.008 -1.0088 -2.5641 -1.5490
  111OSM    H6T11492   2.736   5.827  10.021  0.6669 -0.1175 -0.3127
  111OSM    C7S11493   2.641   5.671   9.923 -0.1768  0.4468  0.2191
  111OSM    H7S11494   2.543   5.723   9.934 -0.0196  0.6861  0.4889
  111OSM    H7T11495   2.631   5.561   9.908 -2.5496  0.9983 -3.8464
  111OSM    C8S11496   2.677   5.721   9.780  0.0300 -1.2643 -0.4900
  111OSM    H8S11497   2.786   5.701   9.771  0.7395  1.5550  0.6087
  111OSM    H8T11498   2.663   5.829   9.762 -1.4767 -1.0053  1.7038
  111OSM    C9S11499   2.595   5.648   9.673  0.1983  0.0990 -0.6920
  111OSM    H9S11500   2.487   5.653   9.699  0.3486  1.5632 -0.2509
  111OSM    H9T11501   2.622   5.540   9.679 -1.2217 -0.1968  1.8098
  111OSM   C10S11502   2.634   5.716   9.539 -0.2431 -0.4972  0.0280
  111OSM   H10S11503   2.744   5.731   9.535 -0.2056 -0.0779  1.6449
  111OSM   H10T11504   2.593   5.819   9.545  1.5726  0.2075  1.0318
  111OSM   C11S11505   2.589   5.639   9.408 -0.2688 -0.4043 -0.3110
  111OSM   H11S11506   2.483   5.612   9.431 -0.6670  0.9437 -0.4621
  111OSM   H11T11507   2.654   5.549   9.405 -0.0832 -0.3420  1.0013
  111OSM   C12S11508   2.630   5.716   9.284 -0.1766  0.0805  0.7168
  111OSM   H12S11509   2.740   5.725   9.286 -0.2418  1.2052 -0.1027
  111OSM   H12T11510   2.574   5.812   9.284 -2.2625 -1.0677  1.6559
  111OSM   C13S11511   2.601   5.631   9.160  0.6107 -0.4694  0.5546
  111OSM   H13S11512   2.517   5.561   9.176 -1.7396  1.9713 -0.3201
  111OSM   H13T11513   2.690   5.569   9.134 -0.5962 -2.9561  1.9678
  111OSM   C14S11514   2.575   5.741   9.045  0.3186  0.0396 -0.8893
  111OSM   H14S11515   2.659   5.812   9.061 -0.3837  0.5810  0.6176
  111OSM   H14T11516   2.478   5.794   9.054  0.3962 -0.0797  1.2353
  111OSM   C15S11517   2.584   5.679   8.902  0.1996  0.1775  0.0555
  111OSM   H15S11518   2.523   5.589   8.922 -1.5013  1.4266  0.7913
  111OSM   H15T11519   2.686   5.641   8.882 -0.1204 -0.5838 -0.1554
  111OSM   C16S11520   2.518   5.768   8.790 -0.4286  0.5786 -0.6430
  111OSM   H16S11521   2.590   5.848   8.765  0.1788  0.4599  0.6530
  111OSM   H16T11522   2.423   5.816   8.824 -0.2956  0.5107 -0.1737
  111OSM   C17S11523   2.502   5.683   8.665 -0.2316  0.0851 -0.2293
  111OSM   H17S11524   2.428   5.603   8.682  0.2535 -0.0104  1.7400
  111OSM   H17T11525   2.594   5.622   8.649 -1.0807 -0.8565 -1.6745
  111OSM   C18S11526   2.460   5.756   8.541 -0.0636 -0.4776 -0.2204
  111OSM   H18S11527   2.535   5.748   8.459  0.8851  1.5563  0.3670
  111OSM   H18T11528   2.441   5.865   8.556 -0.0236 -0.1103 -2.4497
  111OSM   H18U11529   2.363   5.713   8.509  2.0720 -3.7420 -3.0000
  111OSM    C1F11530   2.390   5.274  10.266  0.2910  0.1957 -0.1789
  111OSM     OF11531   2.272   5.275  10.287  0.1509 -0.2060  0.7585
  111OSM    C2F11532   2.465   5.148  10.226 -0.5402 -0.2094 -0.1997
  111OSM    H2F11533   2.439   5.064  10.294 -2.4228  0.8571  0.4904
  111OSM    H2G11534   2.571   5.168  10.250 -0.1266 -2.1303 -0.3498
  111OSM    C3F11535   2.433   5.111  10.075 -0.0585  0.2219 -0.2041
  111OSM    H3F11536   2.323   5.097  10.065 -0.4849  2.7619  0.1631
  111OSM    H3G11537   2.487   5.017  10.052  2.6758  1.4142  0.8908
  111OSM    C4F11538   2.469   5.226   9.983  0.2212 -0.5696 -0.5068
  111OSM    H4F11539   2.576   5.257   9.984 -0.1566  0.8901 -1.5973
  111OSM    H4G11540   2.404   5.312  10.012 -1.2615 -1.6588 -0.5003
  111OSM    C5F11541   2.420   5.184   9.848  0.0018  0.0189  0.3950
  111OSM    H5F11542   2.309   5.173   9.848 -0.1058  1.0087  0.4101
  111OSM    H5G11543   2.458   5.084   9.818 -0.8349 -0.2609  0.2272
  111OSM    C6F11544   2.467   5.288   9.747  0.0633 -0.6147  0.6940
  111OSM    H6F11545   2.568   5.257   9.714  0.5829  1.3098  0.3214
  111OSM    H6G11546   2.472   5.387   9.799  0.5209  1.8534 -3.6248
  111OSM    C7F11547   2.378   5.313   9.625  0.2950  0.6837 -1.2435
  111OSM    H7F11548   2.396   5.410   9.574 -1.1000  1.2586 -0.6765
  111OSM    H7G11549   2.277   5.331   9.665  0.3743 -0.2177 -0.6164
  111OSM    C8F11550   2.376   5.192   9.535  0.1563 -0.6024 -0.2351
  111OSM    H8F11551   2.277   5.202   9.485 -1.0679 -2.7047  1.6014
  111OSM    H8G11552   2.368   5.102   9.600 -0.9639  0.6211  1.4018
  111OSM    C9F11553   2.474   5.165   9.426 -0.1917  0.0689 -0.8336
  111OSM    H9F11554   2.571   5.136   9.468 -1.1709 -2.1111  0.0655
  111OSM   C10F11555   2.456   5.169   9.292  0.0232 -0.5981  0.0463
  111OSM   H10F11556   2.549   5.151   9.236 -1.0065 -0.3694 -1.8430
  111OSM   C11F11557   2.333   5.213   9.214  0.7973  0.3694  0.7161
  111OSM   H11F11558   2.240   5.208   9.273 -1.7883  1.6441 -2.9031
  111OSM   H11G11559   2.321   5.136   9.135  1.9509 -1.0077  1.8441
  111OSM   C12F11560   2.340   5.352   9.156  0.4232 -0.5506  0.1035
  111OSM   H12F11561   2.422   5.344   9.081 -0.3837 -0.3523 -0.8083
  111OSM   H12G11562   2.368   5.427   9.234 -0.1576 -1.7737  1.5338
  111OSM   C13F11563   2.214   5.386   9.078  0.3611 -0.1599 -0.2119
  111OSM   H13F11564   2.131   5.389   9.153 -0.4223  1.7992 -1.0987
  111OSM   H13G11565   2.184   5.317   8.997 -1.5966  0.0547  0.2626
  111OSM   C14F11566   2.207   5.527   9.013 -0.2466 -0.1421 -0.2685
  111OSM   H14F11567   2.254   5.511   8.913 -0.8116 -1.3035 -0.3621
  111OSM   H14G11568   2.254   5.607   9.076  0.9244 -1.1631  0.1992
  111OSM   C15F11569   2.065   5.558   8.976 -0.2891 -0.1303 -0.3466
  111OSM   H15F11570   2.013   5.555   9.074  0.9936 -0.5513  0.3425
  111OSM   H15G11571   2.026   5.472   8.918 -2.8281  1.2242 -0.7729
  111OSM   C16F11572   2.043   5.693   8.900  0.1871  0.7371 -0.0482
  111OSM   H16F11573   2.061   5.772   8.976 -0.4786  0.6426  0.2146
  111OSM   H16G11574   1.935   5.694   8.874  0.4618  0.3040 -1.2740
  111OSM   C17F11575   2.119   5.711   8.768 -0.3690  0.5209 -0.1174
  111OSM   H17F11576   2.227   5.708   8.797 -0.4665  0.9859  0.3029
  111OSM   H17G11577   2.092   5.808   8.723 -2.3670  0.9014  1.7657
  111OSM   C18F11578   2.084   5.607   8.658 -0.1462 -0.2347 -0.0141
  111OSM   H18F11579   1.987   5.644   8.619  0.9958 -0.1970 -3.0840
  111OSM   H18G11580   2.088   5.503   8.697  2.1136  0.1071  0.8346
  111OSM   H18H11581   2.174   5.618   8.594  0.9512  0.4587  1.5733
  112OSM      N11582   3.201   3.434  11.435 -0.6069 -0.0716  0.0451
  112OSM    C1511583   3.156   3.297  11.457 -0.1766 -0.1837  0.2147
  112OSM   H15A11584   3.207   3.251  11.540 -2.1828 -0.5150  1.3393
  112OSM   H15B11585   3.159   3.245  11.363  0.8653  0.7676 -0.3003
  112OSM   H15C11586   3.051   3.287  11.484 -0.3141 -1.7467 -0.7620
  112OSM    C1411587   3.157   3.527  11.544  0.1481  0.6217  0.0221
  112OSM   H14A11588   3.195   3.488  11.637  0.9636  0.6541 -0.2814
  112OSM   H14B11589   3.050   3.532  11.552 -0.1886 -1.3450 -2.1304
  112OSM   H14C11590   3.195   3.627  11.533 -0.9097  1.1236  0.8599
  112OSM    C1311591   3.356   3.442  11.432 -0.1069 -0.3059 -0.7571
  112OSM   H13A11592   3.389   3.370  11.359 -0.9427 -2.0396  0.4881
  112OSM   H13B11593   3.401   3.403  11.522  0.0470 -0.8108 -1.0474
  112OSM   H13C11594   3.394   3.541  11.413  0.7691 -0.6539 -0.8606
  112OSM    C1211595   3.144   3.488  11.305 -0.1496 -0.2270 -0.0268
  112OSM   H12A11596   3.185   3.586  11.283 -0.5597  0.5415  2.3043
  112OSM   H12B11597   3.038   3.506  11.314 -0.3986 -2.4243  2.5621
  112OSM    C1111598   3.168   3.395  11.184  0.2554  0.4782  0.0085
  112OSM   H11A11599   3.273   3.361  11.169  0.0214 -0.1918 -0.1465
  112OSM   H11B11600   3.137   3.460  11.099  2.1634  0.3473 -0.8369
  112OSM      P11601   2.929   3.292  11.167  0.5700  0.2586  0.4543
  112OSM    O1311602   2.863   3.208  11.270 -0.3708  0.5569 -0.1780
  112OSM    O1411603   2.887   3.436  11.168 -0.3050  0.5785  0.2729
  112OSM    O1111604   2.908   3.229  11.018  0.1581 -0.0323  0.2578
  112OSM    O1211605   3.080   3.280  11.188 -0.4123  0.3365  0.0259
  112OSM    C1S11606   3.006   3.250  10.913  0.3685  0.5186 -0.1086
  112OSM    H1S11607   3.084   3.173  10.934  1.7553  1.4745 -1.4824
  112OSM    H1T11608   3.057   3.349  10.917 -0.9182  1.1520  1.3448
  112OSM     NF11609   3.037   3.220  10.672  0.0408 -0.1561 -0.3079
  112OSM    HNF11610   3.065   3.311  10.640  0.5835 -0.2995 -0.2406
  112OSM    C2S11611   2.934   3.225  10.774  0.1735 -0.1244 -0.4816
  112OSM    H2S11612   2.886   3.125  10.780 -0.3644  0.2079  1.7373
  112OSM    C3S11613   2.821   3.325  10.746 -0.5315 -0.5355 -0.0438
  112OSM    H3S11614   2.860   3.425  10.714 -2.0309  0.7464  1.8950
  112OSM     O311615   2.740   3.351  10.861  0.3023 -0.3454  0.2453
  112OSM    HO311616   2.795   3.304  10.925  3.2116 -1.9213 -3.0369
  112OSM    C4S11617   2.737   3.275  10.626  0.5022  0.2217 -0.1768
  112OSM    H4S11618   2.646   3.216  10.646 -0.5601  2.0115  0.5309
  112OSM    C5S11619   2.769   3.303  10.502 -0.3919 -0.1271 -0.5156
  112OSM    H5S11620   2.859   3.360  10.473 -1.1915  1.7011  0.4413
  112OSM    C6S11621   2.696   3.243  10.383 -0.1973 -0.3954  0.3966
  112OSM    H6S11622   2.605   3.191  10.420  0.1859 -0.1770  1.7116
  112OSM    H6T11623   2.762   3.170  10.332  1.2390  1.0251  0.1407
  112OSM    C7S11624   2.655   3.354  10.292  0.3136  0.0375 -0.0987
  112OSM    H7S11625   2.732   3.421  10.247 -1.3611  1.8687 -0.3871
  112OSM    H7T11626   2.587   3.431  10.335  0.7780  0.0332  0.6648
  112OSM    C8S11627   2.570   3.288  10.182 -0.6720 -0.1432  0.0118
  112OSM    H8S11628   2.471   3.272  10.229 -0.1803 -0.5644  0.9255
  112OSM    H8T11629   2.599   3.186  10.149 -0.2303 -0.6526  1.8837
  112OSM    C9S11630   2.553   3.378  10.056 -0.4860  0.8619  0.2743
  112OSM    H9S11631   2.657   3.398  10.023 -0.2120  1.7481  1.5921
  112OSM    H9T11632   2.523   3.483  10.079  1.2580  1.3230  0.6035
  112OSM   C10S11633   2.467   3.315   9.944 -0.0249  0.4970  0.0395
  112OSM   H10S11634   2.374   3.272   9.986 -0.2923  0.6838 -0.3594
  112OSM   H10T11635   2.520   3.226   9.903 -2.3175 -1.1358  0.4296
  112OSM   C11S11636   2.442   3.409   9.818  0.4873 -0.1928 -1.1326
  112OSM   H11S11637   2.542   3.446   9.787  0.9785 -0.3171  0.2624
  112OSM   H11T11638   2.391   3.501   9.854  0.3327 -1.7660  3.2329
  112OSM   C12S11639   2.360   3.329   9.714  0.1899 -0.2756 -0.1896
  112OSM   H12S11640   2.268   3.293   9.763  0.9685 -1.8524  0.1758
  112OSM   H12T11641   2.423   3.239   9.699  0.9172 -0.3450  2.5761
  112OSM   C13S11642   2.334   3.407   9.580  0.0955  0.3068  0.2581
  112OSM   H13S11643   2.432   3.426   9.531  0.9955 -0.2646  1.7782
  112OSM   H13T11644   2.289   3.502   9.614  1.1900  1.1151 -0.5151
  112OSM   C14S11645   2.232   3.349   9.482 -0.4452 -0.1922  0.0030
  112OSM   H14S11646   2.142   3.322   9.541  0.3527 -1.1035  0.8542
  112OSM   H14T11647   2.255   3.251   9.434 -3.3392 -0.4633 -0.9768
  112OSM   C15S11648   2.198   3.449   9.367 -0.5206 -0.5879  0.3364
  112OSM   H15S11649   2.138   3.533   9.409 -1.6643 -1.2818  0.1237
  112OSM   H15T11650   2.137   3.389   9.296 -1.3046 -0.6606  1.0470
  112OSM   C16S11651   2.320   3.509   9.295 -0.1814 -0.3820 -0.4110
  112OSM   H16S11652   2.378   3.562   9.373  0.3370  0.1145 -1.1219
  112OSM   H16T11653   2.291   3.579   9.214 -0.8964 -0.5521 -0.3080
  112OSM   C17S11654   2.401   3.407   9.215 -1.0198  0.4819  0.2948
  112OSM   H17S11655   2.332   3.375   9.133  0.0198 -1.0524 -0.0235
  112OSM   H17T11656   2.425   3.315   9.273 -1.7930 -1.0797 -1.7315
  112OSM   C18S11657   2.526   3.468   9.161 -0.7537 -0.1258  0.2321
  112OSM   H18S11658   2.571   3.410   9.078  1.6388 -0.9684  2.0212
  112OSM   H18T11659   2.611   3.477   9.232 -0.3505 -2.3302  0.0982
  112OSM   H18U11660   2.505   3.570   9.123  0.3815 -0.1274 -0.4347
  112OSM    C1F11661   3.109   3.109  10.653  0.4180 -0.0421  0.3383
  112OSM     OF11662   3.076   3.007  10.706  0.0297  0.1957 -0.5233
  112OSM    C2F11663   3.230   3.117  10.567  0.3027 -0.4101  0.1791
  112OSM    H2F11664   3.305   3.053  10.619  0.4492  1.0844  1.9035
  112OSM    H2G11665   3.265   3.222  10.568 -0.0547 -0.2778  1.8086
  112OSM    C3F11666   3.225   3.060  10.429 -0.5471  0.6206  0.4456
  112OSM    H3F11667   3.149   3.121  10.375 -0.5737  1.6380  1.5873
  112OSM    H3G11668   3.189   2.956  10.441 -0.5580  0.5061 -0.4573
  112OSM    C4F11669   3.354   3.066  10.341  0.2240  0.2485 -0.2389
  112OSM    H4F11670   3.428   3.012  10.404 -1.2136 -3.1736 -1.2349
  112OSM    H4G11671   3.358   3.177  10.336  1.6345  0.1665 -1.4358
  112OSM    C5F11672   3.326   3.027  10.200 -0.6545  0.0762  0.3988
  112OSM    H5F11673   3.228   3.066  10.165 -0.0436  0.8035 -0.5824
  112OSM    H5G11674   3.330   2.917  10.187  2.2675  0.1893 -0.2897
  112OSM    C6F11675   3.438   3.087  10.110  0.2761 -0.0686  0.2340
  112OSM    H6F11676   3.537   3.059  10.152  2.4327  2.8057 -2.4681
  112OSM    H6G11677   3.442   3.197  10.124  1.3355 -0.2435  1.4928
  112OSM    C7F11678   3.433   3.042   9.965  0.6949  0.2760  0.2231
  112OSM    H7F11679   3.463   2.935   9.965  2.0529  0.6425 -0.2913
  112OSM    H7G11680   3.518   3.090   9.911  1.0002  0.6845  1.0618
  112OSM    C8F11681   3.303   3.066   9.883  0.1491 -0.1930  0.1372
  112OSM    H8F11682   3.256   3.163   9.910 -0.5763 -1.0231  2.0292
  112OSM    H8G11683   3.228   2.985   9.897 -1.6753  0.5699 -3.9228
  112OSM    C9F11684   3.322   3.074   9.734  0.2710 -0.2106 -0.4026
  112OSM    H9F11685   3.362   3.174   9.710 -0.1565 -0.1335 -0.8013
  112OSM   C10F11686   3.292   2.984   9.634  0.3225 -0.0711  0.1565
  112OSM   H10F11687   3.313   3.007   9.529 -2.2332  0.3542 -0.3100
  112OSM   C11F11688   3.228   2.846   9.642 -0.5839 -0.3721  0.1838
  112OSM   H11F11689   3.226   2.808   9.746 -0.5304 -4.1073 -1.0322
  112OSM   H11G11690   3.299   2.776   9.593  0.4229  0.0651  0.9773
  112OSM   C12F11691   3.082   2.824   9.576 -0.7738  0.0484 -0.4151
  112OSM   H12F11692   3.002   2.877   9.633 -0.4722  2.3400 -1.9944
  112OSM   H12G11693   3.061   2.716   9.591  0.5591 -0.3800 -1.4938
  112OSM   C13F11694   3.067   2.871   9.431  0.3317 -0.1453  0.7180
  112OSM   H13F11695   3.089   2.979   9.415  0.6354 -0.2202  0.6276
  112OSM   H13G11696   2.958   2.867   9.406 -0.1379  0.7718  2.4720
  112OSM   C14F11697   3.157   2.787   9.339  0.4156  0.6516  0.1510
  112OSM   H14F11698   3.126   2.683   9.362  1.1884 -0.4387 -3.1533
  112OSM   H14G11699   3.262   2.809   9.368  0.7063  0.8534 -1.0229
  112OSM   C15F11700   3.128   2.795   9.185  0.2676 -0.4987  0.0483
  112OSM   H15F11701   3.021   2.775   9.162  0.3172  0.6142 -1.2151
  112OSM   H15G11702   3.180   2.709   9.137 -0.0740 -0.9620  0.4943
  112OSM   C16F11703   3.173   2.925   9.124 -0.7663  0.2655  0.3889
  112OSM   H16F11704   3.277   2.942   9.157 -1.2423  2.5869  0.8448
  112OSM   H16G11705   3.110   3.010   9.159 -0.1332  1.5099 -1.3636
  112OSM   C17F11706   3.186   2.917   8.978  0.5284  0.1336  0.4530
  112OSM   H17F11707   3.262   2.839   8.956 -0.5934 -0.5834 -1.0417
  112OSM   H17G11708   3.220   3.014   8.937  2.8510 -1.6364 -2.2525
  112OSM   C18F11709   3.056   2.871   8.909 -0.0020 -0.1648  0.9345
  112OSM   H18F11710   3.025   2.772   8.949 -0.4801 -0.7466 -0.7709
  112OSM   H18G11711   3.066   2.850   8.800  0.3892 -2.6301  1.3854
  112OSM   H18H11712   2.969   2.937   8.926 -1.5390 -2.4425  2.2925
  113OSM      N11713   5.827   0.491  11.532 -0.1531 -0.3492  0.2956
  113OSM    C1511714   5.798   0.348  11.555 -0.2024  0.4235 -0.2973
  113OSM   H15A11715   5.695   0.328  11.531  0.1326  0.4197 -1.8373
  113OSM   H15B11716   5.815   0.327  11.659  2.4926 -0.3942 -0.8271
  113OSM   H15C11717   5.862   0.282  11.498 -0.8310  0.2522 -0.8137
  113OSM    C1411718   5.760   0.569  11.641  0.4017  0.5771  0.4820
  113OSM   H14A11719   5.790   0.673  11.635 -1.3524  1.1135  0.5220
  113OSM   H14B11720   5.781   0.543  11.743 -2.6484 -1.1731  0.7868
  113OSM   H14C11721   5.653   0.579  11.635  0.3674  2.2600  2.7285
  113OSM    C1311722   5.969   0.513  11.550  0.5161  0.0766 -0.0975
  113OSM   H13A11723   5.991   0.614  11.520 -1.1168  0.4418 -0.1478
  113OSM   H13B11724   6.026   0.445  11.488 -0.2307  0.9923 -1.8615
  113OSM   H13C11725   5.999   0.489  11.651 -1.8669 -1.0376  0.4128
  113OSM    C1211726   5.781   0.528  11.399  0.4878 -0.5991  0.8856
  113OSM   H12A11727   5.789   0.635  11.389  0.2820 -0.6882 -0.4179
  113OSM   H12B11728   5.674   0.511  11.397  0.4448 -0.3533  0.9964
  113OSM    C1111729   5.836   0.460  11.271 -0.0242  0.6484 -0.3525
  113OSM   H11A11730   5.833   0.349  11.279  1.7751  0.4943 -1.3134
  113OSM   H11B11731   5.945   0.474  11.254 -0.1246  0.3927 -1.2673
  113OSM      P11732   5.641   0.471  11.099  0.1818  0.5111  0.4115
  113OSM    O1311733   5.664   0.342  11.024 -0.1890  0.0542 -0.4081
  113OSM    O1411734   5.533   0.463  11.201 -0.5655  0.0720  0.9239
  113OSM    O1111735   5.615   0.595  11.002  0.6588 -0.1339 -0.5491
  113OSM    O1211736   5.782   0.513  11.156  0.4300 -0.0406 -0.5451
  113OSM    C1S11737   5.630   0.567  10.855 -0.7246  0.3010 -0.3795
  113OSM    H1S11738   5.550   0.508  10.805 -1.4633  0.7106  0.3028
  113OSM    H1T11739   5.717   0.499  10.845 -1.1243 -0.0026 -2.0724
  113OSM     NF11740   5.661   0.664  10.630  0.3009  0.3332 -0.0523
  113OSM    HNF11741   5.750   0.665  10.584  0.3101  0.3229 -0.0342
  113OSM    C2S11742   5.659   0.694  10.770  0.5564  0.9392 -0.1094
  113OSM    H2S11743   5.584   0.772  10.792  0.5459  0.3751  2.0770
  113OSM    C3S11744   5.794   0.758  10.826 -0.0523  0.1270 -0.3025
  113OSM    H3S11745   5.872   0.680  10.821  1.4661  1.2327  3.0889
  113OSM     O311746   5.795   0.803  10.962 -0.0867 -0.1360  0.2139
  113OSM    HO311747   5.741   0.735  11.002 -1.0035  1.2607  1.4305
  113OSM    C4S11748   5.833   0.877  10.743  0.6931  0.2782  0.7523
  113OSM    H4S11749   5.760   0.955  10.719  1.6745  0.4246 -2.2879
  113OSM    C5S11750   5.951   0.902  10.682 -0.3887  0.1942  0.1110
  113OSM    H5S11751   6.034   0.831  10.685  0.8873  1.3705 -3.0965
  113OSM    C6S11752   5.967   1.023  10.603 -0.1742 -0.0879 -0.7032
  113OSM    H6S11753   6.042   1.083  10.660 -1.4831 -0.8493  1.9863
  113OSM    H6T11754   5.873   1.082  10.603 -1.2151 -1.4699  2.7528
  113OSM    C7S11755   6.020   0.995  10.458  0.0653  0.3503 -1.0561
  113OSM    H7S11756   6.107   0.927  10.470  0.0062  0.4202 -0.2166
  113OSM    H7T11757   6.052   1.088  10.407  1.6317  2.0533  2.6905
  113OSM    C8S11758   5.903   0.928  10.381 -0.4205  0.4766  0.1179
  113OSM    H8S11759   5.812   0.990  10.391 -0.0292  0.8846  1.3538
  113OSM    H8T11760   5.890   0.822  10.411  0.9713 -0.0239 -0.9386
  113OSM    C9S11761   5.943   0.921  10.233 -0.7549  0.4824  0.2030
  113OSM    H9S11762   6.022   0.842  10.235 -0.7143  0.4946 -0.6194
  113OSM    H9T11763   5.991   1.010  10.187  2.2115 -1.3932 -0.6874
  113OSM   C10S11764   5.835   0.870  10.137 -0.4463  0.5416 -0.5311
  113OSM   H10S11765   5.753   0.944  10.127 -0.3039  0.8623  0.5026
  113OSM   H10T11766   5.780   0.781  10.174  0.9831 -0.1326  0.0621
  113OSM   C11S11767   5.870   0.825   9.992  0.4794  0.0704  0.1933
  113OSM   H11S11768   5.935   0.735   9.995  0.3073 -0.2285 -2.3224
  113OSM   H11T11769   5.926   0.913   9.952 -2.0949  1.6745 -0.0781
  113OSM   C12S11770   5.752   0.804   9.899 -0.5377 -0.1755  0.1256
  113OSM   H12S11771   5.692   0.897   9.904  0.0871  0.2515 -0.1596
  113OSM   H12T11772   5.692   0.716   9.930  0.1705 -0.1056  1.7777
  113OSM   C13S11773   5.790   0.800   9.747 -0.0368  0.1755 -0.2075
  113OSM   H13S11774   5.834   0.901   9.731  0.4459  0.2857  1.5414
  113OSM   H13T11775   5.702   0.800   9.680  0.6605 -0.3900 -1.1475
  113OSM   C14S11776   5.889   0.691   9.716  0.0927  0.8967 -0.1915
  113OSM   H14S11777   5.851   0.589   9.741 -0.0832  0.5735 -1.6401
  113OSM   H14T11778   5.986   0.710   9.767  0.2271 -2.4931  1.1188
  113OSM   C15S11779   5.927   0.678   9.568  0.1734  0.0317 -0.4481
  113OSM   H15S11780   5.855   0.609   9.521  1.8736 -1.8624 -0.3818
  113OSM   H15T11781   6.028   0.631   9.570  0.7752  1.2593 -0.9664
  113OSM   C16S11782   5.928   0.814   9.497 -0.1165  0.7075 -0.1916
  113OSM   H16S11783   6.000   0.874   9.557 -0.0837  0.1427  0.3448
  113OSM   H16T11784   5.829   0.861   9.511  0.7989  2.3351  1.1761
  113OSM   C17S11785   5.961   0.811   9.349 -0.4205  0.4199  0.2098
  113OSM   H17S11786   5.958   0.915   9.311  0.7814  0.3052 -0.2380
  113OSM   H17T11787   5.878   0.760   9.294 -1.3717  2.3058 -0.1893
  113OSM   C18S11788   6.098   0.738   9.319 -0.0561 -0.3226 -0.3747
  113OSM   H18S11789   6.142   0.749   9.217 -0.7809 -1.6359 -0.8394
  113OSM   H18T11790   6.105   0.632   9.350 -1.6377  0.2781  2.3145
  113OSM   H18U11791   6.174   0.786   9.385 -0.0491 -0.4924 -0.2583
  113OSM    C1F11792   5.557   0.636  10.552  0.4478 -0.3181  0.3514
  113OSM     OF11793   5.441   0.618  10.594  0.0603 -0.1984  0.2923
  113OSM    C2F11794   5.601   0.624  10.401 -0.1925 -0.1459 -0.8044
  113OSM    H2F11795   5.682   0.548  10.392 -0.3483 -0.7928  2.1829
  113OSM    H2G11796   5.638   0.721  10.361  0.9178 -0.3591 -0.3452
  113OSM    C3F11797   5.486   0.590  10.305  0.5547  0.3382 -0.1906
  113OSM    H3F11798   5.400   0.659  10.323  2.4089  2.4841  1.0291
  113OSM    H3G11799   5.444   0.491  10.332 -0.9683  1.4373  1.8025
  113OSM    C4F11800   5.535   0.594  10.158  0.1410  0.4239  0.0549
  113OSM    H4F11801   5.622   0.525  10.159 -0.7346 -0.7823 -1.9213
  113OSM    H4G11802   5.575   0.691  10.122 -1.0831  1.4451  1.3311
  113OSM    C5F11803   5.443   0.537  10.055 -0.0250  0.1194  0.0153
  113OSM    H5F11804   5.379   0.618  10.012  0.0545 -0.6121 -1.5531
  113OSM    H5G11805   5.372   0.471  10.110 -0.6141  1.2757  0.6795
  113OSM    C6F11806   5.508   0.467   9.939 -0.1594  0.3928  0.7798
  113OSM    H6F11807   5.559   0.372   9.966 -3.2014 -1.8536 -0.8777
  113OSM    H6G11808   5.579   0.536   9.889  0.1258 -1.7177 -1.9685
  113OSM    C7F11809   5.408   0.431   9.823  0.5033 -0.1740 -0.0702
  113OSM    H7F11810   5.356   0.527   9.802  1.6048  0.8058  1.4449
  113OSM    H7G11811   5.326   0.365   9.859  0.5313 -1.1641 -1.7106
  113OSM    C8F11812   5.471   0.366   9.703  0.1327  0.6587 -0.1234
  113OSM    H8F11813   5.389   0.327   9.639  0.7271 -3.0503  1.0831
  113OSM    H8G11814   5.532   0.282   9.744 -2.3068 -1.4777 -0.6363
  113OSM    C9F11815   5.554   0.479   9.634  0.4989  0.2004  0.4813
  113OSM    H9F11816   5.635   0.522   9.694 -1.5228  3.4668  1.1386
  113OSM   C10F11817   5.543   0.518   9.501  0.8480 -0.0148 -0.9658
  113OSM   H10F11818   5.608   0.601   9.469  1.0135 -0.0131 -0.6300
  113OSM   C11F11819   5.437   0.468   9.420  0.1779 -0.4077 -0.3497
  113OSM   H11F11820   5.336   0.469   9.466  0.0282 -0.6396 -0.6652
  113OSM   H11G11821   5.472   0.368   9.387  1.0154  0.2241 -1.4192
  113OSM   C12F11822   5.418   0.552   9.290  0.0868 -0.1378  0.2639
  113OSM   H12F11823   5.509   0.577   9.232 -2.1100  0.8350 -3.0493
  113OSM   H12G11824   5.381   0.651   9.324 -1.5357 -0.5892 -0.0752
  113OSM   C13F11825   5.304   0.500   9.195 -0.1634  0.4153 -0.4188
  113OSM   H13F11826   5.208   0.513   9.249  0.0468  0.2062  0.0170
  113OSM   H13G11827   5.322   0.390   9.192  0.1695  0.4575 -0.1137
  113OSM   C14F11828   5.293   0.561   9.057  0.0952 -0.1403  0.0219
  113OSM   H14F11829   5.389   0.532   9.009  0.6948  1.0251  0.4689
  113OSM   H14G11830   5.295   0.672   9.057  1.8825 -0.1113  1.5977
  113OSM   C15F11831   5.175   0.510   8.975  0.3545  0.8464 -0.5624
  113OSM   H15F11832   5.084   0.563   9.012  1.8527  3.7462 -0.7476
  113OSM   H15G11833   5.176   0.399   8.978  1.5826  0.8407  2.4145
  113OSM   C16F11834   5.183   0.556   8.830  0.1408 -0.3279  0.0927
  113OSM   H16F11835   5.279   0.536   8.778  0.9053  4.1361 -0.5986
  113OSM   H16G11836   5.182   0.667   8.826  0.3330 -0.3275  0.0224
  113OSM   C17F11837   5.083   0.500   8.732  0.3920  0.3975  0.9953
  113OSM   H17F11838   5.072   0.557   8.637 -1.4667 -0.7909  0.4457
  113OSM   H17G11839   4.979   0.505   8.769 -1.1490  0.2588 -2.8129
  113OSM   C18F11840   5.105   0.355   8.687 -0.3246 -0.1222 -0.5956
  113OSM   H18F11841   5.205   0.338   8.641 -0.5212  1.4090 -1.6884
  113OSM   H18G11842   5.018   0.337   8.620 -1.0313  0.5218  0.1360
  113OSM   H18H11843   5.100   0.279   8.767  3.3263  2.3182  2.3194
  114OSM      N11844   1.729   3.112  11.072  0.2947  0.1236 -0.1614
  114OSM    C1511845   1.769   3.152  10.933  0.0589  0.9053 -0.8824
  114OSM   H15A11846   1.857   3.096  10.903 -0.6319 -1.0154  0.4891
  114OSM   H15B11847   1.786   3.256  10.910 -0.8072  0.7841 -2.1344
  114OSM   H15C11848   1.702   3.117  10.857 -0.7464  0.9079 -0.1938
  114OSM    C1411849   1.849   3.129  11.163  0.1444 -0.0509 -0.8604
  114OSM   H14A11850   1.927   3.064  11.128 -0.0977 -0.0701 -1.3710
  114OSM   H14B11851   1.828   3.099  11.265  1.1636  1.0703 -0.3068
  114OSM   H14C11852   1.888   3.229  11.163 -3.7603  1.6420 -1.3672
  114OSM    C1311853   1.626   3.212  11.107 -0.2353 -0.2532 -0.3109
  114OSM   H13A11854   1.536   3.188  11.052  0.5875 -0.0562 -1.8142
  114OSM   H13B11855   1.657   3.311  11.076  1.3294 -1.1422 -1.7510
  114OSM   H13C11856   1.612   3.224  11.213  4.1110  0.1928  0.3933
  114OSM    C1211857   1.673   2.966  11.084  1.0262 -0.3547 -0.3580
  114OSM   H12A11858   1.642   2.959  11.187  0.3999 -0.0043 -0.5143
  114OSM   H12B11859   1.754   2.898  11.064  0.7292 -0.8450  0.0995
  114OSM    C1111860   1.555   2.923  11.001 -0.3027 -0.5826  0.2069
  114OSM   H11A11861   1.556   2.812  11.009 -0.8909 -0.6127 -0.0789
  114OSM   H11B11862   1.561   2.947  10.893  1.5226  1.3576  0.6902
  114OSM      P11863   1.300   2.917  10.972 -0.1574 -0.1164 -0.4982
  114OSM    O1311864   1.321   2.780  10.924 -0.4817  0.1244  0.1193
  114OSM    O1411865   1.186   2.954  11.048 -0.4475 -0.3012 -0.5610
  114OSM    O1111866   1.306   3.025  10.855  0.1371 -0.0150  0.7621
  114OSM    O1211867   1.432   2.959  11.056 -0.0909 -0.1518  0.8154
  114OSM    C1S11868   1.321   3.002  10.715 -0.1299  0.8761 -0.0798
  114OSM    H1S11869   1.265   2.912  10.681  1.3847 -0.4035  0.6739
  114OSM    H1T11870   1.423   2.968  10.684  0.1785  1.8263 -0.1357
  114OSM     NF11871   1.229   3.080  10.495 -0.0536  0.4459  0.0010
  114OSM    HNF11872   1.287   3.092  10.415  1.4026  1.3458  1.1572
  114OSM    C2S11873   1.273   3.121  10.630 -0.6019 -0.2186  0.3645
  114OSM    H2S11874   1.187   3.153  10.692 -0.8608 -0.3733  0.0876
  114OSM    C3S11875   1.379   3.237  10.632 -0.9006  0.3651  0.1088
  114OSM    H3S11876   1.468   3.217  10.569 -1.6534  1.1537 -1.2497
  114OSM     O311877   1.438   3.259  10.759  0.5960 -0.6203  0.0767
  114OSM    HO311878   1.385   3.205  10.818  0.3309  0.6085  0.9934
  114OSM    C4S11879   1.320   3.371  10.587 -0.2832 -0.0871  0.1388
  114OSM    H4S11880   1.262   3.428  10.662 -0.1766 -0.2176  0.3211
  114OSM    C5S11881   1.345   3.421  10.472 -0.8574  0.6707  0.9334
  114OSM    H5S11882   1.413   3.366  10.406  0.4905  2.9123  0.3704
  114OSM    C6S11883   1.296   3.557  10.439  0.0417 -0.4190  0.1484
  114OSM    H6S11884   1.376   3.634  10.445  1.7241 -1.9706 -1.2105
  114OSM    H6T11885   1.219   3.589  10.512 -1.6176 -2.8696 -0.4376
  114OSM    C7S11886   1.245   3.552  10.294  0.1154  0.0176 -0.0198
  114OSM    H7S11887   1.158   3.484  10.276  1.4937 -2.3696  1.7852
  114OSM    H7T11888   1.329   3.527  10.226  0.9716  2.3047  0.1251
  114OSM    C8S11889   1.201   3.698  10.252  0.2826  0.7199 -0.9027
  114OSM    H8S11890   1.286   3.770  10.253  1.4065 -0.5663 -0.4860
  114OSM    H8T11891   1.130   3.737  10.328  0.1648  1.1262 -1.2159
  114OSM    C9S11892   1.133   3.698  10.115 -0.1522 -0.0183 -0.6398
  114OSM    H9S11893   1.083   3.797  10.109  0.6317  0.4294  0.0590
  114OSM    H9T11894   1.071   3.606  10.120  1.8438 -1.3900  3.9736
  114OSM   C10S11895   1.230   3.695   9.997  0.9219 -0.0110 -0.1765
  114OSM   H10S11896   1.297   3.607   9.987 -1.3074 -1.6616 -1.4872
  114OSM   H10T11897   1.302   3.779  10.011 -0.1185  0.7305  0.9720
  114OSM   C11S11898   1.153   3.698   9.867 -0.2330  0.2611  0.2361
  114OSM   H11S11899   1.102   3.794   9.850 -0.5304 -0.2470 -1.9828
  114OSM   H11T11900   1.077   3.617   9.868 -0.1068  0.0701  2.9038
  114OSM   C12S11901   1.254   3.685   9.745  0.5646 -0.0200 -0.7592
  114OSM   H12S11902   1.308   3.587   9.739  1.0036  0.1424  0.2959
  114OSM   H12T11903   1.330   3.762   9.772  0.4735 -0.5051  1.0001
  114OSM   C13S11904   1.193   3.736   9.619 -0.4617  0.8545  0.1363
  114OSM   H13S11905   1.154   3.839   9.635  0.6945  1.2797  0.3198
  114OSM   H13T11906   1.109   3.669   9.591  0.4381  0.0839 -0.8134
  114OSM   C14S11907   1.286   3.742   9.493  0.0297  0.4472  0.3335
  114OSM   H14S11908   1.309   3.634   9.477 -0.2319  0.0264  2.5159
  114OSM   H14T11909   1.381   3.795   9.515 -1.1547  2.0669  1.8555
  114OSM   C15S11910   1.224   3.787   9.356  0.5023 -0.9708 -0.2670
  114OSM   H15S11911   1.183   3.887   9.380 -1.5489 -1.7461 -0.3378
  114OSM   H15T11912   1.136   3.725   9.329 -0.6263  1.4637 -2.5291
  114OSM   C16S11913   1.316   3.785   9.235 -0.3503  0.0554  0.0166
  114OSM   H16S11914   1.414   3.825   9.267 -0.4622 -1.4099  2.4198
  114OSM   H16T11915   1.267   3.847   9.158  1.5962 -0.0237 -1.3668
  114OSM   C17S11916   1.329   3.642   9.191  0.0972 -0.8376  0.3145
  114OSM   H17S11917   1.226   3.614   9.158  0.2940 -1.2319  0.0327
  114OSM   H17T11918   1.356   3.579   9.278  0.7695  0.7513  1.3010
  114OSM   C18S11919   1.423   3.606   9.083 -0.7028  0.0536  0.4794
  114OSM   H18S11920   1.424   3.496   9.076  1.5987  0.0548 -0.2308
  114OSM   H18T11921   1.530   3.629   9.103 -0.2771 -0.7319 -0.7479
  114OSM   H18U11922   1.391   3.659   8.990 -2.5378 -2.8725 -0.6715
  114OSM    C1F11923   1.122   3.001  10.483  0.1255 -0.2377 -0.1813
  114OSM     OF11924   1.036   2.999  10.572 -0.7351  0.4911  0.2152
  114OSM    C2F11925   1.117   2.909  10.365  0.6275 -0.0106  0.5226
  114OSM    H2F11926   1.185   2.825  10.391 -0.2324 -0.3933  1.6329
  114OSM    H2G11927   1.147   2.957  10.269  0.8956 -0.5418  0.3373
  114OSM    C3F11928   0.978   2.855  10.338 -0.1648  0.2551 -0.1915
  114OSM    H3F11929   0.901   2.930  10.364 -2.1531 -1.0810 -1.9143
  114OSM    H3G11930   0.953   2.764  10.397  0.9795 -1.6320 -2.4539
  114OSM    C4F11931   0.949   2.838  10.189  0.4941 -0.4363 -0.0660
  114OSM    H4F11932   1.028   2.774  10.143  2.3156 -0.0104  2.2853
  114OSM    H4G11933   0.940   2.940  10.147  0.0001 -0.6935 -0.6090
  114OSM    C5F11934   0.809   2.780  10.163  0.0731 -0.1475 -0.2341
  114OSM    H5F11935   0.734   2.858  10.189  1.1087  0.0241  2.4800
  114OSM    H5G11936   0.795   2.706  10.244 -2.6583  2.1516  1.5638
  114OSM    C6F11937   0.795   2.714  10.035 -0.5523  0.1626  0.6858
  114OSM    H6F11938   0.693   2.670  10.023  0.0019 -1.0289  0.1262
  114OSM    H6G11939   0.866   2.628  10.030  0.6525  1.1848 -0.6395
  114OSM    C7F11940   0.832   2.794   9.911  0.7792 -0.3062  0.3600
  114OSM    H7F11941   0.929   2.848   9.924  0.0976  1.4449 -1.2694
  114OSM    H7G11942   0.751   2.866   9.885  1.1136 -0.6812 -1.9689
  114OSM    C8F11943   0.863   2.711   9.796  0.5228  0.2886  0.6095
  114OSM    H8F11944   0.915   2.618   9.828  0.1158 -1.2239 -2.6451
  114OSM    H8G11945   0.942   2.749   9.727  0.4624  2.1719  1.5063
  114OSM    C9F11946   0.734   2.684   9.723 -0.4306 -0.0574 -0.0849
  114OSM    H9F11947   0.652   2.672   9.794 -1.7814  0.5313 -1.4817
  114OSM   C10F11948   0.713   2.671   9.588 -0.2911  0.3304 -0.3419
  114OSM   H10F11949   0.606   2.672   9.561 -1.2163 -1.9164  2.7663
  114OSM   C11F11950   0.818   2.688   9.479 -0.7630  0.5206 -0.0133
  114OSM   H11F11951   0.895   2.609   9.486 -1.4516 -0.4036 -2.1674
  114OSM   H11G11952   0.859   2.790   9.488 -0.7446  0.6467 -1.3508
  114OSM   C12F11953   0.756   2.685   9.342 -1.2886  0.0476 -0.2429
  114OSM   H12F11954   0.685   2.769   9.335 -2.3546 -0.8391 -0.3124
  114OSM   H12G11955   0.690   2.596   9.342 -2.5211  0.8917  1.6898
  114OSM   C13F11956   0.868   2.701   9.235 -0.1074 -0.2166 -0.2254
  114OSM   H13F11957   0.950   2.630   9.257  1.1342  0.6186 -1.9744
  114OSM   H13G11958   0.917   2.799   9.251 -0.9847  0.4586 -1.4362
  114OSM   C14F11959   0.815   2.695   9.093  0.3702  0.2741  0.3122
  114OSM   H14F11960   0.751   2.607   9.069  1.5268 -0.4711 -0.1000
  114OSM   H14G11961   0.905   2.683   9.030  0.9786 -2.0702  1.5058
  114OSM   C15F11962   0.752   2.823   9.052 -0.2800  0.6436 -0.5242
  114OSM   H15F11963   0.819   2.911   9.061  1.5477 -0.6916 -0.5200
  114OSM   H15G11964   0.669   2.835   9.126  0.8395 -0.2868  0.9408
  114OSM   C16F11965   0.677   2.822   8.918 -0.1562 -0.2231 -0.3939
  114OSM   H16F11966   0.586   2.771   8.956  0.0668 -1.3227 -1.2830
  114OSM   H16G11967   0.721   2.753   8.843  0.7063 -0.4125  0.2696
  114OSM   C17F11968   0.654   2.967   8.872  0.0176 -0.4819  0.3965
  114OSM   H17F11969   0.745   3.032   8.871 -0.2868 -0.0597 -0.1809
  114OSM   H17G11970   0.586   3.005   8.951 -0.9599  0.5246 -0.8749
  114OSM   C18F11971   0.591   2.980   8.732  0.1356 -0.1124 -0.5773
  114OSM   H18F11972   0.609   3.086   8.707  0.0887  0.1376  0.4132
  114OSM   H18G11973   0.482   2.958   8.732 -0.3053  1.6103  2.2571
  114OSM   H18H11974   0.650   2.916   8.663  2.2763  1.1743 -0.0208
  115OSM      N11975   5.577   2.556  10.844 -0.6312 -0.0884 -0.2443
  115OSM    C1511976   5.610   2.649  10.730 -0.2251  0.4157  0.2987
  115OSM   H15A11977   5.669   2.595  10.658 -0.5067  1.9247 -1.1101
  115OSM   H15B11978   5.675   2.733  10.747  1.2362 -0.7693  0.7641
  115OSM   H15C11979   5.516   2.677  10.684 -0.2201  0.1880  0.1503
  115OSM    C1411980   5.513   2.430  10.794 -0.6343  0.7986 -0.1381
  115OSM   H14A11981   5.563   2.392  10.706 -0.1631 -1.2040  0.9209
  115OSM   H14B11982   5.408   2.435  10.772 -0.9104 -0.4021  0.7578
  115OSM   H14C11983   5.530   2.348  10.863  1.9672 -2.3064 -3.9937
  115OSM    C1311984   5.711   2.528  10.903 -0.4183 -0.0328  0.3201
  115OSM   H13A11985   5.743   2.624  10.941 -0.7301 -0.7407  2.5262
  115OSM   H13B11986   5.770   2.483  10.824 -0.2963  0.9155 -0.1312
  115OSM   H13C11987   5.699   2.453  10.980 -1.1634  1.2084  1.4526
  115OSM    C1211988   5.493   2.633  10.944  0.5110 -0.3780  0.1812
  115OSM   H12A11989   5.544   2.728  10.946 -0.1632  0.0662 -1.5477
  115OSM   H12B11990   5.499   2.600  11.047 -0.1083  1.8921  1.0021
  115OSM    C1111991   5.339   2.664  10.910  0.0772 -0.0637  0.4710
  115OSM   H11A11992   5.279   2.577  10.944  2.1366 -0.7074  2.7193
  115OSM   H11B11993   5.331   2.656  10.800  0.9469 -1.6407  0.4944
  115OSM      P11994   5.313   2.917  10.873 -0.2314 -0.2286 -0.1902
  115OSM    O1311995   5.242   3.028  10.935 -0.2035 -0.3481 -0.4444
  115OSM    O1411996   5.454   2.938  10.857 -0.2642  0.0569 -0.1523
  115OSM    O1111997   5.250   2.858  10.737  0.2125  0.4256  0.9796
  115OSM    O1211998   5.288   2.784  10.965  0.0451 -0.3700  0.1493
  115OSM    C1S11999   5.263   2.916  10.600 -0.3278 -0.1234 -0.1041
  115OSM    H1S12000   5.325   3.009  10.601 -0.2101 -0.2069  0.4614
  115OSM    H1T12001   5.163   2.953  10.569  0.1759  3.3116  1.8518
  115OSM     NF12002   5.351   2.889  10.381  0.2593  0.1082 -0.0911
  115OSM    HNF12003   5.282   2.894  10.309  0.0959  3.3105  0.1732
  115OSM    C2S12004   5.309   2.816  10.500 -0.1524  0.2668  0.2800
  115OSM    H2S12005   5.395   2.763  10.546  0.1049  0.8984  0.5439
  115OSM    C3S12006   5.200   2.714  10.480 -0.4226 -0.1936 -0.6976
  115OSM    H3S12007   5.117   2.773  10.436  0.9650  2.4402 -0.0087
  115OSM     O312008   5.149   2.654  10.603  0.4379  0.9985 -0.1328
  115OSM    HO312009   5.186   2.714  10.667  1.0301 -1.0349  1.5352
  115OSM    C4S12010   5.246   2.608  10.382  0.0403 -0.5883 -0.8473
  115OSM    H4S12011   5.336   2.558  10.419 -0.7356 -0.5038  1.2729
  115OSM    C5S12012   5.184   2.584  10.264 -0.4711 -0.0131  0.2786
  115OSM    H5S12013   5.093   2.636  10.233 -1.2426  0.3774  2.9328
  115OSM    C6S12014   5.237   2.494  10.158 -0.5296  0.7429  0.2270
  115OSM    H6S12015   5.344   2.471  10.175 -1.0173 -0.9801  1.1882
  115OSM    H6T12016   5.227   2.550  10.063 -0.6576 -0.7134 -0.6361
  115OSM    C7S12017   5.156   2.365  10.136  0.1522 -0.6073 -0.5465
  115OSM    H7S12018   5.053   2.391  10.102 -0.5065 -1.4408  0.7513
  115OSM    H7T12019   5.153   2.316  10.236  3.0402 -0.3388 -0.2397
  115OSM    C8S12020   5.227   2.255  10.046  0.4013 -0.1775  0.3179
  115OSM    H8S12021   5.153   2.173  10.050  0.1689 -0.0288 -0.7893
  115OSM    H8T12022   5.325   2.223  10.088  0.3616  0.2711  0.7688
  115OSM    C9S12023   5.246   2.312   9.898 -0.1212  0.4246 -0.0229
  115OSM    H9S12024   5.337   2.375   9.900 -0.5309  1.1618 -1.9686
  115OSM    H9T12025   5.164   2.381   9.867 -0.1475 -0.0924 -1.1747
  115OSM   C10S12026   5.249   2.197   9.798  0.2085 -0.0521  0.5090
  115OSM   H10S12027   5.149   2.157   9.770 -0.7201  2.3403  0.1946
  115OSM   H10T12028   5.306   2.109   9.834  0.8250 -0.0545 -0.4267
  115OSM   C11S12029   5.302   2.253   9.670 -0.9209 -0.4958  0.3451
  115OSM   H11S12030   5.401   2.300   9.691 -0.9351 -0.1789 -0.2833
  115OSM   H11T12031   5.230   2.334   9.646 -1.0868 -0.0599  2.1359
  115OSM   C12S12032   5.320   2.148   9.554 -0.8204  0.2977  0.1574
  115OSM   H12S12033   5.236   2.076   9.546 -0.9878  0.4784  0.2952
  115OSM   H12T12034   5.405   2.080   9.577 -0.3187  1.0663  0.6038
  115OSM   C13S12035   5.347   2.226   9.423 -0.1507 -0.0249 -0.3192
  115OSM   H13S12036   5.450   2.266   9.408 -0.4307  0.8540  0.0873
  115OSM   H13T12037   5.264   2.298   9.408 -0.7034 -0.9747 -2.0575
  115OSM   C14S12038   5.349   2.120   9.306 -0.5526 -0.3619  0.0446
  115OSM   H14S12039   5.244   2.092   9.282 -0.8678 -0.0805  1.0571
  115OSM   H14T12040   5.402   2.030   9.343 -1.5168 -0.5650  0.9818
  115OSM   C15S12041   5.420   2.173   9.181 -0.0015 -0.0166 -0.1062
  115OSM   H15S12042   5.530   2.176   9.197  0.1234 -0.2409 -0.8633
  115OSM   H15T12043   5.384   2.277   9.161 -0.4355  0.0965  1.1574
  115OSM   C16S12044   5.376   2.089   9.061  0.0923  0.1014 -0.2139
  115OSM   H16S12045   5.265   2.088   9.058  0.1127  0.3211 -1.4033
  115OSM   H16T12046   5.402   1.981   9.068 -2.3798 -0.5098  0.6983
  115OSM   C17S12047   5.433   2.149   8.931 -0.0148  0.1621 -0.7256
  115OSM   H17S12048   5.542   2.132   8.947  0.2674  1.9810 -0.5091
  115OSM   H17T12049   5.423   2.260   8.927  1.2651  0.3515  0.5325
  115OSM   C18S12050   5.381   2.082   8.802  0.5271 -0.0811 -0.8399
  115OSM   H18S12051   5.396   2.152   8.717  2.5263  1.0519  0.3539
  115OSM   H18T12052   5.276   2.049   8.810 -0.0325  1.6214 -0.8087
  115OSM   H18U12053   5.437   1.987   8.786  3.9573  0.9368  3.2533
  115OSM    C1F12054   5.458   2.962  10.361  0.6908 -0.5359 -0.0352
  115OSM     OF12055   5.553   2.957  10.433  0.2040 -0.0546  0.4297
  115OSM    C2F12056   5.460   3.034  10.232 -0.0883  0.0157  0.7137
  115OSM    H2F12057   5.398   3.125  10.250  0.1669  0.1724  0.8070
  115OSM    H2G12058   5.412   2.974  10.152 -1.4650  0.6638  1.0295
  115OSM    C3F12059   5.603   3.077  10.186  0.4477 -0.2594 -0.4722
  115OSM    H3F12060   5.672   2.992  10.204  0.3262 -1.0137 -3.1970
  115OSM    H3G12061   5.652   3.159  10.242  0.9240 -0.1095 -1.0990
  115OSM    C4F12062   5.610   3.101  10.036  0.3917 -0.3315 -0.7742
  115OSM    H4F12063   5.522   3.163  10.009 -0.7300 -1.5955 -0.1431
  115OSM    H4G12064   5.589   3.005   9.985  0.3764 -0.6237 -0.2287
  115OSM    C5F12065   5.745   3.146   9.981 -0.0965  0.2395 -0.3124
  115OSM    H5F12066   5.822   3.077  10.023 -0.6113  1.1406  2.3113
  115OSM    H5G12067   5.769   3.247  10.022  0.1396 -0.5664  1.6522
  115OSM    C6F12068   5.745   3.129   9.826 -0.2663 -0.3253  0.1090
  115OSM    H6F12069   5.701   3.219   9.777 -0.7318 -0.7197 -0.2070
  115OSM    H6G12070   5.688   3.041   9.791  1.1770 -1.8194  1.3851
  115OSM    C7F12071   5.887   3.137   9.761  0.1079 -0.4032 -0.5538
  115OSM    H7F12072   5.959   3.073   9.817 -1.4322  0.1310  2.1928
  115OSM    H7G12073   5.928   3.239   9.774 -0.8579 -0.2791  1.9186
  115OSM    C8F12074   5.881   3.087   9.620 -0.5935 -0.8541 -0.7348
  115OSM    H8F12075   5.811   3.148   9.560  1.8769  2.1809 -0.7711
  115OSM    H8G12076   5.844   2.983   9.632  0.3726 -1.0339  1.0393
  115OSM    C9F12077   6.016   3.086   9.569 -0.4141 -1.0651 -0.1153
  115OSM    H9F12078   6.067   2.988   9.566  0.1466 -0.7662 -0.6407
  115OSM   C10F12079   6.079   3.186   9.498 -0.4657  0.9027  0.1103
  115OSM   H10F12080   6.182   3.166   9.465 -0.9975  1.4374 -2.0269
  115OSM   C11F12081   6.025   3.320   9.463 -0.7449  0.0215 -0.3758
  115OSM   H11F12082   6.036   3.393   9.545  2.5338 -1.1095  0.3244
  115OSM   H11G12083   5.917   3.307   9.439 -0.7371 -3.1611  0.7970
  115OSM   C12F12084   6.085   3.378   9.328 -0.0790  0.3408 -0.3105
  115OSM   H12F12085   6.196   3.373   9.336 -0.1252  0.5608  0.6153
  115OSM   H12G12086   6.034   3.473   9.304 -1.2984 -0.7001 -2.0879
  115OSM   C13F12087   6.062   3.286   9.212  0.3097  0.3198  0.9164
  115OSM   H13F12088   5.954   3.264   9.200  0.7001 -1.5615  0.4897
  115OSM   H13G12089   6.103   3.185   9.234  1.5768  0.4995 -0.4500
  115OSM   C14F12090   6.101   3.349   9.078  0.2726  0.5280 -0.2602
  115OSM   H14F12091   6.201   3.398   9.083  0.0752  0.8481  1.1518
  115OSM   H14G12092   6.036   3.433   9.048  0.1570  0.4642 -0.1870
  115OSM   C15F12093   6.110   3.239   8.966  0.1818 -0.1098 -0.5311
  115OSM   H15F12094   6.012   3.188   8.955 -0.2988  0.5211  0.6274
  115OSM   H15G12095   6.183   3.163   9.000  1.3626  0.6397 -1.3239
  115OSM   C16F12096   6.166   3.281   8.829 -0.5533  0.2512  0.7558
  115OSM   H16F12097   6.263   3.334   8.842  0.0554 -0.4087 -0.7875
  115OSM   H16G12098   6.107   3.354   8.770 -0.3117 -1.0359 -1.1719
  115OSM   C17F12099   6.195   3.158   8.738  0.2469 -0.1177 -0.0877
  115OSM   H17F12100   6.105   3.120   8.686  0.4613 -1.2887  0.3545
  115OSM   H17G12101   6.232   3.077   8.805 -1.2713  0.6785  1.8162
  115OSM   C18F12102   6.297   3.206   8.623  0.0618 -0.0158  0.0898
  115OSM   H18F12103   6.396   3.233   8.667  0.9055 -1.0314 -1.0840
  115OSM   H18G12104   6.256   3.278   8.550  0.3977  1.5395  1.3886
  115OSM   H18H12105   6.320   3.121   8.555  0.6571 -0.2806  0.6064
  116OSM      N12106   1.753   6.281  11.076 -0.1903 -0.2240 -0.1853
  116OSM    C1512107   1.620   6.218  11.130  0.1355  0.4264 -0.1211
  116OSM   H15A12108   1.596   6.129  11.074 -1.1845  1.1437 -0.7424
  116OSM   H15B12109   1.540   6.288  11.113  0.5339  0.6783 -1.0062
  116OSM   H15C12110   1.637   6.195  11.235 -2.0390 -1.9231 -0.1883
  116OSM    C1412111   1.793   6.398  11.157 -0.3983 -0.3608 -0.6316
  116OSM   H14A12112   1.879   6.439  11.107  0.4975 -0.4943  0.7463
  116OSM   H14B12113   1.817   6.382  11.261 -1.2431 -2.6223 -0.7242
  116OSM   H14C12114   1.714   6.470  11.147 -0.0168  0.2330  0.5009
  116OSM    C1312115   1.857   6.172  11.098  0.7031 -0.5179  0.8865
  116OSM   H13A12116   1.818   6.074  11.074 -1.4007  0.0760  1.6405
  116OSM   H13B12117   1.883   6.159  11.202  1.9883 -2.4947  0.3629
  116OSM   H13C12118   1.949   6.200  11.049  0.5802 -1.7523 -0.0935
  116OSM    C1212119   1.741   6.321  10.931 -0.1396 -0.0903  1.1057
  116OSM   H12A12120   1.696   6.251  10.861 -0.1883  2.7937 -2.0122
  116OSM   H12B12121   1.838   6.328  10.885 -0.2588  0.7415  0.9566
  116OSM    C1112122   1.670   6.453  10.897 -0.8906 -0.0494 -0.4748
  116OSM   H11A12123   1.668   6.467  10.787 -1.8735 -0.3799 -0.5083
  116OSM   H11B12124   1.734   6.533  10.941 -1.1125 -0.2002  0.1278
  116OSM      P12125   1.411   6.424  10.877  0.1447  0.3846  0.0660
  116OSM    O1312126   1.311   6.371  10.976 -0.2062 -0.0417 -0.0013
  116OSM    O1412127   1.368   6.532  10.788 -0.3707 -0.3652 -0.2305
  116OSM    O1112128   1.474   6.308  10.794 -0.0119 -0.3256 -0.4238
  116OSM    O1212129   1.544   6.476  10.948  0.2669 -0.1242 -0.3794
  116OSM    C1S12130   1.445   6.300  10.658 -0.0553  0.4580 -0.7465
  116OSM    H1S12131   1.493   6.386  10.606  2.1629 -0.8758 -1.0482
  116OSM    H1T12132   1.338   6.301  10.630 -0.6196  2.7936  1.2444
  116OSM     NF12133   1.491   6.164  10.444 -0.2583  0.4971 -0.3201
  116OSM    HNF12134   1.435   6.086  10.416  3.1479 -1.9275 -0.9662
  116OSM    C2S12135   1.507   6.174  10.586  0.0876  0.4723 -0.5805
  116OSM    H2S12136   1.616   6.172  10.608 -0.1199  1.2735  0.6591
  116OSM    C3S12137   1.439   6.050  10.661  0.3664  0.1420 -0.8884
  116OSM    H3S12138   1.330   6.050  10.639 -0.1942 -1.0408  1.5794
  116OSM     O312139   1.463   6.051  10.801  0.0049  0.2107  0.2579
  116OSM    HO312140   1.474   6.143  10.824  2.7300 -0.1585  0.8068
  116OSM    C4S12141   1.503   5.920  10.621 -0.7557  0.1663 -1.0717
  116OSM    H4S12142   1.609   5.913  10.651 -0.9311 -1.4493 -0.7739
  116OSM    C5S12143   1.451   5.813  10.554 -0.3919 -0.1981  0.5199
  116OSM    H5S12144   1.344   5.808  10.528 -0.5290 -1.0880  1.2291
  116OSM    C6S12145   1.532   5.697  10.522 -0.5639  0.3151 -0.0897
  116OSM    H6S12146   1.503   5.605  10.577 -1.6820  0.6634 -0.0764
  116OSM    H6T12147   1.642   5.713  10.527 -0.4435 -0.8386  2.0984
  116OSM    C7S12148   1.508   5.656  10.373 -0.5043  0.3038 -0.0409
  116OSM    H7S12149   1.404   5.664  10.333 -0.0693  0.8938 -1.1088
  116OSM    H7T12150   1.543   5.551  10.374  1.1488  0.8322  1.1342
  116OSM    C8S12151   1.584   5.741  10.276  0.3849  0.5371  0.3594
  116OSM    H8S12152   1.691   5.765  10.293  0.1914  1.2616  0.5797
  116OSM    H8T12153   1.522   5.831  10.258 -1.6704 -0.9527 -0.4417
  116OSM    C9S12154   1.582   5.676  10.139  0.1471 -0.7493 -0.5758
  116OSM    H9S12155   1.481   5.638  10.110 -0.8691  0.2427  1.4622
  116OSM    H9T12156   1.668   5.606  10.138  1.0957  0.2830  1.6482
  116OSM   C10S12157   1.618   5.771  10.022 -0.1922  0.6710 -0.8865
  116OSM   H10S12158   1.715   5.816  10.050  1.3711 -1.7450 -2.0792
  116OSM   H10T12159   1.533   5.843  10.026  0.5520  1.6194 -1.7382
  116OSM   C11S12160   1.634   5.719   9.876 -0.2609 -0.5072 -0.0120
  116OSM   H11S12161   1.529   5.701   9.846 -0.0924 -2.2187  0.3299
  116OSM   H11T12162   1.687   5.622   9.880  0.3820 -0.1341  1.5967
  116OSM   C12S12163   1.701   5.823   9.779 -0.1301 -0.4065  0.1659
  116OSM   H12S12164   1.792   5.876   9.816 -0.4682 -1.4500  2.7341
  116OSM   H12T12165   1.622   5.900   9.769 -1.2097 -1.4799  0.2679
  116OSM   C13S12166   1.720   5.779   9.636 -0.1058  0.3864  0.5056
  116OSM   H13S12167   1.626   5.732   9.601  0.0517 -0.5372  1.2911
  116OSM   H13T12168   1.795   5.697   9.632  0.0067  0.5333 -2.4580
  116OSM   C14S12169   1.758   5.883   9.534 -0.4499  0.1870  0.1644
  116OSM   H14S12170   1.855   5.934   9.554  0.7887 -0.4932 -3.4193
  116OSM   H14T12171   1.682   5.960   9.557  3.8060  4.5811  1.4176
  116OSM   C15S12172   1.749   5.822   9.388 -0.1950 -0.6286  0.1937
  116OSM   H15S12173   1.679   5.738   9.374 -1.0267  0.3237 -1.8538
  116OSM   H15T12174   1.851   5.782   9.367 -0.4545 -0.7091 -0.9861
  116OSM   C16S12175   1.730   5.933   9.280 -0.4148  0.0419 -0.2089
  116OSM   H16S12176   1.794   6.020   9.305 -0.6751  0.3305 -0.5494
  116OSM   H16T12177   1.625   5.969   9.286 -0.2106  0.4100  2.0930
  116OSM   C17S12178   1.762   5.888   9.139 -0.4033  0.0756 -0.5853
  116OSM   H17S12179   1.711   5.791   9.117 -2.3589  1.1513 -1.0649
  116OSM   H17T12180   1.870   5.863   9.137 -0.5521 -1.3972  3.0707
  116OSM   C18S12181   1.715   5.981   9.027  0.1726 -0.1793  0.7630
  116OSM   H18S12182   1.712   5.937   8.925  0.4656  3.4752 -1.0035
  116OSM   H18T12183   1.776   6.074   9.027  0.3339 -0.2864  0.6903
  116OSM   H18U12184   1.608   6.012   9.037 -0.2132 -1.7718  1.8123
  116OSM    C1F12185   1.545   6.246  10.358 -0.4446  0.2239 -0.0184
  116OSM     OF12186   1.605   6.352  10.387 -0.1484  0.0755  0.8137
  116OSM    C2F12187   1.526   6.206  10.215 -0.1893  0.3237  0.0250
  116OSM    H2F12188   1.430   6.246  10.175 -0.1692  0.3947  0.0480
  116OSM    H2G12189   1.530   6.096  10.201 -0.3891  0.5852 -2.7889
  116OSM    C3F12190   1.633   6.262  10.119  0.2320  0.1468  0.0310
  116OSM    H3F12191   1.737   6.247  10.155 -0.6681 -2.5882  1.8217
  116OSM    H3G12192   1.612   6.371  10.118  0.3772  0.2922  3.0684
  116OSM    C4F12193   1.617   6.211   9.975  0.2447  0.4228 -0.1449
  116OSM    H4F12194   1.511   6.223   9.946  0.0843  0.2358  0.3534
  116OSM    H4G12195   1.626   6.102   9.992  2.9106  0.8448  1.8146
  116OSM    C5F12196   1.713   6.279   9.885 -1.1637 -0.5637 -0.0317
  116OSM    H5F12197   1.814   6.259   9.928  0.6492  2.9504 -2.1438
  116OSM    H5G12198   1.697   6.389   9.883  0.0515 -0.3768 -1.5499
  116OSM    C6F12199   1.694   6.223   9.749 -0.7762 -0.1453  0.1819
  116OSM    H6F12200   1.597   6.255   9.705  0.2994  0.6271 -1.7354
  116OSM    H6G12201   1.697   6.112   9.747 -1.8992 -0.1877 -0.3133
  116OSM    C7F12202   1.795   6.273   9.654  1.4164  0.0727  0.5189
  116OSM    H7F12203   1.890   6.224   9.683  0.5853 -1.3233  0.9691
  116OSM    H7G12204   1.811   6.383   9.666 -2.1285  0.7557  0.2018
  116OSM    C8F12205   1.755   6.237   9.507 -0.1949 -0.2686 -0.4257
  116OSM    H8F12206   1.660   6.286   9.479 -0.2801 -0.1220  0.1095
  116OSM    H8G12207   1.743   6.129   9.486  1.6672 -0.5204 -0.3899
  116OSM    C9F12208   1.867   6.277   9.408 -0.3998 -0.3003 -0.6452
  116OSM    H9F12209   1.959   6.224   9.437  0.1399  1.4149  0.9868
  116OSM   C10F12210   1.868   6.364   9.310 -0.0389 -0.7740 -0.2747
  116OSM   H10F12211   1.960   6.395   9.258  1.0312 -0.0637  1.9031
  116OSM   C11F12212   1.746   6.439   9.263  0.3004 -0.2444  0.2540
  116OSM   H11F12213   1.719   6.524   9.329  0.9548  0.4067 -0.2791
  116OSM   H11G12214   1.659   6.371   9.262 -0.8307  1.1522 -1.2562
  116OSM   C12F12215   1.780   6.484   9.118 -0.4978  0.3383  0.0049
  116OSM   H12F12216   1.875   6.540   9.120  2.3824 -4.0612 -0.2770
  116OSM   H12G12217   1.699   6.550   9.081 -0.6930  0.1022  0.0050
  116OSM   C13F12218   1.796   6.370   9.016  0.0781 -0.5196 -0.7199
  116OSM   H13F12219   1.696   6.332   8.987  0.1059 -1.4022  0.2876
  116OSM   H13G12220   1.852   6.284   9.059  0.3176 -0.1624 -0.3062
  116OSM   C14F12221   1.867   6.417   8.888  0.1755 -0.4120 -0.8033
  116OSM   H14F12222   1.894   6.322   8.838  0.8145 -2.0514  2.4073
  116OSM   H14G12223   1.953   6.481   8.916 -0.6091  0.4091 -0.2193
  116OSM   C15F12224   1.792   6.523   8.808 -0.7838  0.8191  0.7291
  116OSM   H15F12225   1.779   6.616   8.868  1.6894  1.0306  1.0100
  116OSM   H15G12226   1.690   6.480   8.798 -0.9343  1.4357 -0.4750
  116OSM   C16F12227   1.849   6.576   8.677  0.6212  0.5108 -0.4550
  116OSM   H16F12228   1.878   6.489   8.614  1.4632  2.6097 -3.1717
  116OSM   H16G12229   1.943   6.627   8.705  0.0420  0.5587  1.5635
  116OSM   C17F12230   1.761   6.664   8.588 -0.3233  0.0926 -0.4498
  116OSM   H17F12231   1.677   6.602   8.550 -1.3468  0.7310  0.7237
  116OSM   H17G12232   1.822   6.705   8.505 -0.6338 -0.1070 -0.7785
  116OSM   C18F12233   1.697   6.783   8.666  0.9493  0.0617 -0.7009
  116OSM   H18F12234   1.637   6.853   8.605 -0.1138 -0.2057 -0.0004
  116OSM   H18G12235   1.779   6.845   8.710 -0.5697  1.9339 -0.4081
  116OSM   H18H12236   1.621   6.753   8.742  0.1184  0.9944 -1.1523
  117OSM      N12237   4.621   0.889  11.116  0.0862  0.6760  0.5965
  117OSM    C1512238   4.624   1.031  11.159  0.2942  0.3581 -0.0801
  117OSM   H15A12239   4.537   1.042  11.223  0.2113  0.8825 -0.2810
  117OSM   H15B12240   4.613   1.107  11.083 -2.2812  2.0168  1.7719
  117OSM   H15C12241   4.718   1.053  11.209  0.7917  0.9025 -1.2296
  117OSM    C1412242   4.619   0.803  11.232 -0.7020 -0.1056 -0.1266
  117OSM   H14A12243   4.621   0.698  11.206 -0.4107 -0.0285 -0.4183
  117OSM   H14B12244   4.525   0.821  11.283 -1.3453  3.0090 -2.1240
  117OSM   H14C12245   4.694   0.827  11.306  0.8471  1.0353 -1.9781
  117OSM    C1312246   4.501   0.873  11.026 -0.4341  0.0844  0.7114
  117OSM   H13A12247   4.404   0.894  11.068 -0.9664 -1.0959  0.1150
  117OSM   H13B12248   4.482   0.779  10.976 -1.1710  0.8880 -0.5943
  117OSM   H13C12249   4.501   0.938  10.940 -0.4001 -0.1984  0.4964
  117OSM    C1212250   4.739   0.857  11.029  0.1252  0.8621  0.0752
  117OSM   H12A12251   4.722   0.906  10.934 -0.0807 -0.0534 -0.3631
  117OSM   H12B12252   4.732   0.754  10.998  0.3361  0.4626  1.3142
  117OSM    C1112253   4.881   0.891  11.076 -0.5809  0.4390  0.4214
  117OSM   H11A12254   4.897   0.993  11.118  0.8853  0.9656 -1.3038
  117OSM   H11B12255   4.937   0.884  10.980 -0.5826  0.2698  0.4315
  117OSM      P12256   5.028   0.680  11.141 -0.3013  0.1838 -0.5077
  117OSM    O1312257   5.139   0.681  11.242  0.6145  0.1794  0.1639
  117OSM    O1412258   4.942   0.559  11.138 -0.3094 -0.1567 -0.3797
  117OSM    O1112259   5.084   0.714  10.990  0.5294  0.5479 -0.0954
  117OSM    O1212260   4.930   0.798  11.176  0.1451  0.3149 -0.0875
  117OSM    C1S12261   5.160   0.611  10.924  0.5348 -0.3653 -0.0780
  117OSM    H1S12262   5.145   0.508  10.963  0.3785 -0.9088 -1.4945
  117OSM    H1T12263   5.270   0.632  10.924  0.1871  1.8515 -1.2526
  117OSM     NF12264   5.207   0.488  10.713  0.1523 -0.1108  0.2641
  117OSM    HNF12265   5.283   0.530  10.665  0.0822  1.2217  1.2631
  117OSM    C2S12266   5.121   0.592  10.768 -0.0327  0.0264  0.1778
  117OSM    H2S12267   5.018   0.550  10.761 -0.0034 -0.1393  0.7153
  117OSM    C3S12268   5.119   0.716  10.677 -0.0227 -0.6287 -0.3665
  117OSM    H3S12269   5.225   0.742  10.656 -0.2618 -1.3580 -2.8016
  117OSM     O312270   5.065   0.834  10.742 -0.4529 -0.0506  0.5868
  117OSM    HO312271   5.071   0.823  10.837  0.3857  2.2099  0.8633
  117OSM    C4S12272   5.043   0.702  10.546 -0.5662 -0.0562 -0.3429
  117OSM    H4S12273   4.933   0.696  10.554 -0.6612 -0.1244 -1.4751
  117OSM    C5S12274   5.104   0.680  10.426  0.4866 -0.3113 -0.6313
  117OSM    H5S12275   5.214   0.670  10.427  0.5279  0.1644 -0.5309
  117OSM    C6S12276   5.033   0.646  10.295 -1.0811 -0.1631 -0.2258
  117OSM    H6S12277   5.034   0.733  10.225 -0.4163 -0.7993 -1.0223
  117OSM    H6T12278   4.926   0.615  10.303 -1.3569  0.6406 -0.6516
  117OSM    C7S12279   5.112   0.541  10.217  0.4077  0.4794 -0.3822
  117OSM    H7S12280   5.124   0.452  10.283 -0.9065  0.7390  0.2372
  117OSM    H7T12281   5.214   0.582  10.196  0.5569  0.7856  0.8241
  117OSM    C8S12282   5.061   0.507  10.075 -0.1212  0.0297  0.0331
  117OSM    H8S12283   4.963   0.454  10.081 -0.5327  0.8093  0.2197
  117OSM    H8T12284   5.131   0.436  10.026 -1.3381 -0.3857 -1.1953
  117OSM    C9S12285   5.046   0.622   9.981 -0.6739  0.1499 -0.4888
  117OSM    H9S12286   5.144   0.674   9.986 -0.3704 -0.4316 -0.2638
  117OSM    H9T12287   4.964   0.693  10.002 -0.3843  1.3174 -2.9547
  117OSM   C10S12288   5.028   0.572   9.836 -0.0019  0.0702  1.0824
  117OSM   H10S12289   4.932   0.518   9.820 -0.1996  0.2714  1.5734
  117OSM   H10T12290   5.104   0.496   9.808  0.3048  0.9739 -0.6183
  117OSM   C11S12291   5.038   0.694   9.743 -0.4094 -0.7595  0.1438
  117OSM   H11S12292   5.139   0.737   9.762 -1.2625  1.3149  0.2327
  117OSM   H11T12293   4.959   0.769   9.762 -0.3085 -0.7339  0.4571
  117OSM   C12S12294   5.021   0.654   9.591 -0.1221 -0.6715 -0.1357
  117OSM   H12S12295   4.931   0.588   9.583 -0.5396 -0.1260  0.0217
  117OSM   H12T12296   5.110   0.595   9.560  1.0333 -0.9107  3.1839
  117OSM   C13S12297   5.006   0.780   9.504 -0.7904 -0.2675  0.2277
  117OSM   H13S12298   5.105   0.830   9.492 -0.5633 -0.8493 -0.3823
  117OSM   H13T12299   4.941   0.858   9.549  0.9660  1.3150  0.1826
  117OSM   C14S12300   4.957   0.745   9.361 -0.4778  0.2390 -0.8403
  117OSM   H14S12301   4.851   0.714   9.363  0.6246 -4.2860 -1.3416
  117OSM   H14T12302   5.005   0.648   9.334 -0.0807  0.1379  0.1961
  117OSM   C15S12303   4.995   0.856   9.263 -0.1247  0.7342 -0.4204
  117OSM   H15S12304   5.104   0.874   9.266 -0.1977  1.5477 -1.7382
  117OSM   H15T12305   4.952   0.957   9.283 -2.0397 -0.3165  1.0913
  117OSM   C16S12306   4.945   0.817   9.123 -0.2706  0.0661  0.3280
  117OSM   H16S12307   4.834   0.816   9.118 -0.2138 -0.7112 -2.3864
  117OSM   H16T12308   4.971   0.712   9.095 -1.2311 -0.5706  1.7123
  117OSM   C17S12309   4.987   0.902   9.000  0.2250  0.9516  0.5989
  117OSM   H17S12310   5.096   0.882   8.988 -0.3662 -3.3141  0.6661
  117OSM   H17T12311   4.971   1.008   9.026 -1.2726  1.0473 -0.5847
  117OSM   C18S12312   4.911   0.854   8.870 -0.0064 -0.2148 -0.1844
  117OSM   H18S12313   4.805   0.886   8.876  0.2364  0.5598  0.0866
  117OSM   H18T12314   4.916   0.744   8.855  0.0758 -0.5400  1.9150
  117OSM   H18U12315   4.950   0.905   8.780 -1.5581  0.9780 -0.2234
  117OSM    C1F12316   5.213   0.361  10.755 -0.7540  0.0440  0.0445
  117OSM     OF12317   5.125   0.310  10.821 -0.0202 -0.2998  0.6694
  117OSM    C2F12318   5.345   0.284  10.721  0.1276 -0.2272 -0.1213
  117OSM    H2F12319   5.379   0.236  10.815 -2.1839  0.4599  1.1546
  117OSM    H2G12320   5.423   0.358  10.696 -0.7881  0.8979  0.2778
  117OSM    C3F12321   5.325   0.177  10.613 -0.5323 -0.2329 -0.3199
  117OSM    H3F12322   5.245   0.104  10.640 -0.2402  0.5600  3.1552
  117OSM    H3G12323   5.426   0.132  10.608  0.7253  1.9313  2.6852
  117OSM    C4F12324   5.296   0.239  10.472 -0.1246 -0.3240 -0.2776
  117OSM    H4F12325   5.386   0.300  10.450  2.2680 -2.8942  1.8021
  117OSM    H4G12326   5.206   0.304  10.483 -0.8815 -1.7262  3.0485
  117OSM    C5F12327   5.275   0.128  10.367 -0.2620 -0.1259  0.2228
  117OSM    H5F12328   5.199   0.056  10.402  0.4971 -0.6937  0.7469
  117OSM    H5G12329   5.371   0.075  10.347 -0.8595 -1.0427 -0.2655
  117OSM    C6F12330   5.236   0.173  10.223  0.5124 -0.6848  1.0241
  117OSM    H6F12331   5.315   0.246  10.195 -0.3953  0.4436  1.3295
  117OSM    H6G12332   5.143   0.232  10.240  2.2409  2.4862  0.3125
  117OSM    C7F12333   5.211   0.059  10.127 -0.2986  0.2025 -0.2143
  117OSM    H7F12334   5.128  -0.000  10.170  0.3599 -2.2728 -2.1179
  117OSM    H7G12335   5.298  -0.010  10.121  1.0010  1.6567  0.9189
  117OSM    C8F12336   5.173   0.110   9.987  0.0337  0.1830  0.0720
  117OSM    H8F12337   5.259   0.172   9.955 -0.6983 -0.3520 -3.3312
  117OSM    H8G12338   5.086   0.177  10.007  2.2413  3.1212  0.3681
  117OSM    C9F12339   5.141  -0.007   9.904  0.1040 -0.0821  0.8179
  117OSM    H9F12340   5.091  -0.090   9.954  1.2547 -0.0751  2.0302
  117OSM   C10F12341   5.181  -0.035   9.774  0.1917 -1.2223 -0.2417
  117OSM   H10F12342   5.150  -0.128   9.725  1.3051 -1.2874 -0.8414
  117OSM   C11F12343   5.262   0.051   9.683 -0.3316 -0.4111  1.5172
  117OSM   H11F12344   5.350  -0.004   9.644 -0.1446  1.5018 -0.9927
  117OSM   H11G12345   5.299   0.143   9.731  0.8080 -0.0530  0.0185
  117OSM   C12F12346   5.177   0.102   9.562 -0.0619  0.1786 -0.1282
  117OSM   H12F12347   5.232   0.184   9.512 -1.3460  1.4744  0.5236
  117OSM   H12G12348   5.081   0.130   9.610  1.2170  1.1903  1.9459
  117OSM   C13F12349   5.150  -0.005   9.456 -0.1188 -0.3567 -0.1651
  117OSM   H13F12350   5.080  -0.077   9.503  0.2066  0.3941  1.5714
  117OSM   H13G12351   5.248  -0.052   9.431 -1.2840 -2.9386 -0.2166
  117OSM   C14F12352   5.097   0.071   9.333 -0.1488  0.4414 -0.2996
  117OSM   H14F12353   5.181   0.119   9.278 -1.2174  1.8865 -0.7305
  117OSM   H14G12354   5.024   0.150   9.360  2.6554  2.6731  1.4121
  117OSM   C15F12355   5.037  -0.022   9.226  0.1377  0.5397  0.1543
  117OSM   H15F12356   4.939  -0.052   9.268  0.7597 -1.5873  0.2102
  117OSM   H15G12357   5.099  -0.113   9.208 -0.3583  0.0454  0.8781
  117OSM   C16F12358   5.003   0.046   9.091 -0.1284  0.1809  0.3118
  117OSM   H16F12359   5.094   0.061   9.029  0.2550  3.2541  1.4257
  117OSM   H16G12360   4.957   0.141   9.127 -2.6918 -1.4461  1.6646
  117OSM   C17F12361   4.883  -0.017   9.012 -0.1711  0.6576 -0.2147
  117OSM   H17F12362   4.798  -0.021   9.084 -0.0564  2.5063  0.0841
  117OSM   H17G12363   4.909  -0.122   8.989 -1.2519  0.6179 -1.3767
  117OSM   C18F12364   4.842   0.046   8.882 -0.6681 -0.2287  0.1843
  117OSM   H18F12365   4.935   0.066   8.823  0.3159 -2.4958  0.8710
  117OSM   H18G12366   4.787   0.142   8.894 -1.8051 -0.4769 -2.4066
  117OSM   H18H12367   4.778  -0.023   8.824 -2.2471  0.0614  1.5156
  118OSM      N12368   6.126   1.452  11.184 -0.1521 -0.0176  0.2320
  118OSM    C1512369   6.209   1.431  11.308  0.0228  0.0299  0.2408
  118OSM   H15A12370   6.234   1.531  11.343  0.7238 -0.0747  0.0527
  118OSM   H15B12371   6.299   1.376  11.285  0.2181  0.4890 -0.1280
  118OSM   H15C12372   6.149   1.377  11.380  0.5752 -0.2701  0.4816
  118OSM    C1412373   6.065   1.330  11.145 -0.3005 -0.1245  0.0564
  118OSM   H14A12374   6.137   1.277  11.084 -0.2710 -1.4288  1.1905
  118OSM   H14B12375   5.965   1.342  11.105  0.8329  2.7666 -2.3586
  118OSM   H14C12376   6.051   1.268  11.232  0.6945  1.9704  1.7991
  118OSM    C1312377   6.019   1.543  11.242 -0.4213 -0.1825  0.1345
  118OSM   H13A12378   5.936   1.569  11.177  0.2972  2.4003  0.1571
  118OSM   H13B12379   6.068   1.632  11.278  1.1214 -1.1062  0.4068
  118OSM   H13C12380   5.979   1.489  11.327  2.7545  0.0536  1.9376
  118OSM    C1212381   6.200   1.521  11.071  0.6369  0.7600 -0.7794
  118OSM   H12A12382   6.137   1.516  10.983  0.2888  0.3594 -0.5108
  118OSM   H12B12383   6.279   1.451  11.048  0.2939  0.3137 -0.5999
  118OSM    C1112384   6.264   1.657  11.086  0.1012 -0.0916 -0.3360
  118OSM   H11A12385   6.191   1.729  11.130 -1.6694 -0.7223 -2.1127
  118OSM   H11B12386   6.289   1.698  10.986 -1.6553  0.0258 -0.7485
  118OSM      P12387   6.527   1.613  11.107 -0.0824  0.0332 -0.1991
  118OSM    O1312388   6.625   1.698  11.180 -0.1688  0.0268  0.6494
  118OSM    O1412389   6.551   1.471  11.109 -0.5430  0.0778 -0.0205
  118OSM    O1112390   6.525   1.657  10.960  0.4818  0.4615  0.6199
  118OSM    O1212391   6.378   1.641  11.173 -0.1352  0.4161  0.6228
  118OSM    C1S12392   6.528   1.571  10.848  0.2591  1.6161  0.2254
  118OSM    H1S12393   6.448   1.494  10.856  0.3455  1.6353  1.3538
  118OSM    H1T12394   6.618   1.506  10.842  1.3061  3.0378 -0.0992
  118OSM     NF12395   6.493   1.556  10.604  0.2590 -0.0441 -0.0223
  118OSM    HNF12396   6.584   1.562  10.564  1.7251 -1.1901  2.8345
  118OSM    C2S12397   6.496   1.650  10.718 -0.2270 -0.3075  0.4945
  118OSM    H2S12398   6.394   1.690  10.734 -0.2008 -1.0850  3.0973
  118OSM    C3S12399   6.598   1.758  10.700 -0.5637  0.2416  0.1892
  118OSM    H3S12400   6.698   1.716  10.679 -0.6291  0.4282 -0.5032
  118OSM     O312401   6.610   1.839  10.811 -0.1243  0.6508 -0.7953
  118OSM    HO312402   6.590   1.772  10.877 -1.0355  1.1953 -0.4932
  118OSM    C4S12403   6.560   1.852  10.584  0.2927  0.2077  0.3704
  118OSM    H4S12404   6.460   1.898  10.583 -0.7177 -1.6158 -3.1380
  118OSM    C5S12405   6.636   1.877  10.477 -0.1798  0.1485 -0.1724
  118OSM    H5S12406   6.735   1.827  10.483 -2.2684 -4.2891  2.3848
  118OSM    C6S12407   6.600   1.967  10.356 -0.2012  0.6760  0.1521
  118OSM    H6S12408   6.643   2.067  10.379  1.2336  0.0263  0.4034
  118OSM    H6T12409   6.490   1.976  10.344 -0.3003 -0.5434  0.0755
  118OSM    C7S12410   6.658   1.919  10.223 -0.1108  0.1049 -0.2332
  118OSM    H7S12411   6.629   1.811  10.220  2.3044 -0.7306  2.0521
  118OSM    H7T12412   6.767   1.921  10.245  0.1356 -0.1678 -1.3289
  118OSM    C8S12413   6.620   1.999  10.098 -0.1083 -0.0016  0.3335
  118OSM    H8S12414   6.645   2.106  10.113 -2.7858  0.5189  1.9493
  118OSM    H8T12415   6.510   1.989  10.082 -0.0765 -0.4529  0.3960
  118OSM    C9S12416   6.682   1.939   9.969  0.5834 -0.3928  0.2186
  118OSM    H9S12417   6.672   1.830   9.948 -1.0380 -0.1585 -0.4293
  118OSM    H9T12418   6.791   1.954   9.983  0.4763 -0.3101  0.9853
  118OSM   C10S12419   6.650   2.035   9.854  0.0143 -1.2484 -0.1400
  118OSM   H10S12420   6.684   2.138   9.878 -1.0260 -0.8553 -0.3226
  118OSM   H10T12421   6.541   2.032   9.836 -0.2895 -0.4935  1.3866
  118OSM   C11S12422   6.732   1.989   9.720  0.0080  0.0505 -0.2099
  118OSM   H11S12423   6.710   1.880   9.711  1.8494 -0.4650  0.9645
  118OSM   H11T12424   6.841   1.991   9.739  0.9598 -2.7479 -4.2412
  118OSM   C12S12425   6.692   2.059   9.591  0.2277  0.4668 -0.8029
  118OSM   H12S12426   6.727   2.164   9.596 -1.7075  1.0884  2.6103
  118OSM   H12T12427   6.581   2.065   9.598  0.3348  2.2445 -0.3169
  118OSM   C13S12428   6.733   1.986   9.463  0.1917 -0.0450 -0.1388
  118OSM   H13S12429   6.666   1.898   9.451 -0.3742  0.4708 -0.8967
  118OSM   H13T12430   6.838   1.952   9.470  0.2752  0.5326  2.1128
  118OSM   C14S12431   6.705   2.074   9.337 -0.2766 -0.6722  0.3834
  118OSM   H14S12432   6.721   2.182   9.359  0.7472 -0.6388 -0.4707
  118OSM   H14T12433   6.600   2.059   9.303  0.1401 -0.6242 -0.9557
  118OSM   C15S12434   6.799   2.035   9.222 -0.6226 -1.0420  0.5440
  118OSM   H15S12435   6.776   1.932   9.186  1.1413 -0.8089 -1.4375
  118OSM   H15T12436   6.904   2.026   9.257 -0.1735 -0.5343 -0.6406
  118OSM   C16S12437   6.780   2.124   9.097 -0.1348 -0.2262 -0.1536
  118OSM   H16S12438   6.798   2.228   9.131 -0.2050 -1.3269  3.7135
  118OSM   H16T12439   6.677   2.110   9.058 -1.0081  0.4315  1.8225
  118OSM   C17S12440   6.872   2.098   8.977  0.0248  0.8484 -0.1668
  118OSM   H17S12441   6.863   1.993   8.942 -0.3592 -0.1423  2.6721
  118OSM   H17T12442   6.976   2.105   9.016  0.0153 -2.1796  0.6600
  118OSM   C18S12443   6.842   2.200   8.861  0.0863  0.1321 -0.8144
  118OSM   H18S12444   6.763   2.170   8.790 -1.8377  1.0322  0.8538
  118OSM   H18T12445   6.935   2.227   8.805  0.1528  0.3870 -0.5884
  118OSM   H18U12446   6.801   2.290   8.912  1.1193  0.4790 -0.5550
  118OSM    C1F12447   6.405   1.466  10.599  0.1149 -0.1285  1.0211
  118OSM     OF12448   6.312   1.458  10.675  0.3179  0.1620  0.1322
  118OSM    C2F12449   6.439   1.352  10.497 -0.0953  0.3557  0.2556
  118OSM    H2F12450   6.505   1.284  10.556 -0.4302 -0.5264 -0.3641
  118OSM    H2G12451   6.498   1.399  10.415  0.0887  0.4377  0.4340
  118OSM    C3F12452   6.314   1.295  10.442 -0.3292 -0.6594 -0.1746
  118OSM    H3F12453   6.244   1.376  10.411  1.5348  0.4421 -1.8198
  118OSM    H3G12454   6.256   1.242  10.520  1.2172  0.0329  1.5209
  118OSM    C4F12455   6.327   1.187  10.336 -0.6982  0.1192 -0.2193
  118OSM    H4F12456   6.226   1.143  10.322 -1.1535  0.9056  0.4800
  118OSM    H4G12457   6.391   1.112  10.388  0.5980  3.0564  2.7746
  118OSM    C5F12458   6.374   1.229  10.195  0.3725  0.3600  0.1032
  118OSM    H5F12459   6.464   1.295  10.202 -0.9390  2.1518  0.8514
  118OSM    H5G12460   6.292   1.290  10.150  0.2309  0.5559  0.6245
  118OSM    C6F12461   6.400   1.098  10.129  0.4846  0.4095 -0.0157
  118OSM    H6F12462   6.314   1.028  10.120  0.0032  1.2093 -2.1790
  118OSM    H6G12463   6.476   1.039  10.185 -2.4773 -1.8863  1.9092
  118OSM    C7F12464   6.445   1.120   9.982  0.2551 -0.5378 -0.2814
  118OSM    H7F12465   6.506   1.212   9.983  0.7493 -0.8592  0.9484
  118OSM    H7G12466   6.357   1.132   9.915 -1.3303  1.7815  2.0110
  118OSM    C8F12467   6.525   0.998   9.924 -0.5289 -0.3600  0.5062
  118OSM    H8F12468   6.467   0.905   9.907  0.5903 -1.0771  0.5093
  118OSM    H8G12469   6.598   0.964  10.000  0.4357  1.4231  0.4223
  118OSM    C9F12470   6.604   1.026   9.793  0.0206 -0.0057  0.9072
  118OSM    H9F12471   6.674   0.943   9.772  1.2431  0.8265  1.5999
  118OSM   C10F12472   6.602   1.128   9.696 -0.4336  0.4218  0.1304
  118OSM   H10F12473   6.671   1.123   9.610 -4.1881  0.4075 -3.1859
  118OSM   C11F12474   6.523   1.259   9.671 -0.4620 -0.0887 -0.5036
  118OSM   H11F12475   6.588   1.336   9.623  2.3166 -1.6677  0.4934
  118OSM   H11G12476   6.484   1.305   9.764  0.4121 -1.3049  0.4771
  118OSM   C12F12477   6.404   1.241   9.582  0.4889  0.0772 -0.7316
  118OSM   H12F12478   6.354   1.339   9.567 -0.2946 -0.0745  0.6921
  118OSM   H12G12479   6.329   1.180   9.637  0.1007  1.6107  0.5136
  118OSM   C13F12480   6.432   1.198   9.444 -0.1753  0.8296  0.5640
  118OSM   H13F12481   6.513   1.123   9.439 -0.7079  0.2167  1.0124
  118OSM   H13G12482   6.474   1.291   9.398 -0.2529  1.1548  1.1445
  118OSM   C14F12483   6.305   1.159   9.359 -0.3864 -0.2848  0.1056
  118OSM   H14F12484   6.235   1.241   9.388  0.6939 -0.1129  2.5122
  118OSM   H14G12485   6.265   1.064   9.400 -3.1936  0.6544 -0.2079
  118OSM   C15F12486   6.316   1.145   9.206  0.7428 -0.0712  0.0973
  118OSM   H15F12487   6.394   1.067   9.191  0.6932 -0.0085 -0.5487
  118OSM   H15G12488   6.360   1.236   9.159  1.1866 -0.8030 -0.9457
  118OSM   C16F12489   6.179   1.125   9.143 -0.1481 -0.2506  0.6475
  118OSM   H16F12490   6.107   1.190   9.198 -1.8261 -2.6940  1.4773
  118OSM   H16G12491   6.142   1.021   9.152  0.7359 -1.0450 -3.3025
  118OSM   C17F12492   6.168   1.157   8.990  0.0860 -0.5204  0.0978
  118OSM   H17F12493   6.268   1.131   8.948  1.2808  0.9329  1.8840
  118OSM   H17G12494   6.162   1.267   8.974  0.8899 -0.6636 -1.4521
  118OSM   C18F12495   6.044   1.097   8.930  0.4039  0.0908  0.1536
  118OSM   H18F12496   5.954   1.120   8.991  0.2294  2.6795 -0.9836
  118OSM   H18G12497   6.051   0.986   8.927 -0.9312 -0.0355  0.8593
  118OSM   H18H12498   6.018   1.142   8.832  2.2140  3.1170  0.9371
  119OSM      N12499   6.707   0.539  11.261 -0.5869 -0.2576  0.1449
  119OSM    C1512500   6.653   0.638  11.356 -0.1830 -0.5378 -0.5778
  119OSM   H15A12501   6.634   0.596  11.453 -2.5314  0.3673 -0.5908
  119OSM   H15B12502   6.555   0.672  11.327 -0.9224 -2.7890 -0.8706
  119OSM   H15C12503   6.728   0.713  11.374 -2.5013  1.1877  3.0201
  119OSM    C1412504   6.816   0.462  11.325  0.6711  1.0562  0.0901
  119OSM   H14A12505   6.773   0.419  11.415  0.2178  0.0881 -0.5639
  119OSM   H14B12506   6.902   0.522  11.350  0.5291  0.3994  2.3925
  119OSM   H14C12507   6.837   0.373  11.267 -0.5782  1.1796 -0.5849
  119OSM    C1312508   6.597   0.457  11.219  0.4632  0.7677  0.2147
  119OSM   H13A12509   6.518   0.522  11.183 -0.0042 -0.1927 -0.5635
  119OSM   H13B12510   6.541   0.408  11.298 -0.9271 -2.6181 -2.5932
  119OSM   H13C12511   6.633   0.389  11.143  0.0741  0.4779  0.2887
  119OSM    C1212512   6.755   0.607  11.129 -0.4057 -0.5935 -0.1563
  119OSM   H12A12513   6.854   0.647  11.145 -1.7772  3.2715 -0.1910
  119OSM   H12B12514   6.678   0.682  11.119 -0.1683 -0.3138  0.0968
  119OSM    C1112515   6.764   0.525  10.999 -0.7011 -0.2528  0.2681
  119OSM   H11A12516   6.793   0.599  10.922  2.7981 -0.8697  0.8160
  119OSM   H11B12517   6.666   0.483  10.967 -0.0683 -1.1544 -0.5613
  119OSM      P12518   7.015   0.439  11.025  0.4495 -0.1676  0.4418
  119OSM    O1312519   7.032   0.559  11.107 -0.1947  0.4767  0.1825
  119OSM    O1412520   7.090   0.318  11.068 -0.4260  0.4009 -0.1061
  119OSM    O1112521   7.059   0.473  10.878 -0.4526  0.6163  0.1341
  119OSM    O1212522   6.863   0.413  11.009  0.3596  0.4045 -0.5990
  119OSM    C1S12523   7.032   0.415  10.750 -0.3945 -0.4998 -0.5593
  119OSM    H1S12524   6.947   0.345  10.761 -1.6764  1.2532  1.3082
  119OSM    H1T12525   7.122   0.365  10.706  0.0147 -0.2851  0.0175
  119OSM     NF12526   6.948   0.466  10.523 -0.2901  0.7143 -0.5288
  119OSM    HNF12527   7.017   0.452  10.452 -1.1126  1.4608 -1.4960
  119OSM    C2S12528   6.997   0.530  10.643  0.3761 -0.1251  0.3272
  119OSM    H2S12529   6.922   0.593  10.696  2.3748  0.9797  1.9723
  119OSM    C3S12530   7.129   0.607  10.626 -0.0335  0.2554  0.3355
  119OSM    H3S12531   7.205   0.532  10.594 -2.3353 -2.2558  0.4158
  119OSM     O312532   7.186   0.654  10.751  0.7083 -0.6574  0.2103
  119OSM    HO312533   7.150   0.591  10.815  2.5565 -2.2365 -0.2033
  119OSM    C4S12534   7.113   0.714  10.525  0.0885  0.2769 -0.7494
  119OSM    H4S12535   7.016   0.765  10.526  0.1365  0.3933 -1.3451
  119OSM    C5S12536   7.212   0.757  10.442 -0.5738  0.2527  0.8959
  119OSM    H5S12537   7.315   0.722  10.454 -0.2901 -0.0038 -1.7428
  119OSM    C6S12538   7.195   0.871  10.346 -0.4438  0.6177 -0.5063
  119OSM    H6S12539   7.258   0.961  10.366  3.1827 -1.8754  0.2925
  119OSM    H6T12540   7.091   0.910  10.343 -0.0707  1.5959 -1.8509
  119OSM    C7S12541   7.223   0.812  10.204  0.7970 -0.4987  0.3057
  119OSM    H7S12542   7.155   0.725  10.187 -1.2871  1.2214 -0.5992
  119OSM    H7T12543   7.331   0.787  10.192  0.3501 -3.5640  1.6069
  119OSM    C8S12544   7.181   0.920  10.102  0.2724  0.1643 -0.2967
  119OSM    H8S12545   7.257   0.999  10.086 -0.3503  0.6042 -1.1997
  119OSM    H8T12546   7.090   0.968  10.144  0.4980 -1.2997  2.0673
  119OSM    C9S12547   7.137   0.854   9.965 -0.2090 -0.0865 -0.5782
  119OSM    H9S12548   7.043   0.796   9.984 -0.4973  0.3284 -0.7204
  119OSM    H9T12549   7.217   0.789   9.923  2.1806  1.2420  1.6532
  119OSM   C10S12550   7.099   0.964   9.861  0.3505 -0.4324 -0.6248
  119OSM   H10S12551   7.197   1.009   9.836 -0.4602  0.1140 -3.1182
  119OSM   H10T12552   7.028   1.038   9.904  1.2742 -0.0381  0.2654
  119OSM   C11S12553   7.032   0.900   9.739  0.3998 -1.0058  1.2808
  119OSM   H11S12554   6.933   0.852   9.752 -1.2547  1.5600 -0.8163
  119OSM   H11T12555   7.100   0.824   9.694 -0.3477 -0.6614 -0.5060
  119OSM   C12S12556   6.981   1.012   9.643  0.3670  0.3851 -0.7164
  119OSM   H12S12557   7.071   1.076   9.628  0.9068 -0.3688 -0.7798
  119OSM   H12T12558   6.897   1.077   9.676 -1.7265 -2.0769 -0.8647
  119OSM   C13S12559   6.945   0.940   9.518 -0.5195 -0.4854  0.3213
  119OSM   H13S12560   6.848   0.893   9.547 -0.0585 -0.6695  1.6556
  119OSM   H13T12561   7.012   0.855   9.494 -0.4383 -0.2834 -0.1614
  119OSM   C14S12562   6.921   1.034   9.403  0.4335 -0.0853 -0.5564
  119OSM   H14S12563   7.021   1.074   9.375  0.4352  1.1235  1.0862
  119OSM   H14T12564   6.866   1.125   9.435  0.2279 -1.0120  1.9050
  119OSM   C15S12565   6.851   0.962   9.290  0.2470  0.2582 -0.5856
  119OSM   H15S12566   6.746   0.934   9.314  1.0250 -1.8647  0.5670
  119OSM   H15T12567   6.904   0.865   9.276 -0.3605  0.1972 -2.8167
  119OSM   C16S12568   6.856   1.026   9.154  0.0088 -0.7824 -0.2200
  119OSM   H16S12569   6.811   0.959   9.077 -2.1126 -0.2705  0.5296
  119OSM   H16T12570   6.961   1.043   9.122 -0.9010  1.8393 -2.2036
  119OSM   C17S12571   6.797   1.167   9.138 -0.1430  0.0949 -0.4286
  119OSM   H17S12572   6.811   1.207   9.035 -1.3244  1.7703  0.0206
  119OSM   H17T12573   6.845   1.233   9.213 -0.2013  0.0903 -0.3859
  119OSM   C18S12574   6.648   1.161   9.169  0.2543 -0.3794  0.0579
  119OSM   H18S12575   6.620   1.095   9.254  0.5981  2.1381  2.2457
  119OSM   H18T12576   6.590   1.131   9.079 -1.8740 -0.5918  1.4287
  119OSM   H18U12577   6.616   1.264   9.193  4.1709  1.3277 -1.2234
  119OSM    C1F12578   6.825   0.416  10.516 -0.4661  0.1398  0.0007
  119OSM     OF12579   6.740   0.460  10.589 -0.1841  0.6847 -0.2425
  119OSM    C2F12580   6.805   0.304  10.413 -0.6940 -0.1870 -0.3545
  119OSM    H2F12581   6.811   0.206  10.465 -0.4260  0.6783  1.3500
  119OSM    H2G12582   6.882   0.321  10.334 -1.4226 -0.4565 -1.1338
  119OSM    C3F12583   6.676   0.321  10.337  0.5038 -0.7602 -0.4164
  119OSM    H3F12584   6.674   0.428  10.306 -1.0669 -0.6576 -0.0412
  119OSM    H3G12585   6.579   0.311  10.390  0.3054 -1.0678 -0.8344
  119OSM    C4F12586   6.691   0.242  10.208  0.1968  0.4288  0.0770
  119OSM    H4F12587   6.714   0.138  10.239 -2.1251  0.0628  0.7402
  119OSM    H4G12588   6.784   0.268  10.152  1.3959 -2.5752  0.5047
  119OSM    C5F12589   6.560   0.229  10.124  0.2796 -0.3853 -0.0069
  119OSM    H5F12590   6.527   0.332  10.096 -1.0576 -1.3033 -1.9627
  119OSM    H5G12591   6.483   0.194  10.196 -0.9701  0.4898 -0.8798
  119OSM    C6F12592   6.580   0.151   9.998  0.7621 -0.0083  0.0710
  119OSM    H6F12593   6.635   0.055  10.012  0.7463 -0.2697 -1.4526
  119OSM    H6G12594   6.634   0.221   9.931 -0.6553 -0.8735 -2.1085
  119OSM    C7F12595   6.449   0.117   9.915 -0.4086 -0.4698 -0.6095
  119OSM    H7F12596   6.391   0.210   9.896  1.9892  1.5648  1.2336
  119OSM    H7G12597   6.381   0.055   9.978 -1.8099  0.8362 -0.7644
  119OSM    C8F12598   6.478   0.044   9.780 -0.2055  0.2166 -0.8083
  119OSM    H8F12599   6.525  -0.053   9.804 -0.3094  0.0229 -1.3572
  119OSM    H8G12600   6.562   0.098   9.732  1.3175 -2.1891 -1.0029
  119OSM    C9F12601   6.366   0.021   9.685 -0.4084  0.7461  0.1234
  119OSM    H9F12602   6.318  -0.078   9.699  0.2752  0.3118 -0.5440
  119OSM   C10F12603   6.333   0.093   9.581 -0.1624  0.3882 -0.1988
  119OSM   H10F12604   6.242   0.063   9.526  0.1028 -0.7990  0.0075
  119OSM   C11F12605   6.388   0.222   9.540  0.5690 -0.1966 -0.4211
  119OSM   H11F12606   6.494   0.231   9.574  0.5938  0.7563 -0.7093
  119OSM   H11G12607   6.337   0.300   9.600  1.5540  0.6941 -0.6903
  119OSM   C12F12608   6.380   0.259   9.394  0.1671  0.6037 -0.2232
  119OSM   H12F12609   6.430   0.182   9.331 -1.4834  1.4684 -2.7333
  119OSM   H12G12610   6.421   0.363   9.388 -0.0155  0.8267  1.8364
  119OSM   C13F12611   6.232   0.276   9.347  0.0047  0.1185  0.1020
  119OSM   H13F12612   6.181   0.338   9.425 -1.8813 -0.7505 -0.3900
  119OSM   H13G12613   6.199   0.170   9.344  2.5315 -0.7338 -2.6552
  119OSM   C14F12614   6.221   0.342   9.209 -0.2013 -0.0305  0.0001
  119OSM   H14F12615   6.249   0.449   9.204 -0.8761  0.1071 -1.4367
  119OSM   H14G12616   6.112   0.348   9.187 -0.1915 -0.2279 -0.1016
  119OSM   C15F12617   6.289   0.267   9.097  0.0531  0.3016 -0.6684
  119OSM   H15F12618   6.269   0.159   9.115  0.3587  0.3801  0.1831
  119OSM   H15G12619   6.399   0.267   9.112 -0.2461 -3.1755  3.9392
  119OSM   C16F12620   6.232   0.305   8.960  0.1555  0.2141  0.0800
  119OSM   H16F12621   6.228   0.415   8.951  0.5431  0.1913 -0.4340
  119OSM   H16G12622   6.133   0.263   8.932 -0.1710  0.6373  0.5894
  119OSM   C17F12623   6.328   0.263   8.850 -0.0463 -0.7709 -0.1734
  119OSM   H17F12624   6.335   0.153   8.861  0.1291 -0.7042  0.4259
  119OSM   H17G12625   6.428   0.307   8.873 -1.5424  2.8173  0.2249
  119OSM   C18F12626   6.285   0.298   8.705  0.2961  0.7633  0.8223
  119OSM   H18F12627   6.291   0.408   8.689  0.0549  0.7178  0.4191
  119OSM   H18G12628   6.179   0.266   8.698  0.4844  0.4540 -1.0102
  119OSM   H18H12629   6.350   0.242   8.634 -2.7049 -0.3553 -1.2367
  120OSM      N12630   5.956   4.636  10.716 -0.2064  0.3600  0.0114
  120OSM    C1512631   5.945   4.690  10.849 -0.4749 -0.2141  0.8726
  120OSM   H15A12632   5.871   4.634  10.905  0.3101 -0.2064  1.9488
  120OSM   H15B12633   5.929   4.796  10.835  0.4236 -0.0766  0.8320
  120OSM   H15C12634   6.044   4.695  10.891  0.5430  2.7964 -1.4785
  120OSM    C1412635   6.022   4.506  10.729  0.3746  0.2743 -0.1556
  120OSM   H14A12636   6.028   4.462  10.630 -3.4484 -0.6060 -0.1363
  120OSM   H14B12637   5.958   4.436  10.780 -0.4428  1.1092 -0.0232
  120OSM   H14C12638   6.117   4.509  10.780 -0.0840 -1.8246  0.9251
  120OSM    C1312639   5.811   4.623  10.674  0.7110 -0.5512  0.4757
  120OSM   H13A12640   5.758   4.553  10.737  0.8168 -0.6966  0.4033
  120OSM   H13B12641   5.800   4.586  10.573  0.2431 -0.3174  0.4394
  120OSM   H13C12642   5.767   4.722  10.679  0.7114 -0.6030  1.9025
  120OSM    C1212643   6.037   4.730  10.624  0.2269  0.2784  0.1889
  120OSM   H12A12644   5.985   4.825  10.631 -1.1997 -0.5768  1.9252
  120OSM   H12B12645   6.036   4.691  10.523  0.1793  2.9383 -0.9196
  120OSM    C1112646   6.192   4.749  10.656  0.1337 -1.4168 -0.2048
  120OSM   H11A12647   6.185   4.785  10.760  0.5072 -1.1628 -0.2649
  120OSM   H11B12648   6.235   4.835  10.600  2.0762 -0.5852  2.4030
  120OSM      P12649   6.293   4.571  10.492 -0.3716 -0.2602  0.3611
  120OSM    O1312650   6.436   4.567  10.461 -0.1219  0.5298  0.2871
  120OSM    O1412651   6.221   4.442  10.474 -0.4351 -0.3627  0.3437
  120OSM    O1112652   6.214   4.677  10.402  0.3376  0.1512 -0.5086
  120OSM    O1212653   6.268   4.623  10.642  0.0044 -0.1568  0.1409
  120OSM    C1S12654   6.286   4.787  10.338  0.1427 -0.1502 -0.0588
  120OSM    H1S12655   6.378   4.819  10.390  0.6842 -0.6175 -0.7094
  120OSM    H1T12656   6.219   4.874  10.321  0.1538 -0.1869 -0.2946
  120OSM     NF12657   6.390   4.867  10.127  0.0293 -0.0992  0.1885
  120OSM    HNF12658   6.323   4.918  10.074  1.1529  1.5292  0.2593
  120OSM    C2S12659   6.343   4.749  10.194  0.4856  1.1335 -0.7446
  120OSM    H2S12660   6.423   4.672  10.202 -0.1041  0.5005 -0.7741
  120OSM    C3S12661   6.235   4.682  10.104 -0.5022 -0.5852  0.1888
  120OSM    H3S12662   6.160   4.761  10.085  0.8680  0.1620 -2.6358
  120OSM     O312663   6.158   4.578  10.157 -0.5371 -0.0207 -0.7696
  120OSM    HO312664   6.164   4.577  10.253 -3.1795 -2.8264 -0.4607
  120OSM    C4S12665   6.284   4.648   9.964 -0.1872 -0.0833 -1.2711
  120OSM    H4S12666   6.373   4.584   9.962 -0.0736  0.0948 -2.1983
  120OSM    C5S12667   6.235   4.699   9.850  0.6764  0.1191  0.4212
  120OSM    H5S12668   6.144   4.761   9.850 -0.1118 -0.9548 -1.6499
  120OSM    C6S12669   6.284   4.671   9.706 -0.1176  0.1218 -0.5766
  120OSM    H6S12670   6.390   4.701   9.692  0.1355 -0.3833  0.1895
  120OSM    H6T12671   6.229   4.725   9.627  0.3358  0.1466 -0.8818
  120OSM    C7S12672   6.302   4.519   9.688  0.7541 -0.1273  0.5998
  120OSM    H7S12673   6.201   4.478   9.705 -0.2083  2.4726  1.5881
  120OSM    H7T12674   6.374   4.481   9.763  2.2621  2.2135  0.4629
  120OSM    C8S12675   6.355   4.486   9.542  0.3539 -0.0707 -0.1481
  120OSM    H8S12676   6.346   4.375   9.533  2.4420 -0.2349 -0.6313
  120OSM    H8T12677   6.464   4.507   9.542  0.4940 -0.6850 -1.4393
  120OSM    C9S12678   6.304   4.557   9.419 -0.5092  0.0002  0.7263
  120OSM    H9S12679   6.353   4.502   9.335 -1.0509 -0.1635  0.5126
  120OSM    H9T12680   6.324   4.666   9.423 -0.5191 -0.0351  2.0097
  120OSM   C10S12681   6.154   4.541   9.394  0.0424  0.8389  0.0026
  120OSM   H10S12682   6.099   4.610   9.462  1.1004  1.4677  0.2362
  120OSM   H10T12683   6.129   4.433   9.409  2.2881  0.2570 -0.0913
  120OSM   C11S12684   6.100   4.583   9.252  0.3066 -0.3525  0.3013
  120OSM   H11S12685   6.137   4.683   9.221 -1.5249  0.7157  1.3501
  120OSM   H11T12686   5.990   4.589   9.267  0.5334  2.9586  1.3134
  120OSM   C12S12687   6.133   4.474   9.149  0.2220 -0.1707  0.7605
  120OSM   H12S12688   6.105   4.377   9.195  0.5116  0.2267  1.8061
  120OSM   H12T12689   6.243   4.479   9.134  0.2295  1.5234  1.0814
  120OSM   C13S12690   6.056   4.494   9.015 -0.0483  0.3427 -0.3894
  120OSM   H13S12691   5.948   4.485   9.042  0.7052 -0.6585  2.6965
  120OSM   H13T12692   6.077   4.412   8.944 -1.3165 -0.4255  0.0990
  120OSM   C14S12693   6.096   4.622   8.940 -0.0619 -0.2469  0.1411
  120OSM   H14S12694   6.204   4.618   8.915  0.1153 -1.7124  1.0375
  120OSM   H14T12695   6.097   4.717   8.998 -0.0723  0.4596 -0.9873
  120OSM   C15S12696   6.015   4.649   8.810  0.8265  0.2315 -0.1224
  120OSM   H15S12697   6.043   4.752   8.782  0.7711  0.6401  1.2506
  120OSM   H15T12698   5.906   4.654   8.830  1.1453  1.0627  1.5560
  120OSM   C16S12699   6.036   4.543   8.696 -0.8350 -0.1321  0.5148
  120OSM   H16S12700   6.037   4.443   8.743  2.3064 -0.4325  0.0342
  120OSM   H16T12701   6.139   4.549   8.655 -0.4345 -0.2300  1.4740
  120OSM   C17S12702   5.926   4.548   8.593 -0.2343  0.2474 -0.1213
  120OSM   H17S12703   5.928   4.648   8.545 -0.7815  0.6928  0.7730
  120OSM   H17T12704   5.823   4.531   8.630 -0.1744  0.1486  0.0026
  120OSM   C18S12705   5.941   4.451   8.468  0.5203  0.3123 -0.2230
  120OSM   H18S12706   5.847   4.451   8.409  0.2061 -0.6791  0.2392
  120OSM   H18T12707   5.964   4.351   8.512  2.1918  0.5027 -0.5896
  120OSM   H18U12708   6.032   4.475   8.409  0.4153 -0.0222 -0.5212
  120OSM    C1F12709   6.509   4.922  10.152 -0.1566 -0.1103 -0.9306
  120OSM     OF12710   6.595   4.869  10.222  0.1516 -0.0904 -0.2001
  120OSM    C2F12711   6.539   5.050  10.081  0.1962  0.0655 -0.1883
  120OSM    H2F12712   6.570   5.122  10.159  0.4194 -0.7619  0.5045
  120OSM    H2G12713   6.438   5.082  10.047 -0.4116 -0.2042  1.2767
  120OSM    C3F12714   6.637   5.041   9.963  0.0006  0.1829  0.1089
  120OSM    H3F12715   6.716   4.967   9.990  0.2619  0.4694  0.1334
  120OSM    H3G12716   6.679   5.138   9.930  0.3388 -0.7593 -2.4828
  120OSM    C4F12717   6.574   4.992   9.834 -0.1021 -0.0611  0.4718
  120OSM    H4F12718   6.485   5.054   9.811  0.1389  0.0733 -0.1237
  120OSM    H4G12719   6.538   4.887   9.843  0.6818 -0.2360  1.8842
  120OSM    C5F12720   6.669   4.998   9.708 -0.0015 -0.0131  0.7473
  120OSM    H5F12721   6.763   4.941   9.719  2.4984  2.5407 -4.1581
  120OSM    H5G12722   6.684   5.107   9.690  0.4618 -0.5335 -2.8120
  120OSM    C6F12723   6.600   4.927   9.586  0.2606  0.7416  0.7436
  120OSM    H6F12724   6.499   4.972   9.575 -0.6087 -1.3672 -0.4003
  120OSM    H6G12725   6.599   4.820   9.618  0.8094  0.8660  1.2095
  120OSM    C7F12726   6.663   4.915   9.448 -0.0424  0.3366  0.2727
  120OSM    H7F12727   6.612   4.835   9.390  0.5237  0.1979 -0.0377
  120OSM    H7G12728   6.772   4.898   9.456 -0.3937 -1.8209  1.2472
  120OSM    C8F12729   6.644   5.045   9.358 -0.6830  0.4337  0.1528
  120OSM    H8F12730   6.703   5.025   9.266 -1.5080 -1.3817 -0.0365
  120OSM    H8G12731   6.700   5.128   9.406  1.2361 -0.6183 -0.1554
  120OSM    C9F12732   6.508   5.080   9.305 -0.4722 -0.1574 -0.4191
  120OSM    H9F12733   6.465   5.164   9.362  1.2532  1.6286 -1.5839
  120OSM   C10F12734   6.454   5.027   9.196  0.5293 -0.9365 -0.0698
  120OSM   H10F12735   6.357   5.064   9.158 -0.7182 -0.7075  3.0563
  120OSM   C11F12736   6.514   4.918   9.111  0.5927 -0.1303  0.4565
  120OSM   H11F12737   6.606   4.879   9.159  1.7383  1.6545 -0.1773
  120OSM   H11G12738   6.545   4.967   9.017  1.4458  0.7334  1.1657
  120OSM   C12F12739   6.420   4.798   9.087  0.2428  0.2917 -0.2682
  120OSM   H12F12740   6.335   4.841   9.030  0.1184  0.0252 -0.2826
  120OSM   H12G12741   6.394   4.748   9.182 -1.2383  3.5416  1.1913
  120OSM   C13F12742   6.486   4.696   9.000 -0.6448 -0.6914  0.4680
  120OSM   H13F12743   6.423   4.605   9.002  0.1766 -1.2753  3.1382
  120OSM   H13G12744   6.581   4.659   9.045 -0.0205  0.2181 -0.0676
  120OSM   C14F12745   6.507   4.734   8.855  0.0860  0.4825 -0.5791
  120OSM   H14F12746   6.590   4.807   8.863  2.2892 -1.8185 -1.3511
  120OSM   H14G12747   6.406   4.775   8.834 -0.1009  0.5534  0.4212
  120OSM   C15F12748   6.543   4.612   8.770 -0.5037 -0.0728 -0.0293
  120OSM   H15F12749   6.519   4.620   8.662 -0.4507 -1.6590 -0.1881
  120OSM   H15G12750   6.462   4.539   8.790 -0.2209 -0.8313 -1.5122
  120OSM   C16F12751   6.686   4.557   8.783  0.8732  0.2716  0.3202
  120OSM   H16F12752   6.712   4.537   8.890  1.2883 -0.9074  0.0178
  120OSM   H16G12753   6.752   4.640   8.751  0.3912  0.7672  0.5986
  120OSM   C17F12754   6.735   4.438   8.703  0.2846  0.4009 -0.2527
  120OSM   H17F12755   6.659   4.357   8.704 -1.2520  1.7551  1.7322
  120OSM   H17G12756   6.830   4.405   8.750 -0.0822  1.4790  1.3236
  120OSM   C18F12757   6.758   4.468   8.555 -0.2823  0.0745  0.8163
  120OSM   H18F12758   6.843   4.537   8.535  0.3649 -1.2468 -1.2115
  120OSM   H18G12759   6.668   4.524   8.521  0.4462  2.0867  1.9935
  120OSM   H18H12760   6.781   4.376   8.497 -0.8742 -0.5011  1.4711
  121OSM      N12761   5.278   1.034  11.393 -0.1887  0.5575  0.1032
  121OSM    C1512762   5.197   1.143  11.467 -0.1038  0.1452 -0.2285
  121OSM   H15A12763   5.257   1.186  11.545  1.7109 -0.5182 -1.1723
  121OSM   H15B12764   5.108   1.096  11.505 -0.8485  1.0337 -0.8532
  121OSM   H15C12765   5.178   1.219  11.393 -1.4134  0.5213  0.4742
  121OSM    C1412766   5.408   1.088  11.338  0.6683 -0.0337  0.0936
  121OSM   H14A12767   5.447   1.144  11.421  1.4139  0.6795 -0.7090
  121OSM   H14B12768   5.391   1.161  11.260 -1.1291  0.1311  0.6071
  121OSM   H14C12769   5.481   1.009  11.326 -0.8582 -1.6236  0.7827
  121OSM    C1312770   5.310   0.928  11.489 -0.3643 -0.0383 -0.1490
  121OSM   H13A12771   5.226   0.904  11.552  0.1554 -1.5590 -0.0015
  121OSM   H13B12772   5.394   0.958  11.551 -0.6939  2.1987 -0.6871
  121OSM   H13C12773   5.336   0.836  11.440 -0.5820 -0.9597  1.4097
  121OSM    C1212774   5.192   0.976  11.283 -0.6458 -0.1643 -0.1371
  121OSM   H12A12775   5.098   0.940  11.321 -0.2197 -1.4038 -0.1950
  121OSM   H12B12776   5.248   0.891  11.245 -0.0892  0.6820 -1.2640
  121OSM    C1112777   5.157   1.068  11.160 -0.3152 -0.1983  0.0157
  121OSM   H11A12778   5.118   1.021  11.068 -1.4857  1.9528 -0.6532
  121OSM   H11B12779   5.253   1.114  11.129 -0.8783  0.5082 -0.7195
  121OSM      P12780   5.059   1.312  11.119 -0.0878  0.0483 -0.1439
  121OSM    O1312781   4.922   1.365  11.104 -0.6367 -0.0340 -0.7458
  121OSM    O1412782   5.164   1.397  11.195 -0.0664 -0.6942  0.1998
  121OSM    O1112783   5.116   1.290  10.972 -0.8680  0.6731  0.6462
  121OSM    O1212784   5.065   1.170  11.188  0.5579  0.1594 -0.2064
  121OSM    C1S12785   5.043   1.218  10.876  0.4812  0.1600 -0.2824
  121OSM    H1S12786   4.946   1.267  10.851  0.1624 -1.6302 -2.9104
  121OSM    H1T12787   5.025   1.113  10.908 -0.6438 -0.1178 -1.7483
  121OSM     NF12788   5.053   1.127  10.642 -0.7362  0.2992  0.1526
  121OSM    HNF12789   5.070   1.029  10.636  1.3187  0.5727  0.7424
  121OSM    C2S12790   5.127   1.198  10.747  1.0266  0.4102 -0.0223
  121OSM    H2S12791   5.161   1.299  10.715  0.3641  0.2523 -1.2679
  121OSM    C3S12792   5.261   1.123  10.790 -0.1465 -0.4443 -0.4172
  121OSM    H3S12793   5.241   1.030  10.847  1.4374 -1.1938 -1.0173
  121OSM     O312794   5.335   1.190  10.896  0.1529 -0.3242 -0.4060
  121OSM    HO312795   5.264   1.249  10.924 -0.4144 -0.4868 -1.4071
  121OSM    C4S12796   5.344   1.102  10.668  0.1497  0.2444  0.0322
  121OSM    H4S12797   5.394   1.191  10.627  1.0378  0.8921  2.3343
  121OSM    C5S12798   5.375   0.985  10.619  0.2212 -0.0469 -0.4791
  121OSM    H5S12799   5.330   0.895  10.664 -1.8451  0.6403 -1.0322
  121OSM    C6S12800   5.455   0.965  10.495  0.1374  0.0366  0.0764
  121OSM    H6S12801   5.468   0.854  10.489 -1.8033 -0.2321  0.0816
  121OSM    H6T12802   5.556   1.007  10.512 -0.6549  2.7283 -1.4178
  121OSM    C7S12803   5.385   1.017  10.363 -0.5751  0.9638 -0.0556
  121OSM    H7S12804   5.353   1.123  10.371 -2.0060  0.4827  1.1173
  121OSM    H7T12805   5.287   0.964  10.360 -0.8015  1.3931 -0.3492
  121OSM    C8S12806   5.464   0.986  10.236  0.1179  0.2944 -0.0037
  121OSM    H8S12807   5.481   0.878  10.216 -0.6853  0.4829 -1.9479
  121OSM    H8T12808   5.564   1.033  10.236  0.0332  0.4977 -0.9265
  121OSM    C9S12809   5.377   1.048  10.122 -0.3572  0.2944  0.0979
  121OSM    H9S12810   5.398   1.157  10.125  1.3595 -0.0152  0.7176
  121OSM    H9T12811   5.270   1.025  10.142 -0.1386 -1.7137 -0.7879
  121OSM   C10S12812   5.410   0.975   9.989 -0.2461 -0.3162  0.6322
  121OSM   H10S12813   5.375   0.869   9.989  1.5025 -0.9150  0.6850
  121OSM   H10T12814   5.518   0.982   9.966 -0.2575  0.7690  0.8405
  121OSM   C11S12815   5.329   1.053   9.883  0.1441 -0.5079  0.1237
  121OSM   H11S12816   5.365   1.157   9.866  0.2714 -0.6397 -0.4327
  121OSM   H11T12817   5.226   1.061   9.922  0.6823 -1.3781  1.8011
  121OSM   C12S12818   5.327   0.975   9.752  0.2063  0.1255  0.0118
  121OSM   H12S12819   5.233   1.002   9.699 -0.8039  0.6015  1.9579
  121OSM   H12T12820   5.323   0.866   9.774 -1.8811 -0.6459 -3.3326
  121OSM   C13S12821   5.445   1.004   9.657 -0.0142  0.7945  0.2524
  121OSM   H13S12822   5.537   0.997   9.720 -1.0440 -0.8950  1.6670
  121OSM   H13T12823   5.426   1.111   9.637 -1.0921  0.7920  1.1567
  121OSM   C14S12824   5.436   0.929   9.524  0.8103  0.5243 -0.7243
  121OSM   H14S12825   5.333   0.950   9.487 -0.0067  0.2552  1.2925
  121OSM   H14T12826   5.437   0.820   9.541 -0.8094  0.9420  2.8678
  121OSM   C15S12827   5.542   0.970   9.425  0.1462  0.0509 -0.1098
  121OSM   H15S12828   5.636   0.948   9.480 -0.7758 -0.2423  1.3936
  121OSM   H15T12829   5.540   1.081   9.412 -1.0429  0.1920  1.0819
  121OSM   C16S12830   5.555   0.890   9.302  0.2725  0.1938  0.6828
  121OSM   H16S12831   5.460   0.882   9.245  0.8362 -0.9969 -0.1310
  121OSM   H16T12832   5.580   0.784   9.322  0.5271  0.0447 -0.3489
  121OSM   C17S12833   5.649   0.951   9.188 -0.1201  0.8353 -0.4936
  121OSM   H17S12834   5.753   0.958   9.225  0.9720  0.7821 -3.3063
  121OSM   H17T12835   5.605   1.045   9.149 -1.5107  0.8594  1.0205
  121OSM   C18S12836   5.661   0.848   9.070 -0.3030  0.1006 -0.3383
  121OSM   H18S12837   5.742   0.880   9.001  0.8721 -2.8991 -0.4789
  121OSM   H18T12838   5.569   0.840   9.009  0.2516  1.8318 -1.4965
  121OSM   H18U12839   5.688   0.749   9.111 -0.6692  0.3441  0.5246
  121OSM    C1F12840   4.960   1.184  10.565 -0.0283  0.2822 -0.8723
  121OSM     OF12841   4.928   1.299  10.585 -0.6052 -0.5153  0.0686
  121OSM    C2F12842   4.905   1.098  10.461 -0.1818  0.6011  0.4347
  121OSM    H2F12843   4.794   1.095  10.462 -0.2862 -0.7097 -2.5056
  121OSM    H2G12844   4.947   0.996  10.473  2.1297  1.4257 -0.1186
  121OSM    C3F12845   4.940   1.146  10.319 -0.2558 -0.1553 -0.0508
  121OSM    H3F12846   5.051   1.145  10.314  0.0377 -2.5562  3.5102
  121OSM    H3G12847   4.909   1.252  10.304  3.2891  0.7382 -2.3003
  121OSM    C4F12848   4.881   1.045  10.213 -0.7245 -0.6635  0.1411
  121OSM    H4F12849   4.773   1.067  10.199 -0.7196  0.1702  1.3148
  121OSM    H4G12850   4.891   0.938  10.239 -0.0346 -1.1609 -2.0152
  121OSM    C5F12851   4.940   1.062  10.072  0.4908 -1.0730 -0.2600
  121OSM    H5F12852   4.923   0.975  10.004  0.4360 -0.4514 -1.0531
  121OSM    H5G12853   5.050   1.068  10.084  0.3232 -1.5284  2.0753
  121OSM    C6F12854   4.898   1.189  10.001 -0.3346  0.3339 -0.2751
  121OSM    H6F12855   4.879   1.266  10.079  0.1856  0.1860  0.0055
  121OSM    H6G12856   4.799   1.173   9.954 -0.2754 -1.7262  0.2386
  121OSM    C7F12857   4.996   1.245   9.903 -0.0633  0.0695  0.6468
  121OSM    H7F12858   5.092   1.241   9.958 -0.3375  0.6682  1.1801
  121OSM    H7G12859   4.973   1.352   9.887  1.9997  0.3116 -1.0823
  121OSM    C8F12860   5.008   1.171   9.767 -0.5845  0.4515  0.0378
  121OSM    H8F12861   5.007   1.062   9.788 -1.0655  0.4560  0.0560
  121OSM    H8G12862   5.115   1.191   9.744  0.2960 -2.9769  0.6827
  121OSM    C9F12863   4.909   1.199   9.656 -0.1304 -0.8569  0.1745
  121OSM    H9F12864   4.807   1.226   9.688 -0.0359 -0.2566 -0.0069
  121OSM   C10F12865   4.941   1.214   9.525 -0.4565  0.2542  0.0994
  121OSM   H10F12866   4.861   1.222   9.450 -0.2528 -1.0848 -0.2749
  121OSM   C11F12867   5.083   1.212   9.473  0.8543  1.0095  0.4810
  121OSM   H11F12868   5.122   1.108   9.468 -1.3664  0.1750 -1.5302
  121OSM   H11G12869   5.154   1.275   9.531 -0.1600  1.8972  0.7805
  121OSM   C12F12870   5.081   1.258   9.323  0.2230 -0.5958 -0.1996
  121OSM   H12F12871   5.045   1.361   9.307 -0.5588 -0.6725  0.9008
  121OSM   H12G12872   5.018   1.180   9.275  0.5123  0.1759 -1.8981
  121OSM   C13F12873   5.228   1.245   9.269 -1.0103  0.1730 -0.0505
  121OSM   H13F12874   5.261   1.155   9.325 -2.7524 -1.3823 -1.3980
  121OSM   H13G12875   5.293   1.333   9.288 -0.1751  0.0647 -2.1304
  121OSM   C14F12876   5.218   1.227   9.110 -0.1310  0.5216  0.0347
  121OSM   H14F12877   5.189   1.321   9.060 -0.6568  2.6911  3.9854
  121OSM   H14G12878   5.138   1.152   9.092  1.8534 -1.1608 -2.6507
  121OSM   C15F12879   5.345   1.176   9.041  0.1012 -0.4893 -0.1554
  121OSM   H15F12880   5.351   1.070   9.074 -0.7677 -0.1799  1.0646
  121OSM   H15G12881   5.424   1.240   9.086  0.0848  2.2629 -3.5725
  121OSM   C16F12882   5.348   1.184   8.888  0.0370  0.6113  0.0695
  121OSM   H16F12883   5.306   1.282   8.857  1.0580  0.5031 -1.7667
  121OSM   H16G12884   5.282   1.100   8.857 -0.4554  1.5520 -1.5773
  121OSM   C17F12885   5.485   1.173   8.827  0.1796 -0.7137  0.7272
  121OSM   H17F12886   5.542   1.092   8.878  0.7166 -1.0545 -0.3823
  121OSM   H17G12887   5.541   1.267   8.844  1.3673 -1.1770 -0.4025
  121OSM   C18F12888   5.468   1.128   8.680 -0.8184 -0.1839 -0.5830
  121OSM   H18F12889   5.399   1.192   8.621 -1.4259 -2.1325 -2.0900
  121OSM   H18G12890   5.440   1.021   8.676 -0.8116 -0.2791  1.1693
  121OSM   H18H12891   5.565   1.129   8.626 -0.5276 -0.2863 -0.0661
  122OSM      N12892   0.509   6.309  11.032 -0.0028  0.2190  0.2238
  122OSM    C1512893   0.399   6.406  11.062 -0.6420 -0.1675 -0.1426
  122OSM   H15A12894   0.314   6.372  11.004  0.1384 -1.3353 -0.6475
  122OSM   H15B12895   0.418   6.505  11.024  0.1159  0.3104  1.4265
  122OSM   H15C12896   0.376   6.404  11.167 -0.9446 -1.5208 -0.2115
  122OSM    C1412897   0.629   6.365  11.097 -0.1037 -0.1751 -0.2259
  122OSM   H14A12898   0.654   6.460  11.054  1.3912 -0.4638 -0.0577
  122OSM   H14B12899   0.717   6.302  11.086  1.1853  1.2097  1.5047
  122OSM   H14C12900   0.611   6.380  11.203 -1.2701  0.4374 -0.4978
  122OSM    C1312901   0.482   6.180  11.093  0.1040 -0.8316 -0.5761
  122OSM   H13A12902   0.404   6.130  11.036 -1.1142  1.0917 -0.6634
  122OSM   H13B12903   0.446   6.185  11.195  0.0076  0.5862 -0.6689
  122OSM   H13C12904   0.567   6.113  11.091  1.0962  0.2105  2.3733
  122OSM    C1212905   0.528   6.278  10.882 -0.3442  0.5542  0.3192
  122OSM   H12A12906   0.608   6.206  10.871 -1.5550 -0.4718 -2.8993
  122OSM   H12B12907   0.559   6.366  10.829 -1.9618 -0.1099 -1.8600
  122OSM    C1112908   0.410   6.230  10.799  0.1003  0.2094  0.8066
  122OSM   H11A12909   0.438   6.244  10.692 -3.2285  1.7869 -0.0018
  122OSM   H11B12910   0.322   6.298  10.806  0.5404  1.0223 -0.9108
  122OSM      P12911   0.229   6.045  10.847 -0.1483 -0.1684  0.4415
  122OSM    O1312912   0.231   5.895  10.871  0.2179 -0.6740  0.1149
  122OSM    O1412913   0.173   6.131  10.959  0.8356 -0.0588  0.2857
  122OSM    O1112914   0.155   6.078  10.709 -0.4092  0.0850  0.5282
  122OSM    O1212915   0.380   6.092  10.824  0.2427 -0.3946  0.4256
  122OSM    C1S12916   0.231   6.061  10.587  0.2448  0.4171  0.9067
  122OSM    H1S12917   0.257   5.954  10.573  1.3817  0.8238 -0.3416
  122OSM    H1T12918   0.330   6.109  10.596  0.6579 -0.6731  2.6743
  122OSM     NF12919   0.237   6.081  10.331  0.9875  0.2487  0.1019
  122OSM    HNF12920   0.283   6.150  10.276  0.0436  1.6725  1.0223
  122OSM    C2S12921   0.170   6.122  10.460  0.7071 -0.0360  0.2866
  122OSM    H2S12922   0.061   6.100  10.459  0.0415  2.8231 -1.4486
  122OSM    C3S12923   0.157   6.274  10.477  1.0245  0.1151  0.1932
  122OSM    H3S12924   0.259   6.319  10.475  1.3482 -0.6223 -0.4656
  122OSM     O312925   0.109   6.318  10.606 -0.0753 -0.2725  0.2175
  122OSM    HO312926   0.112   6.238  10.659 -0.0596  0.4875  1.4109
  122OSM    C4S12927   0.069   6.330  10.365 -0.8490 -0.8867  0.0495
  122OSM    H4S12928   0.132   6.355  10.278  0.1579 -0.5987  0.8512
  122OSM    C5S12929  -0.058   6.361  10.362  0.3140 -0.3025  0.1232
  122OSM    H5S12930  -0.122   6.354  10.451  1.1275  0.1030  0.7477
  122OSM    C6S12931  -0.116   6.425  10.242 -1.0874 -0.4888 -0.3787
  122OSM    H6S12932  -0.118   6.536  10.252 -2.8658 -0.3416 -1.8740
  122OSM    H6T12933  -0.224   6.398  10.236 -1.6475  1.4244  0.1242
  122OSM    C7S12934  -0.059   6.402  10.097  0.5603 -0.4264 -0.3310
  122OSM    H7S12935  -0.039   6.293  10.094 -4.4567 -1.5873  0.0128
  122OSM    H7T12936   0.033   6.463  10.084  1.9380 -1.4394  3.3469
  122OSM    C8S12937  -0.166   6.435   9.988 -0.2016  0.8415  0.3273
  122OSM    H8S12938  -0.184   6.543  10.006  0.4901  1.1340 -0.6647
  122OSM    H8T12939  -0.256   6.369   9.993  1.2065 -1.2536 -0.7366
  122OSM    C9S12940  -0.110   6.420   9.846  0.2271  0.4356 -0.0606
  122OSM    H9S12941  -0.092   6.311   9.838 -1.1591  0.1702  0.2771
  122OSM    H9T12942  -0.015   6.476   9.833 -1.4505  3.6644  0.6452
  122OSM   C10S12943  -0.218   6.450   9.731 -0.1948 -0.4800  0.2764
  122OSM   H10S12944  -0.212   6.558   9.705 -3.9338 -0.7397 -2.4767
  122OSM   H10T12945  -0.318   6.438   9.779  0.7837  0.7573  2.8060
  122OSM   C11S12946  -0.209   6.364   9.605  0.3115 -0.0936  0.9815
  122OSM   H11S12947  -0.225   6.257   9.631 -2.0531 -0.5243 -1.6963
  122OSM   H11T12948  -0.106   6.367   9.564 -0.0579  1.2226  0.1041
  122OSM   C12S12949  -0.302   6.390   9.478 -0.1489 -0.4543 -0.2515
  122OSM   H12S12950  -0.413   6.388   9.483 -0.3512  0.2478 -2.7379
  122OSM   H12T12951  -0.280   6.307   9.407  0.5876  0.1983 -0.8129
  122OSM   C13S12952  -0.280   6.533   9.421 -0.0166 -0.5050  0.3312
  122OSM   H13S12953  -0.170   6.552   9.418 -0.0286 -0.5229 -0.6299
  122OSM   H13T12954  -0.328   6.611   9.482 -1.7255 -1.2217 -0.0366
  122OSM   C14S12955  -0.331   6.553   9.280 -0.1129  0.2064  0.3543
  122OSM   H14S12956  -0.318   6.661   9.255 -2.9299  0.7565  0.9284
  122OSM   H14T12957  -0.441   6.540   9.281 -0.2758  1.2335  2.6975
  122OSM   C15S12958  -0.261   6.466   9.170 -0.6045 -0.6773  0.4099
  122OSM   H15S12959  -0.268   6.358   9.195  1.3800 -0.8674  0.3409
  122OSM   H15T12960  -0.154   6.495   9.161 -0.7970 -0.4258 -1.9210
  122OSM   C16S12961  -0.320   6.497   9.030 -0.1101  0.3056  0.3230
  122OSM   H16S12962  -0.429   6.517   9.036  0.2840  3.3046 -0.6195
  122OSM   H16T12963  -0.308   6.412   8.959 -0.5162  0.4036  0.1344
  122OSM   C17S12964  -0.253   6.611   8.960 -0.2597 -0.6803 -0.5192
  122OSM   H17S12965  -0.142   6.605   8.969 -0.2384 -0.2724 -0.4872
  122OSM   H17T12966  -0.273   6.708   9.011  2.5932 -1.2649  1.9537
  122OSM   C18S12967  -0.298   6.657   8.822  0.0859 -0.4208 -0.2747
  122OSM   H18S12968  -0.403   6.691   8.834  0.6228  0.4500  2.6273
  122OSM   H18T12969  -0.288   6.578   8.745 -0.1956 -1.4410  0.7220
  122OSM   H18U12970  -0.259   6.753   8.780 -1.0896 -0.6964 -2.1257
  122OSM    C1F12971   0.234   5.953  10.296 -0.1822  0.2942  0.3927
  122OSM     OF12972   0.187   5.866  10.371  0.3090 -0.1142 -0.0261
  122OSM    C2F12973   0.308   5.910  10.174  0.0699 -0.5876 -0.2623
  122OSM    H2F12974   0.372   5.828  10.212 -1.4368 -1.0665  1.3669
  122OSM    H2G12975   0.369   5.991  10.129  0.3484 -1.9995 -2.6630
  122OSM    C3F12976   0.214   5.854  10.063  0.5658  0.0324  0.2951
  122OSM    H3F12977   0.146   5.931  10.020 -1.6452 -1.6794  0.5831
  122OSM    H3G12978   0.149   5.776  10.106 -0.0929  0.1444 -0.4639
  122OSM    C4F12979   0.298   5.790   9.954 -0.2534  0.7402  0.4887
  122OSM    H4F12980   0.357   5.710  10.002 -1.4931  0.0832  0.9703
  122OSM    H4G12981   0.367   5.859   9.901  0.5904  0.0810  0.7002
  122OSM    C5F12982   0.208   5.713   9.850  0.3235 -0.6722 -0.0386
  122OSM    H5F12983   0.179   5.789   9.776  0.0440  0.4704  1.2031
  122OSM    H5G12984   0.125   5.655   9.897 -1.4468  0.6148 -1.4530
  122OSM    C6F12985   0.267   5.601   9.769 -0.3698  0.2389  0.3975
  122OSM    H6F12986   0.274   5.508   9.829  1.3803 -0.2978 -0.5777
  122OSM    H6G12987   0.365   5.627   9.725  0.3045 -0.8300  1.2236
  122OSM    C7F12988   0.185   5.561   9.646 -0.4356 -0.1704  0.4112
  122OSM    H7F12989   0.196   5.651   9.582  0.3948  0.9503  2.0673
  122OSM    H7G12990   0.078   5.539   9.664 -0.4242 -0.9142 -0.3361
  122OSM    C8F12991   0.243   5.431   9.585 -0.3185 -0.1381 -0.3966
  122OSM    H8F12992   0.244   5.349   9.660 -0.0481  0.4926  0.3057
  122OSM    H8G12993   0.350   5.455   9.567 -0.5276  1.4581  0.3055
  122OSM    C9F12994   0.159   5.386   9.468  0.7477  0.0055  0.0148
  122OSM    H9F12995   0.073   5.330   9.507  0.6008  0.4270  0.3016
  122OSM   C10F12996   0.182   5.402   9.331  0.4791  0.4624 -0.6555
  122OSM   H10F12997   0.096   5.372   9.269 -1.0518  0.1598  1.5083
  122OSM   C11F12998   0.292   5.465   9.256  0.1215  0.2624  0.1782
  122OSM   H11F12999   0.337   5.398   9.181  0.8029  1.6150 -0.6616
  122OSM   H11G13000   0.365   5.508   9.329  1.3855  2.3579 -2.1734
  122OSM   C12F13001   0.257   5.583   9.157 -0.6218  0.0109 -0.0304
  122OSM   H12F13002   0.355   5.633   9.138 -1.7295  2.7218  0.8943
  122OSM   H12G13003   0.195   5.660   9.207  0.7144  1.0602  0.0799
  122OSM   C13F13004   0.206   5.559   9.012 -0.3963 -0.4265 -0.5172
  122OSM   H13F13005   0.112   5.616   8.995  0.2771  0.4668 -1.3413
  122OSM   H13G13006   0.182   5.451   9.002 -1.2514 -0.2740 -0.1967
  122OSM   C14F13007   0.308   5.590   8.902 -0.0374 -0.0216 -0.1519
  122OSM   H14F13008   0.408   5.549   8.926  0.3227 -1.0474 -3.0289
  122OSM   H14G13009   0.326   5.700   8.903 -0.0490  0.0046 -1.4775
  122OSM   C15F13010   0.278   5.558   8.754 -0.3024 -0.8781 -0.8777
  122OSM   H15F13011   0.260   5.448   8.746  2.6401 -1.5470  0.1861
  122OSM   H15G13012   0.354   5.595   8.683  0.8586 -1.0622  0.2301
  122OSM   C16F13013   0.143   5.625   8.708 -0.5464 -0.0599  0.9174
  122OSM   H16F13014   0.056   5.574   8.757  0.2513 -1.3569  1.0408
  122OSM   H16G13015   0.122   5.607   8.601 -0.1753  2.4298  0.3749
  122OSM   C17F13016   0.134   5.778   8.730  0.2632  0.5118 -0.0642
  122OSM   H17F13017   0.147   5.795   8.839  0.7120 -1.3062  0.1934
  122OSM   H17G13018   0.032   5.820   8.715 -0.0217 -0.0753  0.2167
  122OSM   C18F13019   0.239   5.856   8.650 -0.0893  0.0128 -0.2687
  122OSM   H18F13020   0.339   5.841   8.696  0.5572  0.5745 -1.4294
  122OSM   H18G13021   0.216   5.964   8.652 -0.4337 -0.0538  2.1559
  122OSM   H18H13022   0.241   5.834   8.541  1.0163 -0.0853 -0.2353
  123OSM      N13023   3.893   2.749   6.159 -0.1935  0.3903 -0.2222
  123OSM    C1513024   3.781   2.759   6.258 -0.6537 -0.4422  0.1474
  123OSM   H15A13025   3.778   2.840   6.329 -2.4955 -0.0855 -0.2735
  123OSM   H15B13026   3.773   2.668   6.316 -0.6501  0.4184  1.5454
  123OSM   H15C13027   3.689   2.784   6.206  1.1103  0.1294 -2.8966
  123OSM    C1413028   4.020   2.761   6.231  0.5201 -0.0895  0.3770
  123OSM   H14A13029   4.044   2.853   6.281  1.5812 -0.2283  0.1590
  123OSM   H14B13030   4.097   2.738   6.159  1.4595 -0.2720  1.3981
  123OSM   H14C13031   4.017   2.689   6.312 -1.0670 -1.3409 -0.7210
  123OSM    C1313032   3.888   2.612   6.101 -1.0224 -0.4479  0.2346
  123OSM   H13A13033   3.813   2.606   6.024  1.8418  1.0525 -2.9038
  123OSM   H13B13034   3.860   2.545   6.181 -0.4109 -1.4730 -0.3950
  123OSM   H13C13035   3.975   2.590   6.042 -0.2155  0.7592  0.9247
  123OSM    C1213036   3.885   2.859   6.053 -0.2773 -0.1875  0.6128
  123OSM   H12A13037   3.816   2.835   5.974  0.0030 -0.6459  0.4998
  123OSM   H12B13038   3.982   2.856   6.005  0.5916 -1.4897  2.3171
  123OSM    C1113039   3.867   3.003   6.100 -0.0252  0.4533  0.1301
  123OSM   H11A13040   3.883   3.011   6.209 -2.2995 -2.7388  0.8462
  123OSM   H11B13041   3.764   3.039   6.080 -0.2278  1.1508  2.1890
  123OSM      P13042   4.097   3.152   6.059  0.5277  0.1641 -0.2479
  123OSM    O1313043   4.208   3.075   6.002 -0.5371 -0.1886  0.1950
  123OSM    O1413044   4.076   3.292   6.017 -0.1709 -0.3293  0.3115
  123OSM    O1113045   4.102   3.143   6.218 -0.2736  0.3650  0.0763
  123OSM    O1213046   3.964   3.078   6.025  0.2473 -0.2617  0.9380
  123OSM    C1S13047   4.035   3.231   6.299  0.6009 -1.1707  0.6981
  123OSM    H1S13048   3.925   3.214   6.291  0.7521 -2.5919  1.4399
  123OSM    H1T13049   4.064   3.338   6.286 -0.8629 -0.6092  1.7096
  123OSM     NF13050   3.976   3.289   6.532 -0.5948  0.7952 -0.2186
  123OSM    HNF13051   4.014   3.381   6.537  2.5792 -0.3228 -1.2487
  123OSM    C2S13052   4.060   3.202   6.451  1.0978  0.8245 -0.7800
  123OSM    H2S13053   4.022   3.098   6.463 -0.6106  1.4010 -0.8664
  123OSM    C3S13054   4.208   3.216   6.495 -0.1406  0.4947 -0.4791
  123OSM    H3S13055   4.243   3.314   6.457  0.3993  0.4221 -0.1811
  123OSM     O313056   4.284   3.130   6.420 -0.0134 -0.2286  0.4966
  123OSM    HO313057   4.225   3.119   6.345 -0.5524  0.3903  0.8216
  123OSM    C4S13058   4.230   3.203   6.647  0.0139  0.3736 -0.2069
  123OSM    H4S13059   4.196   3.103   6.681  1.4068 -0.0624 -0.0424
  123OSM    C5S13060   4.278   3.293   6.724 -0.7455  0.3979 -0.0533
  123OSM    H5S13061   4.309   3.383   6.668 -2.8607  0.9815 -0.3986
  123OSM    C6S13062   4.298   3.288   6.873  0.8107 -0.2756 -0.7838
  123OSM    H6S13063   4.261   3.380   6.923 -0.2469 -1.6810  1.1278
  123OSM    H6T13064   4.407   3.285   6.895  0.5353 -3.2905  0.7106
  123OSM    C7S13065   4.231   3.172   6.950  0.0944 -0.9388 -0.1188
  123OSM    H7S13066   4.261   3.072   6.911 -3.0554 -0.2586 -5.2744
  123OSM    H7T13067   4.126   3.186   6.915  0.2800  2.2334  0.2644
  123OSM    C8S13068   4.232   3.181   7.104  0.0909 -0.6972  0.1208
  123OSM    H8S13069   4.175   3.270   7.139 -0.3854 -0.5984 -0.8744
  123OSM    H8T13070   4.339   3.199   7.131 -0.0510 -1.7427  1.4668
  123OSM    C9S13071   4.173   3.055   7.167  0.1458  0.2670  0.5952
  123OSM    H9S13072   4.223   2.974   7.110  1.0603  1.1385  0.0993
  123OSM    H9T13073   4.062   3.053   7.170  0.1448 -1.0835 -0.0079
  123OSM   C10S13074   4.222   3.032   7.309  0.0827  0.2569 -0.5971
  123OSM   H10S13075   4.332   3.015   7.310  0.1081  0.3954  0.2321
  123OSM   H10T13076   4.180   2.937   7.348  0.5545 -0.3850 -1.6299
  123OSM   C11S13077   4.187   3.154   7.393 -0.2166 -0.0349  0.1026
  123OSM   H11S13078   4.082   3.176   7.364 -0.4211  0.2817  1.0514
  123OSM   H11T13079   4.257   3.235   7.362  0.6175 -1.5698 -2.3374
  123OSM   C12S13080   4.194   3.124   7.545 -0.4978 -0.1414  0.3028
  123OSM   H12S13081   4.129   3.041   7.583  0.1052  0.1267  2.0178
  123OSM   H12T13082   4.152   3.217   7.588  0.1272  2.0105 -3.3930
  123OSM   C13S13083   4.339   3.108   7.605 -0.2038  0.7027  0.5720
  123OSM   H13S13084   4.395   3.202   7.585 -1.5689  2.2321  3.3175
  123OSM   H13T13085   4.383   3.018   7.558 -1.8840  0.7462 -1.2451
  123OSM   C14S13086   4.322   3.107   7.755  0.1821  0.1812 -0.6837
  123OSM   H14S13087   4.265   3.016   7.784  1.1880 -0.4656 -0.6557
  123OSM   H14T13088   4.246   3.182   7.783 -1.0132 -0.6392 -1.6053
  123OSM   C15S13089   4.451   3.126   7.837  0.5875 -0.7653 -0.1527
  123OSM   H15S13090   4.491   3.230   7.831 -0.1415 -0.4544  0.3065
  123OSM   H15T13091   4.527   3.063   7.786 -1.5923 -1.6928 -2.4730
  123OSM   C16S13092   4.427   3.095   7.987  0.0933 -0.1805  1.0065
  123OSM   H16S13093   4.525   3.070   8.034  0.0460 -0.0600  1.1711
  123OSM   H16T13094   4.383   2.996   8.008 -3.4611  1.1440  0.4551
  123OSM   C17S13095   4.328   3.190   8.054  0.1466  0.2368  0.0881
  123OSM   H17S13096   4.227   3.193   8.008 -1.0184  0.7252  2.5051
  123OSM   H17T13097   4.359   3.292   8.023 -2.7818  0.9721 -0.6648
  123OSM   C18S13098   4.319   3.173   8.205 -0.2560 -0.1737  0.2030
  123OSM   H18S13099   4.422   3.184   8.246  0.5307 -0.7338 -1.5111
  123OSM   H18T13100   4.284   3.074   8.239  1.7273 -1.9018 -2.3590
  123OSM   H18U13101   4.248   3.240   8.258  0.6066 -0.9034  2.4070
  123OSM    C1F13102   3.844   3.266   6.542 -0.0702  0.1387 -0.3908
  123OSM     OF13103   3.798   3.151   6.512 -0.8976 -1.1475  0.2957
  123OSM    C2F13104   3.756   3.374   6.589 -0.4113 -0.1613 -0.3767
  123OSM    H2F13105   3.727   3.441   6.505 -1.4123 -0.9630 -0.6906
  123OSM    H2G13106   3.805   3.439   6.665 -0.3471  0.8391 -1.2497
  123OSM    C3F13107   3.622   3.321   6.649 -0.3865 -0.4362  0.6424
  123OSM    H3F13108   3.576   3.242   6.585 -1.8340  1.3943 -0.7075
  123OSM    H3G13109   3.546   3.402   6.648  0.0378 -0.0342  0.1215
  123OSM    C4F13110   3.634   3.277   6.791 -0.8972  0.4778 -0.0888
  123OSM    H4F13111   3.529   3.257   6.819 -0.8124  0.9679  0.5957
  123OSM    H4G13112   3.680   3.356   6.854 -0.8595  0.0553  0.4160
  123OSM    C5F13113   3.714   3.153   6.818 -0.5417 -0.6478  0.6828
  123OSM    H5F13114   3.821   3.180   6.805 -0.7702  1.0362  1.9084
  123OSM    H5G13115   3.695   3.071   6.745  1.9610  0.0691 -0.8763
  123OSM    C6F13116   3.685   3.104   6.958 -0.5536  0.7149 -0.7798
  123OSM    H6F13117   3.589   3.048   6.953  0.1064 -0.4810 -0.4201
  123OSM    H6G13118   3.669   3.186   7.031 -0.8690  1.8049 -2.0342
  123OSM    C7F13119   3.795   3.006   7.009  0.9659  0.3053  0.4715
  123OSM    H7F13120   3.896   3.047   6.990  0.0391  2.9704  0.7174
  123OSM    H7G13121   3.789   2.906   6.961  2.1716  0.3038  0.3078
  123OSM    C8F13122   3.788   2.974   7.160  0.1304  0.0706  0.0071
  123OSM    H8F13123   3.816   3.063   7.220 -0.2012  0.4125 -0.3410
  123OSM    H8G13124   3.866   2.894   7.163  0.5370  0.3676 -1.6117
  123OSM    C9F13125   3.655   2.918   7.204  0.0676  0.5234  0.2100
  123OSM    H9F13126   3.608   2.834   7.151  2.1917 -0.0451 -0.8950
  123OSM   C10F13127   3.582   2.967   7.304 -0.4004  0.2566 -0.0322
  123OSM   H10F13128   3.483   2.922   7.318  1.1749 -4.2732 -1.8562
  123OSM   C11F13129   3.618   3.079   7.395  0.1012 -0.0482 -0.0403
  123OSM   H11F13130   3.532   3.150   7.398  0.0892  0.0004 -1.0505
  123OSM   H11G13131   3.703   3.141   7.360  0.4864  0.1284  1.1644
  123OSM   C12F13132   3.656   3.038   7.539 -0.8929 -0.0639  0.4345
  123OSM   H12F13133   3.678   3.131   7.595 -1.0572  0.0081  0.3797
  123OSM   H12G13134   3.753   2.984   7.535 -0.7736  0.1195  0.8656
  123OSM   C13F13135   3.550   2.963   7.613  0.0195  0.2335  0.1840
  123OSM   H13F13136   3.510   2.884   7.546 -1.1170  0.8588  0.1043
  123OSM   H13G13137   3.459   3.026   7.624 -0.5492  0.1214 -2.8769
  123OSM   C14F13138   3.593   2.899   7.742 -0.4190 -0.2203 -0.1612
  123OSM   H14F13139   3.699   2.928   7.756 -0.1136 -0.3063 -2.0271
  123OSM   H14G13140   3.585   2.789   7.735  0.4236 -0.3735  1.0230
  123OSM   C15F13141   3.528   2.947   7.871 -0.4297 -0.0163 -0.2020
  123OSM   H15F13142   3.428   2.900   7.861  0.1640 -0.8011 -4.1021
  123OSM   H15G13143   3.528   3.058   7.884  0.7614 -0.1639  1.4397
  123OSM   C16F13144   3.579   2.880   7.996  0.0224  0.2703 -0.3001
  123OSM   H16F13145   3.616   2.778   7.974  0.2291 -0.4003  2.6917
  123OSM   H16G13146   3.497   2.881   8.071 -1.0008 -0.4405 -1.3823
  123OSM   C17F13147   3.696   2.954   8.060 -0.2850  0.0703 -0.3407
  123OSM   H17F13148   3.660   3.057   8.081  1.8444  1.2277 -1.8750
  123OSM   H17G13149   3.778   2.961   7.985  0.6862  0.5048  0.7308
  123OSM   C18F13150   3.758   2.882   8.182 -0.1909  0.6856 -0.2193
  123OSM   H18F13151   3.665   2.858   8.238  0.0340  1.0995  0.3452
  123OSM   H18G13152   3.827   2.947   8.240  0.6111  1.5274 -2.0146
  123OSM   H18H13153   3.822   2.800   8.144  1.2073  1.9866 -0.7652
  124OSM      N13154   5.935   0.793   6.285  0.5859  0.7443 -0.4063
  124OSM    C1513155   6.042   0.897   6.319  0.1185  0.5038  0.0099
  124OSM   H15A13156   6.141   0.860   6.341  1.0515  3.5465  1.5155
  124OSM   H15B13157   6.004   0.956   6.402 -1.0740 -2.5336  1.7809
  124OSM   H15C13158   6.059   0.963   6.235  0.0726 -0.2784 -0.6258
  124OSM    C1413159   5.815   0.850   6.209 -0.1125 -0.0886 -0.2699
  124OSM   H14A13160   5.780   0.938   6.261 -2.4381 -0.8101 -0.4991
  124OSM   H14B13161   5.739   0.774   6.197 -1.1530  0.6424  1.2827
  124OSM   H14C13162   5.846   0.897   6.117 -1.3058 -0.7556 -1.0336
  124OSM    C1313163   6.003   0.689   6.198 -0.0155  0.2873  0.6157
  124OSM   H13A13164   6.045   0.736   6.110  2.3057  0.5846  1.8025
  124OSM   H13B13165   5.945   0.602   6.170 -2.7295  1.6784  1.5287
  124OSM   H13C13166   6.096   0.660   6.244  0.0764  0.9834  0.8799
  124OSM    C1213167   5.898   0.725   6.417  1.0052  0.1495 -0.1731
  124OSM   H12A13168   5.863   0.797   6.489  1.4463  1.1054 -0.8932
  124OSM   H12B13169   5.991   0.688   6.458  2.5057  2.8393 -0.8912
  124OSM    C1113170   5.788   0.616   6.407  0.6222 -0.4439 -1.1671
  124OSM   H11A13171   5.689   0.659   6.380 -0.6694 -2.7466 -0.4836
  124OSM   H11B13172   5.786   0.566   6.507  1.9145 -1.5241 -1.6599
  124OSM      P13173   5.725   0.389   6.307 -0.0004 -0.3672 -0.2999
  124OSM    O1313174   5.625   0.425   6.201 -0.2913  0.1006  0.6469
  124OSM    O1413175   5.808   0.274   6.278 -0.7734  0.6185  0.2609
  124OSM    O1113176   5.650   0.370   6.446  0.3465 -0.2572 -1.1223
  124OSM    O1213177   5.819   0.516   6.314 -0.0271 -0.1265  0.1760
  124OSM    C1S13178   5.706   0.279   6.547 -0.1843  0.6171 -0.0612
  124OSM    H1S13179   5.812   0.309   6.562 -0.1124  0.6188 -0.5426
  124OSM    H1T13180   5.703   0.172   6.518  0.8389 -0.0611  2.1247
  124OSM     NF13181   5.702   0.203   6.785 -0.0871  0.7218  0.6832
  124OSM    HNF13182   5.666   0.114   6.810 -1.1444  1.0263  0.3215
  124OSM    C2S13183   5.631   0.286   6.686  0.6681  0.0674 -0.7129
  124OSM    H2S13184   5.631   0.391   6.720 -0.3658 -0.0889 -0.1626
  124OSM    C3S13185   5.477   0.244   6.670  0.6031 -0.0946  0.2037
  124OSM    H3S13186   5.471   0.134   6.657  2.4178 -0.1647 -0.3054
  124OSM     O313187   5.406   0.295   6.555 -0.1221 -0.5945  0.1991
  124OSM    HO313188   5.475   0.321   6.493 -1.4421 -0.3350 -1.2073
  124OSM    C4S13189   5.400   0.268   6.797  0.1929 -0.1088 -0.4951
  124OSM    H4S13190   5.398   0.182   6.866  1.3594 -0.8797 -1.3899
  124OSM    C5S13191   5.336   0.385   6.834 -0.2133  0.1364  0.2016
  124OSM    H5S13192   5.331   0.470   6.764  0.3509 -0.4549 -0.5648
  124OSM    C6S13193   5.258   0.394   6.966 -0.2563  1.2715  0.1005
  124OSM    H6S13194   5.224   0.292   6.995  3.0770  0.2715  0.9373
  124OSM    H6T13195   5.162   0.446   6.944 -0.3497  0.5387 -1.3654
  124OSM    C7S13196   5.334   0.452   7.074  0.7616 -0.2359  0.2480
  124OSM    H7S13197   5.377   0.551   7.047  4.2841 -2.1513 -1.9868
  124OSM    H7T13198   5.420   0.382   7.086  1.1883  0.3844  0.9000
  124OSM    C8S13199   5.270   0.457   7.213 -0.0102 -0.6798  0.4109
  124OSM    H8S13200   5.244   0.356   7.250 -2.9719 -0.5692 -1.0495
  124OSM    H8T13201   5.176   0.518   7.211  0.3697  0.0485  2.5314
  124OSM    C9S13202   5.360   0.519   7.322 -0.6023  0.4216 -0.2176
  124OSM    H9S13203   5.365   0.630   7.311 -3.1058  0.5067 -1.1328
  124OSM    H9T13204   5.460   0.471   7.327  0.1707  1.8087 -1.4891
  124OSM   C10S13205   5.290   0.496   7.459 -0.1103  0.8158 -0.1544
  124OSM   H10S13206   5.321   0.393   7.488 -3.2711  0.0780  1.0074
  124OSM   H10T13207   5.183   0.504   7.430  0.7692  4.2893 -3.0589
  124OSM   C11S13208   5.339   0.584   7.570 -0.3943 -0.0567  0.8841
  124OSM   H11S13209   5.305   0.689   7.554  0.8456  0.0828 -1.3452
  124OSM   H11T13210   5.450   0.591   7.560 -0.4627  3.9088  1.3132
  124OSM   C12S13211   5.290   0.536   7.712 -0.1245 -0.7692  0.7093
  124OSM   H12S13212   5.343   0.442   7.738 -1.1489 -1.9454 -1.2390
  124OSM   H12T13213   5.180   0.521   7.713 -0.7783  2.9936  0.1605
  124OSM   C13S13214   5.321   0.626   7.827  0.0708  0.6879 -0.1514
  124OSM   H13S13215   5.267   0.723   7.821  0.0933  0.6351 -1.4593
  124OSM   H13T13216   5.428   0.653   7.823  0.6311 -1.3941 -0.2397
  124OSM   C14S13217   5.284   0.562   7.962  0.8947 -0.0303 -0.8020
  124OSM   H14S13218   5.311   0.647   8.028  0.8088  1.2987 -2.3953
  124OSM   H14T13219   5.342   0.470   7.985  1.3153  0.0781 -1.3895
  124OSM   C15S13220   5.132   0.536   7.976  0.0461 -0.2365  0.7417
  124OSM   H15S13221   5.098   0.458   7.904 -0.8653  0.7798  0.0487
  124OSM   H15T13222   5.076   0.628   7.949 -1.6398 -0.5838  2.7728
  124OSM   C16S13223   5.093   0.501   8.119  0.1385  0.0310 -0.0320
  124OSM   H16S13224   4.983   0.488   8.120  0.2328 -0.9870 -1.0545
  124OSM   H16T13225   5.118   0.589   8.182  1.3877 -0.7644  0.6252
  124OSM   C17S13226   5.151   0.369   8.164 -0.2355 -0.0184 -0.4235
  124OSM   H17S13227   5.262   0.374   8.160 -0.2642  2.2767  0.3890
  124OSM   H17T13228   5.135   0.292   8.085  0.0468 -0.2433 -0.2642
  124OSM   C18S13229   5.095   0.325   8.296 -0.4764 -0.1805  0.8038
  124OSM   H18S13230   5.175   0.265   8.344  1.1579  0.2266 -1.2593
  124OSM   H18T13231   5.010   0.254   8.287  0.6422 -1.5762  1.1048
  124OSM   H18U13232   5.086   0.415   8.362  0.8877  0.8921 -0.4096
  124OSM    C1F13233   5.822   0.243   6.836  0.3585  0.1268  0.0725
  124OSM     OF13234   5.855   0.356   6.805  0.0139  0.3229  0.1432
  124OSM    C2F13235   5.909   0.144   6.910 -0.1632 -0.1024  0.7917
  124OSM    H2F13236   5.931   0.067   6.832 -0.0290  0.2402  0.4901
  124OSM    H2G13237   5.842   0.083   6.975 -1.5438  1.0176  0.4528
  124OSM    C3F13238   6.029   0.211   6.985  1.4118 -0.1284  0.4803
  124OSM    H3F13239   6.113   0.233   6.915  0.9117 -3.0879 -1.2120
  124OSM    H3G13240   6.073   0.127   7.045  2.0812 -0.4544 -0.4445
  124OSM    C4F13241   5.994   0.338   7.068  0.6579 -0.6993 -0.6187
  124OSM    H4F13242   5.886   0.351   7.086  0.8268 -0.5960  0.3970
  124OSM    H4G13243   6.029   0.427   7.011  1.1608  0.3153  1.1847
  124OSM    C5F13244   6.059   0.343   7.216  0.6796 -0.3271  0.7833
  124OSM    H5F13245   6.169   0.341   7.198  0.6635 -4.2272  0.4362
  124OSM    H5G13246   6.019   0.250   7.262 -2.4623 -0.5365 -2.0510
  124OSM    C6F13247   6.021   0.462   7.302  0.3488  0.5630  0.5590
  124OSM    H6F13248   5.910   0.466   7.313  0.3610 -1.4008  1.8955
  124OSM    H6G13249   6.049   0.559   7.256 -0.9372  0.9013  0.4348
  124OSM    C7F13250   6.095   0.451   7.438 -0.3405  0.3863  0.0880
  124OSM    H7F13251   6.204   0.442   7.420 -0.4275 -2.1901  0.4916
  124OSM    H7G13252   6.055   0.355   7.478  2.1063 -0.4097  0.7625
  124OSM    C8F13253   6.067   0.570   7.530 -0.0697  0.0432 -0.4944
  124OSM    H8F13254   5.958   0.573   7.550  0.3387 -0.2183  2.0339
  124OSM    H8G13255   6.083   0.667   7.478  0.4367  1.3102  1.9004
  124OSM    C9F13256   6.135   0.552   7.663 -0.4271 -0.0929  0.3923
  124OSM    H9F13257   6.106   0.457   7.710 -0.0045 -0.7670 -0.6702
  124OSM   C10F13258   6.197   0.651   7.733 -0.4048  0.1382 -0.4176
  124OSM   H10F13259   6.257   0.622   7.821  1.4521  1.3794 -1.2186
  124OSM   C11F13260   6.220   0.791   7.682  0.1080 -0.1437 -1.2139
  124OSM   H11F13261   6.211   0.858   7.770  1.8216 -0.6354 -0.6147
  124OSM   H11G13262   6.136   0.818   7.615 -2.3679  0.4963  1.9533
  124OSM   C12F13263   6.354   0.825   7.612 -0.5129  0.6850 -0.0820
  124OSM   H12F13264   6.364   0.748   7.532 -0.7180  1.0814 -0.4895
  124OSM   H12G13265   6.444   0.801   7.672 -0.4528 -1.9611 -1.0920
  124OSM   C13F13266   6.356   0.961   7.552  0.3821  0.9876 -0.7304
  124OSM   H13F13267   6.427   1.034   7.595  0.5709  0.1884  0.3546
  124OSM   H13G13268   6.251   0.996   7.559 -0.5236 -1.2231 -2.1178
  124OSM   C14F13269   6.385   0.962   7.404 -0.0677 -0.4658 -0.4909
  124OSM   H14F13270   6.478   0.921   7.361  0.5223  0.4676 -0.1374
  124OSM   H14G13271   6.395   1.069   7.376 -1.7803  0.5368  2.3016
  124OSM   C15F13272   6.268   0.906   7.317 -0.3765  0.4181  0.0959
  124OSM   H15F13273   6.178   0.952   7.362 -0.7137 -0.2069  0.0786
  124OSM   H15G13274   6.262   0.796   7.333 -0.9410  0.4537  0.1278
  124OSM   C16F13275   6.275   0.936   7.168  0.2947 -0.1320 -0.2749
  124OSM   H16F13276   6.360   0.884   7.119 -1.5153 -2.8957 -0.7141
  124OSM   H16G13277   6.288   1.045   7.149  2.9674 -0.6721 -2.2500
  124OSM   C17F13278   6.146   0.878   7.102  0.7756  0.1220 -0.3628
  124OSM   H17F13279   6.063   0.939   7.144  2.2378  0.2061  2.7609
  124OSM   H17G13280   6.126   0.774   7.139  0.0824  0.4051  0.0822
  124OSM   C18F13281   6.138   0.880   6.951 -0.4166  0.4651 -0.1484
  124OSM   H18F13282   6.135   0.980   6.901 -0.2132  0.5410 -0.0094
  124OSM   H18G13283   6.046   0.821   6.929 -0.7995  1.2666 -0.7646
  124OSM   H18H13284   6.231   0.832   6.913  0.1695  0.2802  1.4634
  125OSM      N13285   6.635   2.032   5.956 -0.3310 -0.4059 -0.1024
  125OSM    C1513286   6.609   1.933   5.843 -0.3975  0.1267 -0.1223
  125OSM   H15A13287   6.505   1.910   5.823 -0.3865 -0.4220  0.4369
  125OSM   H15B13288   6.669   1.844   5.839 -0.4530  0.1057 -0.5873
  125OSM   H15C13289   6.652   1.979   5.755  0.9819  0.7624  0.8633
  125OSM    C1413290   6.785   2.044   5.968  0.5695 -0.5752  1.0004
  125OSM   H14A13291   6.830   2.083   5.878  0.6444  0.5357  1.5050
  125OSM   H14B13292   6.833   1.949   5.989  0.2433 -0.9782 -0.0538
  125OSM   H14C13293   6.808   2.122   6.039 -0.8077 -0.3784  1.2547
  125OSM    C1313294   6.586   2.165   5.915 -0.2867  0.0767  0.6562
  125OSM   H13A13295   6.597   2.235   5.996  0.4275 -1.8845  2.3702
  125OSM   H13B13296   6.486   2.168   5.874  0.5953  1.9942 -1.5925
  125OSM   H13C13297   6.644   2.202   5.831 -1.2456  2.8351  1.1386
  125OSM    C1213298   6.572   1.994   6.085 -0.1519  0.0325 -0.2369
  125OSM   H12A13299   6.614   1.902   6.123  1.6337  0.7576 -0.3667
  125OSM   H12B13300   6.465   1.980   6.086 -0.1056 -0.3994  0.7900
  125OSM    C1113301   6.591   2.090   6.205  0.2606  0.1483 -0.2859
  125OSM   H11A13302   6.696   2.126   6.203  0.0867  0.7039  0.3383
  125OSM   H11B13303   6.572   2.035   6.300 -3.1924 -0.6547 -1.2834
  125OSM      P13304   6.350   2.192   6.234  0.1602  0.0108  0.0632
  125OSM    O1313305   6.284   2.323   6.212 -0.2823 -0.1565  0.1363
  125OSM    O1413306   6.292   2.078   6.160  0.2720 -0.6356  0.3071
  125OSM    O1113307   6.352   2.165   6.388 -0.2641 -0.5481 -0.4193
  125OSM    O1213308   6.509   2.208   6.199  0.0705 -0.0368  0.6334
  125OSM    C1S13309   6.398   2.263   6.483 -0.2816  0.0082  0.1834
  125OSM    H1S13310   6.336   2.354   6.473  0.5514  0.6741  0.9307
  125OSM    H1T13311   6.504   2.294   6.469 -0.2574  0.1238  0.6046
  125OSM     NF13312   6.450   2.301   6.721  0.0222 -0.1315 -0.0324
  125OSM    HNF13313   6.542   2.281   6.754 -0.4990  0.0972  1.6021
  125OSM    C2S13314   6.395   2.205   6.628  0.1645 -0.2174 -0.0879
  125OSM    H2S13315   6.286   2.194   6.649  0.0764 -1.1190 -0.9289
  125OSM    C3S13316   6.463   2.071   6.637  0.4890  0.4006 -0.1528
  125OSM    H3S13317   6.570   2.092   6.614  0.2051  2.8632  0.4792
  125OSM     O313318   6.415   1.976   6.539 -0.4411 -0.2251 -0.3785
  125OSM    HO313319   6.380   2.032   6.469 -1.3469  1.3011  1.2080
  125OSM    C4S13320   6.444   2.026   6.783 -0.0872  0.4319  0.2250
  125OSM    H4S13321   6.530   2.033   6.851  0.4247  2.5653 -0.5467
  125OSM    C5S13322   6.327   1.965   6.821 -0.9127  1.1890  0.3779
  125OSM    H5S13323   6.244   1.950   6.750  0.4268  0.4574 -1.0661
  125OSM    C6S13324   6.303   1.918   6.961  0.6805 -0.3417 -0.0235
  125OSM    H6S13325   6.343   1.814   6.966 -0.6950 -0.8510  2.1252
  125OSM    H6T13326   6.194   1.912   6.982  1.0179  0.6672  2.4669
  125OSM    C7S13327   6.376   1.990   7.077 -0.3036 -0.0650  0.0048
  125OSM    H7S13328   6.365   2.098   7.055  1.1382  0.3570  1.1795
  125OSM    H7T13329   6.485   1.972   7.063 -0.1953  1.0650 -0.7970
  125OSM    C8S13330   6.325   1.950   7.214  0.6814  0.0732  0.2134
  125OSM    H8S13331   6.323   1.844   7.247  0.3612 -1.1315 -3.1857
  125OSM    H8T13332   6.219   1.982   7.221  0.4262 -1.0756  2.6593
  125OSM    C9S13333   6.400   2.021   7.332  0.5344  0.1992  0.2724
  125OSM    H9S13334   6.402   2.129   7.305  0.7586  0.2546  0.5123
  125OSM    H9T13335   6.506   1.987   7.330  0.3636 -0.4815 -2.9702
  125OSM   C10S13336   6.344   1.981   7.469 -0.4139  0.0873 -0.0785
  125OSM   H10S13337   6.348   1.870   7.466  3.5413  0.0966  0.1756
  125OSM   H10T13338   6.242   2.021   7.489  1.1415  3.4355  2.0049
  125OSM   C11S13339   6.437   2.037   7.580  0.6352  0.5744  0.8864
  125OSM   H11S13340   6.427   2.147   7.579  0.5863  0.6677  3.7754
  125OSM   H11T13341   6.542   2.008   7.553  0.2568 -1.1995  1.1563
  125OSM   C12S13342   6.387   1.977   7.714 -0.4974 -0.0779 -0.2064
  125OSM   H12S13343   6.385   1.866   7.712 -0.7652 -0.1609  1.9899
  125OSM   H12T13344   6.279   2.000   7.722 -0.4918  0.8824 -2.1897
  125OSM   C13S13345   6.465   2.027   7.831 -0.4676 -0.0851 -0.0834
  125OSM   H13S13346   6.453   2.137   7.820  1.4310  0.1085 -0.5464
  125OSM   H13T13347   6.574   2.020   7.815  0.0049  2.6385  1.3054
  125OSM   C14S13348   6.435   1.969   7.970  0.1112 -0.5101 -0.4784
  125OSM   H14S13349   6.458   1.860   7.967 -0.1037 -0.5482 -2.2406
  125OSM   H14T13350   6.326   1.967   7.990  0.6367 -0.3416  2.9579
  125OSM   C15S13351   6.499   2.051   8.085  0.3000 -0.9394  0.8411
  125OSM   H15S13352   6.477   2.156   8.060  2.4951 -0.4531  0.7273
  125OSM   H15T13353   6.609   2.039   8.098  0.5237  1.7518  1.9131
  125OSM   C16S13354   6.425   2.013   8.215  0.1479  0.0365  0.4060
  125OSM   H16S13355   6.411   1.903   8.221 -0.1151 -0.1053 -1.9780
  125OSM   H16T13356   6.322   2.054   8.213  0.0999  0.0142  1.4951
  125OSM   C17S13357   6.488   2.062   8.344  0.2067  0.1183 -0.4293
  125OSM   H17S13358   6.460   2.169   8.355 -2.1233 -0.5930  1.3327
  125OSM   H17T13359   6.598   2.048   8.345  0.3525  1.1990  0.0006
  125OSM   C18S13360   6.436   1.991   8.466 -0.1512 -0.3815 -0.5577
  125OSM   H18S13361   6.487   2.020   8.561 -1.4425  0.8399 -0.2020
  125OSM   H18T13362   6.454   1.882   8.454  2.6274 -0.5721  3.3580
  125OSM   H18U13363   6.327   2.008   8.475 -0.6103 -1.8953 -2.6898
  125OSM    C1F13364   6.400   2.427   6.737  0.4463  0.3160 -0.1629
  125OSM     OF13365   6.278   2.446   6.714 -0.0043 -0.2564 -0.3031
  125OSM    C2F13366   6.488   2.525   6.801  0.4543  0.7778 -0.0738
  125OSM    H2F13367   6.593   2.510   6.768 -0.4521  1.4193 -3.6227
  125OSM    H2G13368   6.473   2.501   6.909 -2.4644  1.7700 -0.1738
  125OSM    C3F13369   6.465   2.676   6.768  0.1718 -0.2219  0.0827
  125OSM    H3F13370   6.361   2.706   6.795 -0.5126  0.4185 -2.9495
  125OSM    H3G13371   6.473   2.691   6.659 -3.1858 -0.7926 -0.3647
  125OSM    C4F13372   6.552   2.770   6.857  0.2485 -0.0715 -0.2156
  125OSM    H4F13373   6.547   2.860   6.791  0.3082  0.1263  0.0478
  125OSM    H4G13374   6.659   2.739   6.854  0.7990  1.5763  0.7832
  125OSM    C5F13375   6.503   2.787   7.002 -0.0785  0.7561  0.2944
  125OSM    H5F13376   6.586   2.848   7.045  1.5655 -0.5156 -0.9471
  125OSM    H5G13377   6.484   2.688   7.049  0.7161  0.0451 -0.8298
  125OSM    C6F13378   6.370   2.863   7.012  0.0509 -0.0064 -0.0494
  125OSM    H6F13379   6.284   2.795   6.994  0.3097 -0.6263  0.9484
  125OSM    H6G13380   6.381   2.927   6.922  0.7840  2.5255  1.7181
  125OSM    C7F13381   6.365   2.955   7.130  0.0859 -0.6091 -0.6479
  125OSM    H7F13382   6.280   3.026   7.114  2.1200  2.4017  0.8839
  125OSM    H7G13383   6.454   3.022   7.130 -0.7552  0.5627 -0.0289
  125OSM    C8F13384   6.338   2.887   7.268  0.1971 -0.2065 -0.7348
  125OSM    H8F13385   6.418   2.816   7.297  0.8632 -0.1958 -2.4350
  125OSM    H8G13386   6.245   2.827   7.257 -0.6344  0.4431  1.9331
  125OSM    C9F13387   6.316   2.999   7.373  0.5299  0.3259  0.9612
  125OSM    H9F13388   6.253   3.080   7.333  0.2675 -0.3813 -0.1066
  125OSM   C10F13389   6.376   3.008   7.493  0.2356 -0.1223 -0.0756
  125OSM   H10F13390   6.345   3.093   7.556  0.6790 -0.6464  0.8796
  125OSM   C11F13391   6.475   2.912   7.558  0.0250 -0.1072 -0.0831
  125OSM   H11F13392   6.565   2.977   7.554 -0.7921  1.0158 -2.0785
  125OSM   H11G13393   6.492   2.820   7.498  0.4264 -1.3511  1.8718
  125OSM   C12F13394   6.428   2.868   7.689 -0.0170  0.1253  0.1394
  125OSM   H12F13395   6.497   2.789   7.726 -0.1351 -0.1104 -0.1462
  125OSM   H12G13396   6.323   2.834   7.685  0.3566 -1.2447  1.2880
  125OSM   C13F13397   6.440   2.980   7.801 -0.1417 -0.7518  0.0685
  125OSM   H13F13398   6.370   3.063   7.774  0.5818 -0.9782 -2.7636
  125OSM   H13G13399   6.548   3.004   7.810 -0.6876  1.6498  1.0545
  125OSM   C14F13400   6.383   2.936   7.933  0.2296 -0.0367  0.0288
  125OSM   H14F13401   6.276   2.908   7.927 -0.3159  2.2123 -1.8028
  125OSM   H14G13402   6.395   3.015   8.010  0.9941  0.0026 -0.1230
  125OSM   C15F13403   6.444   2.804   7.991 -0.5598  0.4816 -0.2136
  125OSM   H15F13404   6.551   2.816   7.965 -0.8525  0.3715 -1.5381
  125OSM   H15G13405   6.394   2.721   7.937  0.8534  0.2441 -1.2179
  125OSM   C16F13406   6.416   2.790   8.139  0.5887 -0.3371  0.2639
  125OSM   H16F13407   6.306   2.797   8.157  0.0975 -0.1196 -2.4813
  125OSM   H16G13408   6.455   2.874   8.200  0.8408 -1.1874  1.3163
  125OSM   C17F13409   6.453   2.649   8.194  0.2041 -0.0984  0.1917
  125OSM   H17F13410   6.561   2.643   8.221 -0.3169 -1.8522  2.1744
  125OSM   H17G13411   6.432   2.563   8.128 -1.7805 -1.8344  2.8603
  125OSM   C18F13412   6.375   2.615   8.325  0.2827 -0.8166 -0.2008
  125OSM   H18F13413   6.392   2.689   8.406 -1.2215 -1.4271  0.7186
  125OSM   H18G13414   6.390   2.509   8.354 -0.3183 -1.3799 -1.8222
  125OSM   H18H13415   6.266   2.625   8.307  0.7508 -0.2521 -3.1086
  126OSM      N13416   3.973   1.383   6.147  0.2974  0.6571  0.1223
  126OSM    C1513417   3.839   1.311   6.150  0.0483  0.5579 -0.1927
  126OSM   H15A13418   3.784   1.351   6.233  0.5212  2.9589 -0.9620
  126OSM   H15B13419   3.849   1.204   6.161 -1.1928  0.2780 -1.4110
  126OSM   H15C13420   3.779   1.322   6.060 -2.2906 -1.0793  1.0395
  126OSM    C1413421   4.049   1.354   6.025  0.1281  0.4866 -0.0333
  126OSM   H14A13422   4.004   1.395   5.937 -2.3210  0.1223  0.9652
  126OSM   H14B13423   4.049   1.247   6.009 -1.1080  0.4110  0.3754
  126OSM   H14C13424   4.151   1.387   6.038  0.0999  0.5072  0.1466
  126OSM    C1313425   3.939   1.527   6.145  0.0659  0.8988  0.0907
  126OSM   H13A13426   3.913   1.562   6.046 -1.2248  0.4321  0.2424
  126OSM   H13B13427   4.023   1.582   6.183  0.4076  1.2605 -1.1226
  126OSM   H13C13428   3.851   1.553   6.202 -0.4436 -1.2388  0.3666
  126OSM    C1213429   4.040   1.356   6.280  0.3019 -0.3201  0.4731
  126OSM   H12A13430   4.136   1.402   6.265  0.6801 -1.6877 -1.7784
  126OSM   H12B13431   4.053   1.250   6.299  0.2841 -0.7079 -1.5324
  126OSM    C1113432   3.961   1.404   6.408  0.3161 -0.3698 -0.6908
  126OSM   H11A13433   3.923   1.507   6.392 -0.3868 -0.7979 -1.8694
  126OSM   H11B13434   4.031   1.397   6.494  1.2065  1.4318 -1.2004
  126OSM      P13435   3.844   1.177   6.479  0.4009 -0.1715  0.3062
  126OSM    O1313436   3.702   1.128   6.487  0.1639 -0.1474  0.0820
  126OSM    O1413437   3.937   1.092   6.400  0.8150 -0.0808 -0.0542
  126OSM    O1113438   3.895   1.190   6.622  0.8647  0.4503  0.1808
  126OSM    O1213439   3.845   1.328   6.429  0.6739  0.0156  0.5886
  126OSM    C1S13440   3.847   1.287   6.718  0.0648 -0.0977 -0.3224
  126OSM    H1S13441   3.736   1.282   6.728 -0.2422 -0.5749 -3.0146
  126OSM    H1T13442   3.874   1.392   6.694  1.4405  0.2991  2.5759
  126OSM     NF13443   3.817   1.306   6.970 -0.2162  0.0375 -0.2348
  126OSM    HNF13444   3.853   1.383   7.023 -1.9312  0.1663  0.7895
  126OSM    C2S13445   3.902   1.248   6.862  0.3323  0.1788  0.1640
  126OSM    H2S13446   3.904   1.138   6.872 -1.5155  0.1620  0.5965
  126OSM    C3S13447   4.047   1.295   6.863 -0.4915  0.2499 -0.6197
  126OSM    H3S13448   4.057   1.405   6.865  1.8923  0.1341  2.3593
  126OSM     O313449   4.121   1.263   6.744 -0.5510  0.2443  0.6833
  126OSM    HO313450   4.054   1.229   6.685  0.5023  2.6638 -2.1780
  126OSM    C4S13451   4.119   1.238   6.987 -0.0482  0.3446 -0.1287
  126OSM    H4S13452   4.081   1.288   7.077  1.0077  1.6222 -0.3590
  126OSM    C5S13453   4.216   1.142   7.002  0.0412  0.6083 -0.4519
  126OSM    H5S13454   4.257   1.089   6.915 -1.3737 -1.3004 -0.0204
  126OSM    C6S13455   4.278   1.093   7.127 -0.5043 -0.5068 -0.2936
  126OSM    H6S13456   4.324   1.176   7.184 -0.8805  0.5829 -1.5207
  126OSM    H6T13457   4.355   1.020   7.095  0.6644  1.1974 -1.5898
  126OSM    C7S13458   4.171   1.031   7.227  0.1779  0.0059 -0.0964
  126OSM    H7S13459   4.126   0.940   7.181  0.4790 -0.2544  0.1194
  126OSM    H7T13460   4.088   1.103   7.244  0.1018 -0.0679 -0.1568
  126OSM    C8S13461   4.225   1.003   7.364  1.0061 -0.7850 -0.6977
  126OSM    H8S13462   4.271   1.096   7.404 -0.1029 -0.2828 -0.5565
  126OSM    H8T13463   4.305   0.927   7.357 -0.7263 -3.0698  2.2148
  126OSM    C9S13464   4.118   0.947   7.460  0.3435  0.5235 -0.4854
  126OSM    H9S13465   4.082   0.853   7.412  0.5003  0.4031 -0.3721
  126OSM    H9T13466   4.033   1.017   7.472  2.4703  2.8358  2.7043
  126OSM   C10S13467   4.177   0.929   7.601  0.4662  0.4297  0.1267
  126OSM   H10S13468   4.206   1.029   7.640 -0.9101  1.1626 -0.6297
  126OSM   H10T13469   4.257   0.853   7.593 -0.2729 -0.3846  0.2020
  126OSM   C11S13470   4.068   0.869   7.697 -0.1531  0.5570  0.0292
  126OSM   H11S13471   4.032   0.774   7.650  1.4855  0.2632 -0.7068
  126OSM   H11T13472   3.982   0.938   7.686 -1.0079 -0.2179  1.5818
  126OSM   C12S13473   4.116   0.863   7.847  0.1633  0.7874 -0.7908
  126OSM   H12S13474   4.129   0.969   7.877 -0.8081  1.4039 -2.3948
  126OSM   H12T13475   4.213   0.809   7.848  0.3123  0.9465  1.8749
  126OSM   C13S13476   4.024   0.801   7.951 -0.4792  0.5123  0.5995
  126OSM   H13S13477   3.999   0.694   7.935 -0.2372  0.7712 -2.0719
  126OSM   H13T13478   3.923   0.847   7.942 -1.6070 -2.0089 -0.8199
  126OSM   C14S13479   4.079   0.818   8.097 -0.5349 -0.7179  0.3150
  126OSM   H14S13480   4.073   0.919   8.142 -1.2793  0.6525 -2.6233
  126OSM   H14T13481   4.178   0.770   8.113 -0.7269 -0.2879  3.4534
  126OSM   C15S13482   3.987   0.742   8.193  0.2042  0.4450  1.1210
  126OSM   H15S13483   3.986   0.639   8.152 -0.3983  1.1613 -0.7734
  126OSM   H15T13484   3.886   0.788   8.200 -0.1445 -0.2652  0.7946
  126OSM   C16S13485   4.042   0.730   8.336 -0.6623 -0.5481 -0.0475
  126OSM   H16S13486   4.040   0.834   8.375  0.4121 -0.7814  0.6670
  126OSM   H16T13487   4.143   0.686   8.320 -1.6807 -2.3684 -2.0244
  126OSM   C17S13488   3.968   0.637   8.432  0.1681  0.5352  0.2003
  126OSM   H17S13489   3.982   0.531   8.401  0.6328  0.7977 -0.5133
  126OSM   H17T13490   3.860   0.654   8.412  0.3997  0.3562 -1.3956
  126OSM   C18S13491   4.000   0.640   8.577 -1.1342  0.1859 -0.8347
  126OSM   H18S13492   3.997   0.740   8.625 -0.7815 -0.0508 -0.3174
  126OSM   H18T13493   4.098   0.593   8.600 -1.4592 -0.4741 -0.7723
  126OSM   H18U13494   3.920   0.576   8.621  0.3600 -2.5858 -1.8641
  126OSM    C1F13495   3.697   1.264   6.984  0.2492 -0.4903 -0.0721
  126OSM     OF13496   3.654   1.156   6.935  0.0395  0.1498 -0.2667
  126OSM    C2F13497   3.601   1.345   7.070  0.3470 -0.1778 -0.2591
  126OSM    H2F13498   3.536   1.398   6.997 -0.6415 -1.2442 -0.1903
  126OSM    H2G13499   3.654   1.420   7.132  3.3127 -1.2005 -1.3796
  126OSM    C3F13500   3.532   1.250   7.175  0.2384 -0.2251  0.3379
  126OSM    H3F13501   3.609   1.211   7.245  1.7387  1.6168 -0.2013
  126OSM    H3G13502   3.475   1.165   7.133 -1.5908  0.3385  1.5462
  126OSM    C4F13503   3.430   1.328   7.266  0.7900  0.6804  0.5657
  126OSM    H4F13504   3.340   1.360   7.210 -0.0634  1.3943  2.2647
  126OSM    H4G13505   3.484   1.415   7.309  1.2842  0.1090  1.1299
  126OSM    C5F13506   3.390   1.247   7.386 -0.3427  0.2911 -0.1814
  126OSM    H5F13507   3.477   1.212   7.445 -2.4804 -2.9892  1.2626
  126OSM    H5G13508   3.339   1.159   7.342 -1.1289  1.5176 -1.8773
  126OSM    C6F13509   3.306   1.326   7.488  0.2634 -0.1698  0.3320
  126OSM    H6F13510   3.245   1.393   7.423 -0.6913 -2.8921 -1.7640
  126OSM    H6G13511   3.365   1.386   7.561 -0.3608  1.5493 -0.5016
  126OSM    C7F13512   3.200   1.231   7.559 -0.2257 -0.2030  0.1069
  126OSM    H7F13513   3.265   1.156   7.609 -1.7196 -0.5150  1.6633
  126OSM    H7G13514   3.146   1.176   7.479  1.6070  0.4002 -1.6501
  126OSM    C8F13515   3.126   1.308   7.658  0.7320 -0.1203 -0.4934
  126OSM    H8F13516   3.081   1.396   7.607 -0.6039 -1.7191 -2.1904
  126OSM    H8G13517   3.201   1.339   7.734 -0.9215 -0.7189  1.4701
  126OSM    C9F13518   3.016   1.222   7.728 -0.0787 -0.0208  0.4960
  126OSM    H9F13519   2.926   1.198   7.670  1.1502  0.6038 -1.8059
  126OSM   C10F13520   3.028   1.168   7.852  0.2805  0.3594  1.1242
  126OSM   H10F13521   2.949   1.095   7.875  0.6851  0.2573  2.2765
  126OSM   C11F13522   3.134   1.174   7.954  0.1493  0.0485 -0.1643
  126OSM   H11F13523   3.228   1.224   7.923  1.2829 -1.7868  0.1615
  126OSM   H11G13524   3.160   1.067   7.972 -0.3967  0.2417  2.0589
  126OSM   C12F13525   3.093   1.236   8.087 -0.9339  0.3906  0.5622
  126OSM   H12F13526   3.092   1.347   8.079  1.9063  0.5522  1.4005
  126OSM   H12G13527   3.164   1.208   8.167 -1.8050  1.8667  1.9002
  126OSM   C13F13528   2.965   1.191   8.158 -0.7327  0.2421 -0.0948
  126OSM   H13F13529   2.878   1.208   8.091 -0.3177  1.5349 -0.3356
  126OSM   H13G13530   2.950   1.256   8.247 -0.4202  2.5803 -1.6722
  126OSM   C14F13531   2.962   1.041   8.203  0.0239  0.4161 -0.0668
  126OSM   H14F13532   3.049   1.025   8.271 -0.9386  1.5700  1.5175
  126OSM   H14G13533   2.962   0.993   8.103 -0.7681  2.2626 -1.0099
  126OSM   C15F13534   2.836   0.999   8.283 -0.9325  0.6056  0.6944
  126OSM   H15F13535   2.831   0.889   8.268  0.2307  0.5077  0.9368
  126OSM   H15G13536   2.746   1.053   8.249 -0.7329  1.1893  1.0909
  126OSM   C16F13537   2.838   1.026   8.432 -0.3427 -0.1445 -0.3336
  126OSM   H16F13538   2.932   1.008   8.489 -0.7175 -0.2325  0.2716
  126OSM   H16G13539   2.773   0.954   8.487  0.2949 -0.2635  0.2821
  126OSM   C17F13540   2.816   1.172   8.479  0.0307  0.4566  0.1732
  126OSM   H17F13541   2.741   1.215   8.409  0.1247  0.0827 -0.1631
  126OSM   H17G13542   2.906   1.231   8.453 -1.1837  2.0230 -0.6641
  126OSM   C18F13543   2.773   1.190   8.627 -0.0621 -0.3625 -0.4747
  126OSM   H18F13544   2.861   1.163   8.690  1.7194  0.2159 -2.5818
  126OSM   H18G13545   2.690   1.119   8.647 -0.6055  0.4170  0.0994
  126OSM   H18H13546   2.736   1.294   8.638  0.1011 -0.3053 -0.4686
  127OSM      N13547   4.468   0.559   6.508  0.3114  0.2826 -0.2945
  127OSM    C1513548   4.614   0.529   6.487  0.3081  0.4228 -0.5655
  127OSM   H15A13549   4.661   0.600   6.421 -0.1934  0.7058 -0.6267
  127OSM   H15B13550   4.622   0.427   6.452  2.2095  1.2624 -2.8780
  127OSM   H15C13551   4.660   0.547   6.583 -1.2494  2.7413 -0.1576
  127OSM    C1413552   4.422   0.497   6.639 -1.0074  0.2459 -0.4219
  127OSM   H14A13553   4.430   0.390   6.633 -4.1479 -0.0199 -1.9910
  127OSM   H14B13554   4.317   0.516   6.654 -0.4497  2.1135  1.5661
  127OSM   H14C13555   4.469   0.536   6.728 -1.6422 -1.0065  0.4826
  127OSM    C1313556   4.455   0.704   6.529  0.5563  0.7391  0.3768
  127OSM   H13A13557   4.483   0.753   6.437  2.5839  0.3627  0.7308
  127OSM   H13B13558   4.537   0.735   6.593  2.1030 -2.8541  0.3506
  127OSM   H13C13559   4.360   0.746   6.556  0.9630  3.3522 -1.8154
  127OSM    C1213560   4.383   0.506   6.387 -0.4108  0.0216 -0.0561
  127OSM   H12A13561   4.426   0.546   6.296 -0.0981  0.1877  0.1608
  127OSM   H12B13562   4.282   0.543   6.392 -1.0770 -1.7411  0.1947
  127OSM    C1113563   4.395   0.358   6.337 -0.4643 -0.0294  0.4928
  127OSM   H11A13564   4.326   0.344   6.251 -0.8942 -0.7799  0.9529
  127OSM   H11B13565   4.349   0.298   6.418 -0.0422 -2.0066 -0.6503
  127OSM      P13566   4.566   0.167   6.299 -0.0665 -0.0930 -0.2579
  127OSM    O1313567   4.505   0.105   6.177 -0.2695 -0.0056  0.0019
  127OSM    O1413568   4.712   0.168   6.295 -0.5716 -0.5852  0.1913
  127OSM    O1113569   4.492   0.108   6.427 -0.5330  0.4107 -0.1979
  127OSM    O1213570   4.528   0.325   6.304 -0.3689 -0.0366 -0.1270
  127OSM    C1S13571   4.526   0.128   6.566 -0.0199 -0.3416  1.2226
  127OSM    H1S13572   4.493   0.229   6.598  0.3986 -0.2000  1.2181
  127OSM    H1T13573   4.635   0.118   6.583  0.3373  0.2510 -0.5026
  127OSM     NF13574   4.467   0.071   6.789 -0.4656 -0.2153 -0.6308
  127OSM    HNF13575   4.532   0.018   6.842 -0.3724 -1.5551 -2.0238
  127OSM    C2S13576   4.447   0.027   6.656 -0.2384  0.2149 -0.0133
  127OSM    H2S13577   4.339   0.045   6.636  0.0781  0.1688 -1.9380
  127OSM    C3S13578   4.486  -0.115   6.620 -0.3039  0.2564  0.0463
  127OSM    H3S13579   4.597  -0.120   6.612 -0.2949 -0.1757  0.3877
  127OSM     O313580   4.448  -0.158   6.491  0.4081 -0.2646 -0.4569
  127OSM    HO313581   4.441  -0.075   6.444 -1.5607 -0.1036  0.0430
  127OSM    C4S13582   4.438  -0.209   6.724  0.7986  0.7976  0.1504
  127OSM    H4S13583   4.333  -0.239   6.712  0.8621  0.7399 -0.2836
  127OSM    C5S13584   4.522  -0.275   6.810 -0.1907 -0.1836  0.2478
  127OSM    H5S13585   4.624  -0.234   6.814 -1.2427  3.2157 -2.7189
  127OSM    C6S13586   4.471  -0.372   6.917 -0.2100  0.9526  0.6053
  127OSM    H6S13587   4.557  -0.430   6.959  1.2007  3.1090  0.8399
  127OSM    H6T13588   4.399  -0.436   6.861  1.9057  0.2203 -1.5052
  127OSM    C7S13589   4.391  -0.300   7.024  0.2110  0.1658  0.2872
  127OSM    H7S13590   4.285  -0.282   6.996  0.3143  1.6558  0.7663
  127OSM    H7T13591   4.429  -0.197   7.041  2.3830 -0.7534  1.3568
  127OSM    C8S13592   4.400  -0.375   7.164 -0.3369 -0.0100 -0.1824
  127OSM    H8S13593   4.505  -0.377   7.198 -0.8401 -1.6379  1.4013
  127OSM    H8T13594   4.359  -0.478   7.157 -0.1187  0.0377 -3.4430
  127OSM    C9S13595   4.337  -0.296   7.281  1.1224  0.9367  0.5811
  127OSM    H9S13596   4.229  -0.318   7.274  1.3766 -0.1587 -0.2516
  127OSM    H9T13597   4.350  -0.188   7.262  0.7054  0.6787 -1.3152
  127OSM   C10S13598   4.388  -0.335   7.422  0.1560 -0.6402 -0.8834
  127OSM   H10S13599   4.492  -0.296   7.426  0.5034 -1.2660 -2.6935
  127OSM   H10T13600   4.388  -0.445   7.435  0.7331 -0.6703 -1.1116
  127OSM   C11S13601   4.308  -0.279   7.530  0.2828 -0.0177  0.0679
  127OSM   H11S13602   4.205  -0.318   7.513 -0.3699  0.7318  2.0118
  127OSM   H11T13603   4.303  -0.168   7.533  2.9286  0.2717  5.3747
  127OSM   C12S13604   4.352  -0.308   7.679 -0.5607  0.6842 -0.3787
  127OSM   H12S13605   4.454  -0.267   7.697 -0.1132 -1.2161  2.1312
  127OSM   H12T13606   4.361  -0.419   7.684  0.4687  0.6040 -2.6586
  127OSM   C13S13607   4.253  -0.252   7.778 -0.2054 -0.4557 -0.5061
  127OSM   H13S13608   4.149  -0.289   7.766  0.3820 -2.7828  0.9347
  127OSM   H13T13609   4.255  -0.141   7.775  0.5450 -0.4426  0.0932
  127OSM   C14S13610   4.288  -0.290   7.922  0.5855  0.8443 -0.2470
  127OSM   H14S13611   4.373  -0.239   7.972 -1.0209 -0.4147  4.1642
  127OSM   H14T13612   4.326  -0.394   7.933  0.0304  0.8015  1.5010
  127OSM   C15S13613   4.164  -0.272   8.013 -0.0396  0.2494 -0.0685
  127OSM   H15S13614   4.071  -0.314   7.969 -1.1430  0.7942  1.6441
  127OSM   H15T13615   4.152  -0.164   8.039  3.5984 -0.0182  3.6645
  127OSM   C16S13616   4.177  -0.338   8.145  0.2645 -0.0559 -0.6828
  127OSM   H16S13617   4.267  -0.327   8.208  0.0784 -1.1733 -0.1915
  127OSM   H16T13618   4.175  -0.449   8.135  0.5649 -0.3677  1.9499
  127OSM   C17S13619   4.060  -0.315   8.242  0.2859  0.0701 -0.4432
  127OSM   H17S13620   4.058  -0.395   8.319  2.4860  0.9104  0.5686
  127OSM   H17T13621   3.964  -0.322   8.186 -0.4682 -0.4975  0.8599
  127OSM   C18S13622   4.066  -0.187   8.312  0.1192 -0.0774  0.0965
  127OSM   H18S13623   3.985  -0.190   8.388  1.2786  2.9654  1.6073
  127OSM   H18T13624   4.058  -0.103   8.240 -1.7423 -0.8919 -0.7039
  127OSM   H18U13625   4.163  -0.174   8.365 -1.2147 -0.6624  2.8745
  127OSM    C1F13626   4.423   0.185   6.848  0.0510 -0.4323 -0.8072
  127OSM     OF13627   4.330   0.248   6.803  0.3365 -0.0599  0.0063
  127OSM    C2F13628   4.488   0.225   6.977  0.2431  0.3798  1.0262
  127OSM    H2F13629   4.581   0.270   6.937  0.8026 -1.0907  0.5777
  127OSM    H2G13630   4.509   0.144   7.050 -0.4575  0.3396  1.1969
  127OSM    C3F13631   4.413   0.331   7.056  0.1889  0.3287  0.0177
  127OSM    H3F13632   4.305   0.304   7.059 -0.4933  2.6406 -1.3223
  127OSM    H3G13633   4.420   0.422   6.992 -2.4354 -0.9553 -2.3134
  127OSM    C4F13634   4.470   0.344   7.199 -0.6495 -0.0149 -0.6084
  127OSM    H4F13635   4.441   0.444   7.238  0.7531  0.5991 -1.0593
  127OSM    H4G13636   4.581   0.348   7.192 -0.5170  0.9543  1.3212
  127OSM    C5F13637   4.419   0.227   7.285  0.4831  0.2948  0.3007
  127OSM    H5F13638   4.471   0.131   7.261 -1.3923 -0.8501  0.6033
  127OSM    H5G13639   4.310   0.219   7.265  0.6380 -0.9037 -0.1431
  127OSM    C6F13640   4.431   0.252   7.440 -0.5407  0.0031  1.1418
  127OSM    H6F13641   4.393   0.349   7.478  0.9315  0.7456  0.7973
  127OSM    H6G13642   4.540   0.261   7.459 -0.5432  1.4064  0.6139
  127OSM    C7F13643   4.377   0.136   7.529 -0.2229 -0.4541 -0.4019
  127OSM    H7F13644   4.410   0.041   7.481 -0.3898 -0.9629  0.4515
  127OSM    H7G13645   4.267   0.146   7.529  0.0185  3.8494 -0.1914
  127OSM    C8F13646   4.426   0.121   7.676 -0.0506  0.4199 -0.0581
  127OSM    H8F13647   4.352   0.052   7.721 -0.4227  2.2600  2.3564
  127OSM    H8G13648   4.411   0.217   7.730  0.2393  2.6533 -3.5707
  127OSM    C9F13649   4.568   0.065   7.701 -0.4168  0.1424  0.1213
  127OSM    H9F13650   4.608  -0.002   7.623  0.8073  2.5717 -1.4589
  127OSM   C10F13651   4.653   0.109   7.798 -0.6829  0.6442 -0.1448
  127OSM   H10F13652   4.753   0.064   7.791 -1.3303 -0.8768 -0.0775
  127OSM   C11F13653   4.636   0.220   7.902 -0.4566 -0.2630  0.2154
  127OSM   H11F13654   4.535   0.263   7.893 -0.7325 -0.9848 -0.2760
  127OSM   H11G13655   4.712   0.299   7.883 -0.7022 -0.3942 -1.3951
  127OSM   C12F13656   4.648   0.189   8.046  0.1835 -0.5324 -0.2292
  127OSM   H12F13657   4.631   0.284   8.101 -4.2368 -2.0362  1.4241
  127OSM   H12G13658   4.750   0.149   8.065 -0.5256 -2.5663 -0.4329
  127OSM   C13F13659   4.549   0.078   8.096  0.5934 -0.3595 -0.7387
  127OSM   H13F13660   4.462   0.069   8.028  0.4143  0.2340 -0.5928
  127OSM   H13G13661   4.517   0.099   8.201 -1.2216 -0.2764 -1.2670
  127OSM   C14F13662   4.615  -0.067   8.100 -0.1877  0.0020  0.2741
  127OSM   H14F13663   4.718  -0.057   8.139 -0.3068  1.9411  0.1564
  127OSM   H14G13664   4.623  -0.111   7.998 -2.8830  0.8624 -0.3995
  127OSM   C15F13665   4.545  -0.160   8.198  0.1070  0.2387  0.3524
  127OSM   H15F13666   4.437  -0.175   8.181  0.4662 -0.6675 -1.4277
  127OSM   H15G13667   4.546  -0.139   8.307 -1.2404 -1.8191  0.8198
  127OSM   C16F13668   4.610  -0.299   8.191  0.3144 -0.2965 -0.4910
  127OSM   H16F13669   4.601  -0.337   8.087 -1.0060 -2.2376  0.2782
  127OSM   H16G13670   4.555  -0.368   8.259  0.4265 -1.2449 -1.3495
  127OSM   C17F13671   4.763  -0.314   8.217 -0.5991 -0.3420 -0.0447
  127OSM   H17F13672   4.782  -0.275   8.319  1.7965 -1.9895  0.2148
  127OSM   H17G13673   4.822  -0.243   8.156  0.9424 -0.7854  0.8721
  127OSM   C18F13674   4.831  -0.440   8.195 -0.4685 -0.0812 -0.4742
  127OSM   H18F13675   4.941  -0.433   8.212 -0.6130  0.9814  0.1279
  127OSM   H18G13676   4.825  -0.472   8.089  1.1646  1.9284 -1.2359
  127OSM   H18H13677   4.788  -0.519   8.260 -3.5849  2.1151  0.3782
  128OSM      N13678   0.468   3.276   5.838  0.1906 -0.4896 -0.5366
  128OSM    C1513679   0.584   3.190   5.797  0.5596 -0.0943 -0.7787
  128OSM   H15A13680   0.581   3.164   5.693 -0.7568  0.2260 -0.8419
  128OSM   H15B13681   0.577   3.096   5.850 -2.1934 -0.2550 -1.2820
  128OSM   H15C13682   0.682   3.233   5.812  0.2519  0.0456  1.1368
  128OSM    C1413683   0.513   3.392   5.914  0.2332  0.1556  0.5668
  128OSM   H14A13684   0.592   3.454   5.874  2.0840 -1.5142  1.4954
  128OSM   H14B13685   0.547   3.358   6.011  0.0101 -2.0837 -0.0906
  128OSM   H14C13686   0.435   3.463   5.938  0.4784  0.5900  0.0967
  128OSM    C1313687   0.409   3.331   5.712  0.2718 -0.0706  0.1083
  128OSM   H13A13688   0.478   3.398   5.663 -2.1445  2.0358 -0.5952
  128OSM   H13B13689   0.322   3.388   5.740  0.7568  0.7641 -0.0588
  128OSM   H13C13690   0.384   3.249   5.645 -0.3935  0.1645  0.0630
  128OSM    C1213691   0.373   3.191   5.931  0.4274  0.2807 -0.2257
  128OSM   H12A13692   0.434   3.165   6.016 -0.2590 -0.9075 -0.0918
  128OSM   H12B13693   0.344   3.098   5.886 -0.2001 -1.2638  3.1230
  128OSM    C1113694   0.245   3.258   5.984  0.0640  0.1640 -0.5913
  128OSM   H11A13695   0.185   3.175   6.028  2.3915 -0.8304  0.8884
  128OSM   H11B13696   0.188   3.299   5.897  0.6910  3.4121  0.4176
  128OSM      P13697   0.185   3.488   6.071  0.2003  0.1806 -0.2728
  128OSM    O1313698   0.250   3.576   5.970 -0.3999 -0.3638  0.9755
  128OSM    O1413699   0.045   3.450   6.047 -0.0679 -0.2921 -0.2150
  128OSM    O1113700   0.196   3.558   6.211  0.1971 -0.3079  0.3199
  128OSM    O1213701   0.265   3.352   6.090 -0.3599 -0.2000 -0.0802
  128OSM    C1S13702   0.199   3.482   6.329 -0.1199  0.2069  0.5295
  128OSM    H1S13703   0.282   3.408   6.331 -0.3681 -0.0570  1.4865
  128OSM    H1T13704   0.107   3.423   6.349  0.1507 -0.2748  0.3624
  128OSM     NF13705   0.261   3.509   6.571 -0.8582  0.0326  0.2673
  128OSM    HNF13706   0.197   3.515   6.647 -1.1170 -1.4416  0.1896
  128OSM    C2S13707   0.230   3.576   6.442 -0.4251 -0.3112  0.3078
  128OSM    H2S13708   0.317   3.642   6.418 -1.0757  1.2308  1.9467
  128OSM    C3S13709   0.108   3.669   6.463  0.2257  0.2552  0.0231
  128OSM    H3S13710   0.027   3.598   6.489  0.1415  0.6998  1.0274
  128OSM     O313711   0.061   3.736   6.348  0.1445  0.5644  0.3502
  128OSM    HO313712   0.106   3.676   6.288 -1.0239 -2.0810  1.9482
  128OSM    C4S13713   0.122   3.769   6.569  0.2648  0.1509 -0.0486
  128OSM    H4S13714   0.205   3.839   6.556  1.4620 -0.7913  2.0842
  128OSM    C5S13715   0.053   3.768   6.684 -0.2174  0.1637  0.2993
  128OSM    H5S13716  -0.012   3.681   6.704 -1.0744  0.4705 -1.0103
  128OSM    C6S13717   0.069   3.864   6.807  0.1646 -0.3069 -0.3218
  128OSM    H6S13718   0.136   3.948   6.780 -0.2849 -0.2382 -1.2449
  128OSM    H6T13719   0.112   3.811   6.895  0.1612 -1.8936 -1.2465
  128OSM    C7S13720  -0.067   3.913   6.851  0.7452 -0.3853  0.1310
  128OSM    H7S13721  -0.154   3.846   6.832  1.2793 -0.8644 -0.6363
  128OSM    H7T13722  -0.077   4.000   6.783  1.8584  0.7426  1.3725
  128OSM    C8S13723  -0.066   3.988   6.986 -0.7068  0.6055 -0.3803
  128OSM    H8S13724   0.029   4.046   6.999 -0.2487 -0.3206  0.5259
  128OSM    H8T13725  -0.064   3.908   7.063  0.1395  0.5348 -0.4686
  128OSM    C9S13726  -0.190   4.071   7.013  1.1031  0.0248 -0.5434
  128OSM    H9S13727  -0.276   4.001   7.003 -0.4906  0.9757  3.9570
  128OSM    H9T13728  -0.219   4.154   6.944  0.2326 -0.1160 -0.3631
  128OSM   C10S13729  -0.196   4.136   7.151  0.8475 -0.6106 -0.3338
  128OSM   H10S13730  -0.135   4.228   7.143 -2.2613  1.4693 -1.8859
  128OSM   H10T13731  -0.148   4.071   7.228 -1.0445  0.0604  1.4987
  128OSM   C11S13732  -0.334   4.178   7.206 -0.2177  0.2895  0.2317
  128OSM   H11S13733  -0.384   4.082   7.233 -0.4931  0.3905  0.0873
  128OSM   H11T13734  -0.389   4.232   7.126 -0.2682  1.9469  1.3449
  128OSM   C12S13735  -0.331   4.255   7.333  0.5516  0.4280 -0.1681
  128OSM   H12S13736  -0.275   4.349   7.321  0.0195  0.6934 -0.6583
  128OSM   H12T13737  -0.278   4.201   7.414 -1.0525  0.6264  1.0738
  128OSM   C13S13738  -0.479   4.291   7.369 -0.1445  0.4185 -0.7796
  128OSM   H13S13739  -0.520   4.330   7.274  2.1468 -0.3262 -2.1765
  128OSM   H13T13740  -0.477   4.374   7.443 -3.2768 -0.9657  1.0831
  128OSM   C14S13741  -0.553   4.178   7.440 -0.8831 -1.0601  0.4949
  128OSM   H14S13742  -0.491   4.136   7.522 -0.9743 -0.5022  0.8557
  128OSM   H14T13743  -0.555   4.091   7.372 -0.3792 -1.5975  1.1545
  128OSM   C15S13744  -0.694   4.215   7.479 -0.6116  0.4817 -0.3726
  128OSM   H15S13745  -0.755   4.123   7.487 -1.1089  0.8152 -0.2288
  128OSM   H15T13746  -0.743   4.266   7.393 -1.7864 -0.7102 -0.4468
  128OSM   C16S13747  -0.703   4.288   7.617  0.1157  0.2545 -0.0072
  128OSM   H16S13748  -0.636   4.376   7.625  3.8925 -2.3866  0.0561
  128OSM   H16T13749  -0.659   4.218   7.691 -0.3620 -0.2242 -0.1716
  128OSM   C17S13750  -0.846   4.321   7.659 -0.5238  0.6761  0.0040
  128OSM   H17S13751  -0.834   4.366   7.760  0.5779 -0.0081  0.1947
  128OSM   H17T13752  -0.905   4.229   7.673  0.2796  0.2999  1.0414
  128OSM   C18S13753  -0.934   4.415   7.573  0.0274  0.4750  0.1453
  128OSM   H18S13754  -0.870   4.500   7.541  0.5212  0.5371  1.2497
  128OSM   H18T13755  -1.028   4.449   7.623 -0.7146  1.7339 -1.9768
  128OSM   H18U13756  -0.948   4.369   7.473  1.4450  0.3316 -0.0103
  128OSM    C1F13757   0.377   3.446   6.591  0.0365 -1.0250  0.8430
  128OSM     OF13758   0.470   3.475   6.513 -0.0749  0.2522 -0.4836
  128OSM    C2F13759   0.394   3.378   6.720 -0.3174 -0.5962 -0.5478
  128OSM    H2F13760   0.425   3.273   6.698 -0.3852 -0.9016  0.7506
  128OSM    H2G13761   0.298   3.363   6.773  0.6057 -0.2081  1.3064
  128OSM    C3F13762   0.500   3.436   6.813  0.2048  0.0321  0.2982
  128OSM    H3F13763   0.468   3.539   6.838  2.6504  1.0748 -0.5552
  128OSM    H3G13764   0.597   3.443   6.759  0.7553  0.5120  1.3066
  128OSM    C4F13765   0.504   3.354   6.941 -0.5682 -0.4371  0.7907
  128OSM    H4F13766   0.519   3.248   6.914  1.4637  0.3501 -1.4660
  128OSM    H4G13767   0.406   3.365   6.993 -0.5531  2.5731  0.3902
  128OSM    C5F13768   0.619   3.403   7.033  0.2987  0.0864 -0.0410
  128OSM    H5F13769   0.615   3.514   7.030  1.2911  0.1682  1.0819
  128OSM    H5G13770   0.715   3.371   6.988  0.2569 -0.4420  0.2384
  128OSM    C6F13771   0.604   3.356   7.177  0.5048  0.5631 -0.0047
  128OSM    H6F13772   0.588   3.247   7.170  2.9112  0.1708 -0.0825
  128OSM    H6G13773   0.515   3.406   7.221 -0.1364  0.5483 -1.2415
  128OSM    C7F13774   0.732   3.362   7.264 -0.4651 -0.0999 -0.0522
  128OSM    H7F13775   0.767   3.465   7.288  3.9553 -1.6034  0.7663
  128OSM    H7G13776   0.811   3.313   7.204 -0.0673  0.0361  0.3486
  128OSM    C8F13777   0.720   3.282   7.391  0.2022 -0.1209  0.0777
  128OSM    H8F13778   0.813   3.284   7.451  1.0651 -1.1544 -1.1727
  128OSM    H8G13779   0.703   3.179   7.353  0.3035  0.3705 -1.3426
  128OSM    C9F13780   0.594   3.309   7.467  0.8247 -0.4560  0.2300
  128OSM    H9F13781   0.508   3.332   7.403  3.3654  0.5865 -3.1268
  128OSM   C10F13782   0.584   3.313   7.597 -0.4020  0.4772  0.1454
  128OSM   H10F13783   0.484   3.348   7.628  0.1857 -0.3465  3.3248
  128OSM   C11F13784   0.680   3.295   7.712 -1.2542  0.3710  0.2891
  128OSM   H11F13785   0.718   3.395   7.743 -0.1311  0.3368 -0.8886
  128OSM   H11G13786   0.766   3.228   7.689 -0.8287  0.4419  1.5735
  128OSM   C12F13787   0.596   3.238   7.832  0.0467 -0.1428 -0.5980
  128OSM   H12F13788   0.671   3.229   7.914 -0.9680  3.2977  0.9005
  128OSM   H12G13789   0.555   3.135   7.822  0.6124 -0.3683 -0.6725
  128OSM   C13F13790   0.489   3.330   7.890  0.5013 -0.1109  0.3041
  128OSM   H13F13791   0.396   3.271   7.880  0.3139  0.0167  1.2372
  128OSM   H13G13792   0.472   3.423   7.833 -0.2031 -0.0726  0.5649
  128OSM   C14F13793   0.503   3.367   8.042 -0.2358  0.1459 -1.1053
  128OSM   H14F13794   0.601   3.417   8.053  0.4206 -0.9592 -1.7098
  128OSM   H14G13795   0.496   3.278   8.109  0.2052 -0.1377 -1.4373
  128OSM   C15F13796   0.392   3.458   8.093  0.3176  0.6883  0.0829
  128OSM   H15F13797   0.301   3.400   8.063  0.6883  0.0596  0.1545
  128OSM   H15G13798   0.399   3.556   8.041  3.6534  0.2465 -0.5041
  128OSM   C16F13799   0.404   3.476   8.248  0.0283 -0.4651 -0.0623
  128OSM   H16F13800   0.505   3.520   8.262 -0.2135  0.4504 -1.0575
  128OSM   H16G13801   0.406   3.374   8.291  0.9557 -0.6615 -0.5487
  128OSM   C17F13802   0.300   3.564   8.316  0.2864  0.3132 -0.4040
  128OSM   H17F13803   0.329   3.566   8.423  1.6982 -1.9258 -0.6839
  128OSM   H17G13804   0.204   3.514   8.290  0.5032  0.7232 -2.1829
  128OSM   C18F13805   0.286   3.710   8.273 -0.5328 -0.9635 -0.4436
  128OSM   H18F13806   0.264   3.779   8.358  3.2243  2.4841 -1.9746
  128OSM   H18G13807   0.202   3.723   8.202  0.0202  1.8580 -0.6853
  128OSM   H18H13808   0.383   3.749   8.235  1.0882 -1.7392  2.5875
  129OSM      N13809   3.912   0.169   5.894 -0.4066 -0.1183 -0.3116
  129OSM    C1513810   3.859   0.304   5.935 -0.4234  0.3877  0.7019
  129OSM   H15A13811   3.928   0.380   5.903  0.6606 -0.0216  1.9508
  129OSM   H15B13812   3.839   0.315   6.041  0.3033  0.8687  0.7988
  129OSM   H15C13813   3.768   0.334   5.886  0.2574  0.2963 -0.6672
  129OSM    C1413814   3.897   0.167   5.745 -0.9868  0.2157  0.8788
  129OSM   H14A13815   3.952   0.080   5.713 -0.7323  0.1218  1.5488
  129OSM   H14B13816   3.940   0.258   5.704 -1.5502  0.2066  0.2372
  129OSM   H14C13817   3.798   0.155   5.705 -1.4950  0.6924  1.9476
  129OSM    C1313818   4.052   0.159   5.936  0.2998  0.0183  0.3755
  129OSM   H13A13819   4.086   0.059   5.912  1.5622  0.9697 -2.1926
  129OSM   H13B13820   4.056   0.175   6.043  1.0591  1.1874  0.1917
  129OSM   H13C13821   4.116   0.225   5.880  1.5805 -1.5302 -0.0650
  129OSM    C1213822   3.838   0.055   5.958 -0.4541  0.4930 -0.0931
  129OSM   H12A13823   3.858  -0.035   5.903 -2.0111  0.4545 -0.6217
  129OSM   H12B13824   3.732   0.073   5.956 -0.5103  0.2528  0.5548
  129OSM    C1113825   3.877   0.022   6.099 -0.2187  0.0601  0.5954
  129OSM   H11A13826   3.984  -0.007   6.107 -0.3372 -0.5065  0.1740
  129OSM   H11B13827   3.820  -0.067   6.134 -2.6280  0.7242 -1.3223
  129OSM      P13828   3.700   0.156   6.231  0.1181  0.2228  0.3485
  129OSM    O1313829   3.661   0.297   6.215  0.2575  0.0154 -0.5515
  129OSM    O1413830   3.609   0.057   6.158  0.0706  0.1168  1.1831
  129OSM    O1113831   3.691   0.118   6.384  0.2949 -0.3801  0.2033
  129OSM    O1213832   3.847   0.132   6.181 -0.0276  0.2775  0.2476
  129OSM    C1S13833   3.749   0.213   6.478 -0.0271 -0.4736  0.3083
  129OSM    H1S13834   3.665   0.282   6.502  0.7316  1.4338 -2.0719
  129OSM    H1T13835   3.831   0.274   6.433 -0.5792 -1.5010 -2.2425
  129OSM     NF13836   3.819   0.237   6.712  0.7528  0.3459 -0.6816
  129OSM    HNF13837   3.911   0.263   6.739  0.3378 -0.1363  1.4053
  129OSM    C2S13838   3.807   0.137   6.600 -0.3972 -1.1253 -0.5144
  129OSM    H2S13839   3.729   0.065   6.631 -1.8884  1.1653  1.4394
  129OSM    C3S13840   3.937   0.061   6.567 -0.1389  0.0183 -0.3926
  129OSM    H3S13841   4.016   0.133   6.541  2.2095 -1.5068  1.9642
  129OSM     O313842   3.923  -0.038   6.461  0.4853 -0.3083 -0.5094
  129OSM    HO313843   3.869   0.016   6.402  2.0139 -0.4112 -2.1039
  129OSM    C4S13844   3.980  -0.012   6.689 -0.8064 -0.4108  0.5314
  129OSM    H4S13845   3.944  -0.115   6.701 -2.9351  0.2666  0.3569
  129OSM    C5S13846   4.072   0.041   6.770  0.2834 -0.3183  0.4912
  129OSM    H5S13847   4.121   0.137   6.747  2.0040 -0.6042  2.6552
  129OSM    C6S13848   4.122  -0.026   6.891 -0.3729 -0.0544  0.6307
  129OSM    H6S13849   4.231  -0.013   6.907  0.2178  0.5667 -3.0540
  129OSM    H6T13850   4.094  -0.133   6.901 -1.2631  0.3407  2.8908
  129OSM    C7S13851   4.053   0.048   7.013  0.3784  0.4124 -0.7526
  129OSM    H7S13852   3.944   0.058   6.997  0.3336  0.0453 -0.6755
  129OSM    H7T13853   4.089   0.153   7.011 -1.7295  1.3575  2.7779
  129OSM    C8S13854   4.059  -0.025   7.147 -0.4508  0.3198  0.2405
  129OSM    H8S13855   4.159  -0.068   7.170  1.2132  2.8903 -1.6094
  129OSM    H8T13856   3.984  -0.106   7.154  0.0718 -0.1820  0.1666
  129OSM    C9S13857   4.007   0.061   7.266  0.1668 -0.5653 -0.3456
  129OSM    H9S13858   3.910   0.104   7.231  0.4523 -0.2509 -0.7601
  129OSM    H9T13859   4.081   0.144   7.269 -0.1325 -0.3232  0.7775
  129OSM   C10S13860   3.997  -0.013   7.400  0.5991  1.2052  0.1661
  129OSM   H10S13861   4.101  -0.042   7.426  0.6168  1.1469  0.0332
  129OSM   H10T13862   3.938  -0.107   7.401  1.1163  0.8793  0.5006
  129OSM   C11S13863   3.962   0.077   7.521  1.2640  0.0139 -0.3428
  129OSM   H11S13864   3.869   0.129   7.488  2.8391  1.0549 -3.5658
  129OSM   H11T13865   4.030   0.164   7.537 -0.9908  1.5959  1.3060
  129OSM   C12S13866   3.955  -0.009   7.643 -0.2960  0.1507  0.0793
  129OSM   H12S13867   4.059  -0.031   7.677 -0.0900  0.5476 -0.2854
  129OSM   H12T13868   3.903  -0.101   7.608 -1.1182  0.6091  0.0918
  129OSM   C13S13869   3.871   0.053   7.752  0.9846 -0.1517  0.1923
  129OSM   H13S13870   3.767   0.070   7.716  1.0739  1.2355  0.5397
  129OSM   H13T13871   3.921   0.151   7.760 -0.3293  0.9556 -3.3077
  129OSM   C14S13872   3.869  -0.032   7.877 -0.3326  0.1017  0.0334
  129OSM   H14S13873   3.972  -0.050   7.912 -0.4311 -2.1432 -0.6823
  129OSM   H14T13874   3.827  -0.135   7.871  1.3461 -0.5691 -0.6565
  129OSM   C15S13875   3.782   0.022   7.986  0.2977  0.0581 -0.3842
  129OSM   H15S13876   3.677   0.015   7.949 -0.2015  2.6344  0.3155
  129OSM   H15T13877   3.808   0.128   8.004 -0.4228  0.1941 -0.0985
  129OSM   C16S13878   3.790  -0.041   8.124 -0.6714  0.2836 -0.2955
  129OSM   H16S13879   3.898  -0.056   8.144 -0.1549  0.6696 -2.5335
  129OSM   H16T13880   3.749  -0.145   8.121  0.0964 -0.0753  0.8485
  129OSM   C17S13881   3.714   0.019   8.247 -0.1283  0.0923 -0.5136
  129OSM   H17S13882   3.604   0.030   8.231 -0.6156  0.9191  2.7229
  129OSM   H17T13883   3.755   0.120   8.268 -1.0683  0.3779  0.0402
  129OSM   C18S13884   3.707  -0.072   8.365 -0.5784  0.3745 -0.5206
  129OSM   H18S13885   3.668  -0.172   8.338  2.4053 -0.9038 -0.5074
  129OSM   H18T13886   3.646  -0.023   8.444  0.0895  1.9611 -0.9469
  129OSM   H18U13887   3.809  -0.089   8.407  0.3738  1.9401 -2.0274
  129OSM    C1F13888   3.712   0.289   6.770  0.1738  0.2980  0.1789
  129OSM     OF13889   3.600   0.249   6.735 -0.2316 -0.7495  0.6301
  129OSM    C2F13890   3.740   0.387   6.881  0.1140  0.6748 -0.5601
  129OSM    H2F13891   3.789   0.478   6.840  2.3938  0.1525  0.8428
  129OSM    H2G13892   3.816   0.339   6.946 -0.4236  1.2961  0.5491
  129OSM    C3F13893   3.616   0.426   6.961 -0.3986  0.2627  0.2246
  129OSM    H3F13894   3.563   0.337   6.999  0.0217  0.1346  0.5145
  129OSM    H3G13895   3.551   0.484   6.892 -0.4678 -0.1552 -0.0607
  129OSM    C4F13896   3.656   0.510   7.086  0.6937 -0.2205 -0.2416
  129OSM    H4F13897   3.572   0.582   7.098  1.0531  0.4275 -1.3678
  129OSM    H4G13898   3.746   0.570   7.057  0.3199  1.2276  1.4467
  129OSM    C5F13899   3.676   0.417   7.205 -0.2481  0.1598  0.6670
  129OSM    H5F13900   3.758   0.344   7.186 -0.7343  0.0768 -1.2290
  129OSM    H5G13901   3.585   0.354   7.216  0.1012 -0.3052  0.9399
  129OSM    C6F13902   3.680   0.486   7.341 -0.2993 -0.2006  0.5662
  129OSM    H6F13903   3.601   0.563   7.329 -0.4121 -0.5523 -1.3141
  129OSM    H6G13904   3.781   0.531   7.356 -1.2612  1.8572  1.2812
  129OSM    C7F13905   3.663   0.387   7.452 -0.4563 -0.2270  0.1278
  129OSM    H7F13906   3.746   0.313   7.442 -1.5708 -1.2508 -2.7183
  129OSM    H7G13907   3.574   0.323   7.429 -0.9621 -0.2330  1.9107
  129OSM    C8F13908   3.663   0.443   7.596 -0.1987 -0.3058  0.0498
  129OSM    H8F13909   3.742   0.520   7.607 -0.2314  0.2896 -3.0076
  129OSM    H8G13910   3.687   0.366   7.672 -0.6954 -0.2239  0.2950
  129OSM    C9F13911   3.528   0.503   7.625 -0.2695  0.1197 -0.1815
  129OSM    H9F13912   3.474   0.536   7.536 -1.1897  0.3467  0.4401
  129OSM   C10F13913   3.479   0.539   7.750 -0.2046 -0.2023  0.1538
  129OSM   H10F13914   3.384   0.594   7.754  0.4696  0.9139  2.9819
  129OSM   C11F13915   3.558   0.525   7.875  0.3472  0.6888  0.1163
  129OSM   H11F13916   3.532   0.610   7.941 -1.9173 -0.1337  0.3700
  129OSM   H11G13917   3.668   0.513   7.868 -0.0422 -3.6238 -2.1308
  129OSM   C12F13918   3.525   0.394   7.956  0.0947  0.1486  0.2332
  129OSM   H12F13919   3.549   0.300   7.902 -0.5765  0.1596 -0.1005
  129OSM   H12G13920   3.415   0.392   7.975  0.1955 -1.9390  0.9100
  129OSM   C13F13921   3.591   0.382   8.094  0.4013  0.1107  0.8194
  129OSM   H13F13922   3.696   0.355   8.069 -0.1851 -0.7917 -0.8156
  129OSM   H13G13923   3.548   0.296   8.150 -2.1764  0.8254  0.0451
  129OSM   C14F13924   3.572   0.499   8.193  0.4048  0.4338 -0.8980
  129OSM   H14F13925   3.463   0.519   8.195  0.0201 -1.5598 -0.4357
  129OSM   H14G13926   3.622   0.590   8.154  3.4928 -1.4312 -1.6438
  129OSM   C15F13927   3.623   0.474   8.335  0.2544 -0.2375  0.0729
  129OSM   H15F13928   3.622   0.566   8.398 -0.6197 -0.5990  0.5985
  129OSM   H15G13929   3.731   0.454   8.350 -0.0049  0.1381  3.0294
  129OSM   C16F13930   3.543   0.376   8.418  0.7607 -0.0708 -0.0601
  129OSM   H16F13931   3.560   0.276   8.372 -0.1473 -0.6659  0.8417
  129OSM   H16G13932   3.435   0.400   8.418  0.5712 -0.6354 -2.4101
  129OSM   C17F13933   3.595   0.360   8.562 -0.2506 -0.3425  0.2687
  129OSM   H17F13934   3.705   0.346   8.553 -0.1083  0.2967  0.8308
  129OSM   H17G13935   3.550   0.268   8.603  1.2698 -1.1367  0.2253
  129OSM   C18F13936   3.571   0.470   8.662  0.2645 -0.5842  0.1454
  129OSM   H18F13937   3.600   0.414   8.753 -1.4279 -0.9470  0.4836
  129OSM   H18G13938   3.464   0.499   8.668  0.6493  1.4236 -1.3236
  129OSM   H18H13939   3.626   0.566   8.652 -0.2842 -0.2237  0.5253
  130OSM      N13940   1.347   1.867   6.117  0.0206  0.6899  0.6064
  130OSM    C1513941   1.406   1.779   6.011 -0.4577  0.4268 -0.3503
  130OSM   H15A13942   1.454   1.830   5.929  0.4853 -0.0645 -0.1175
  130OSM   H15B13943   1.336   1.708   5.968 -0.0815 -0.9684  1.2472
  130OSM   H15C13944   1.496   1.724   6.036 -0.2047  0.4035 -1.2770
  130OSM    C1413945   1.232   1.932   6.057  0.5175  0.3197 -0.5854
  130OSM   H14A13946   1.254   2.029   6.016  1.2119  0.4886  0.1764
  130OSM   H14B13947   1.154   1.955   6.128 -1.2552 -0.8278 -2.0362
  130OSM   H14C13948   1.186   1.869   5.981 -0.8318 -0.6609  0.9652
  130OSM    C1313949   1.305   1.771   6.221  0.8093 -0.4790  0.4477
  130OSM   H13A13950   1.381   1.702   6.255  2.5547  1.4113  0.5255
  130OSM   H13B13951   1.216   1.713   6.198  0.4263 -0.6182  2.1192
  130OSM   H13C13952   1.271   1.817   6.313  1.5487 -0.8889  0.9375
  130OSM    C1213953   1.467   1.960   6.152  0.1722  0.6734 -0.8034
  130OSM   H12A13954   1.485   2.023   6.066  0.0822 -0.5552 -1.7565
  130OSM   H12B13955   1.548   1.891   6.170 -1.9928 -1.7515  0.2363
  130OSM    C1113956   1.439   2.040   6.287 -0.0203  0.7070 -0.0694
  130OSM   H11A13957   1.524   2.073   6.350 -0.0094  1.4417 -0.4622
  130OSM   H11B13958   1.393   1.960   6.350  0.6762  0.4991  0.1807
  130OSM      P13959   1.368   2.257   6.161  0.1425 -0.2943 -0.6436
  130OSM    O1313960   1.446   2.211   6.044 -0.4228  0.2818  0.1570
  130OSM    O1413961   1.241   2.323   6.138  0.5071  1.1469  0.2250
  130OSM    O1113962   1.457   2.368   6.238 -0.2157  0.4723  0.4364
  130OSM    O1213963   1.339   2.139   6.267 -0.3711 -0.0734  0.6490
  130OSM    C1S13964   1.407   2.425   6.359 -0.3646  0.4315  0.0583
  130OSM    H1S13965   1.298   2.409   6.373 -1.2093  4.0198 -1.2964
  130OSM    H1T13966   1.418   2.536   6.362  0.7893  0.3502 -0.5516
  130OSM     NF13967   1.415   2.421   6.606  0.3524  0.3526  1.1008
  130OSM    HNF13968   1.439   2.498   6.665 -2.0057  2.7378 -0.7960
  130OSM    C2S13969   1.479   2.367   6.490  0.3177  0.1024  0.0267
  130OSM    H2S13970   1.475   2.256   6.491 -0.3513  0.1053  1.8982
  130OSM    C3S13971   1.623   2.419   6.474 -0.6939 -0.0401 -0.5595
  130OSM    H3S13972   1.627   2.528   6.494 -1.4322 -0.5183  2.7746
  130OSM     O313973   1.693   2.383   6.354 -0.4809 -0.3328  0.1752
  130OSM    HO313974   1.614   2.368   6.302 -1.5929  1.1314  1.3756
  130OSM    C4S13975   1.699   2.362   6.592 -0.0704 -0.6974 -0.1898
  130OSM    H4S13976   1.704   2.422   6.685  2.1928 -3.1598  1.4398
  130OSM    C5S13977   1.775   2.245   6.595  0.1562 -0.6395 -0.5264
  130OSM    H5S13978   1.780   2.186   6.502  0.2372  0.1296 -1.0250
  130OSM    C6S13979   1.874   2.200   6.709 -0.9533 -0.0072  0.1501
  130OSM    H6S13980   1.973   2.243   6.684 -2.8988  3.3523 -2.7974
  130OSM    H6T13981   1.889   2.090   6.714 -0.1069  0.1140  0.3972
  130OSM    C7S13982   1.849   2.249   6.851  0.2999  0.7433 -0.4843
  130OSM    H7S13983   1.879   2.165   6.918 -2.3921 -0.1300 -0.2628
  130OSM    H7T13984   1.740   2.255   6.872  0.1309  2.4030 -1.6552
  130OSM    C8S13985   1.911   2.385   6.881  0.0217 -0.6146 -0.0812
  130OSM    H8S13986   1.899   2.451   6.793 -1.3392  2.2189  2.0498
  130OSM    H8T13987   2.019   2.362   6.893 -0.5160 -2.8322  1.3092
  130OSM    C9S13988   1.865   2.460   7.006  0.0033 -0.4358  0.1196
  130OSM    H9S13989   1.762   2.499   6.991 -0.6458 -1.6637  1.2054
  130OSM    H9T13990   1.933   2.548   7.012 -0.9175  0.4340 -1.5210
  130OSM   C10S13991   1.866   2.385   7.137  0.0630  0.3424 -0.0700
  130OSM   H10S13992   1.970   2.392   7.176  1.5395  3.3793 -3.9394
  130OSM   H10T13993   1.841   2.279   7.111  0.7510  0.6158 -2.0082
  130OSM   C11S13994   1.773   2.444   7.243  0.0646 -0.1371 -0.3358
  130OSM   H11S13995   1.667   2.440   7.209 -0.3799 -1.1280  1.0768
  130OSM   H11T13996   1.800   2.551   7.256 -2.7281  0.4949  1.0088
  130OSM   C12S13997   1.790   2.383   7.385  0.6738  0.1094  0.5261
  130OSM   H12S13998   1.894   2.407   7.417  1.0098 -1.2338  0.5097
  130OSM   H12T13999   1.782   2.272   7.386 -1.7826  0.1439 -1.9161
  130OSM   C13S14000   1.693   2.428   7.489  0.1780 -0.0529  0.0965
  130OSM   H13S14001   1.595   2.380   7.466  0.3455 -0.8853  1.0556
  130OSM   H13T14002   1.687   2.538   7.479 -1.4287 -0.1088  0.1773
  130OSM   C14S14003   1.742   2.389   7.633 -0.1008 -0.0950 -0.6580
  130OSM   H14S14004   1.839   2.440   7.653  0.0665 -1.1246  1.3498
  130OSM   H14T14005   1.766   2.281   7.633 -0.3750 -0.1545 -0.0354
  130OSM   C15S14006   1.643   2.433   7.738  0.1721 -0.2080 -0.4462
  130OSM   H15S14007   1.536   2.416   7.712 -0.0123  0.4810 -0.1513
  130OSM   H15T14008   1.654   2.541   7.762 -0.8426 -0.1412 -0.2336
  130OSM   C16S14009   1.665   2.348   7.865  0.2402 -0.0651  0.4320
  130OSM   H16S14010   1.765   2.379   7.903  0.4467 -1.5960  1.2200
  130OSM   H16T14011   1.657   2.240   7.837  0.3567  0.3005 -1.1040
  130OSM   C17S14012   1.567   2.381   7.973  0.5026  0.4368 -0.1977
  130OSM   H17S14013   1.472   2.332   7.941  1.6351 -0.2268 -2.8648
  130OSM   H17T14014   1.559   2.491   7.960  0.3034  0.1233 -3.8978
  130OSM   C18S14015   1.600   2.331   8.111 -1.1135  0.1818 -0.6975
  130OSM   H18S14016   1.583   2.222   8.120 -2.2989  0.3508 -0.7282
  130OSM   H18T14017   1.526   2.372   8.182 -1.5302 -0.0324 -1.0032
  130OSM   H18U14018   1.701   2.359   8.147 -0.7048 -2.0538  0.0444
  130OSM    C1F14019   1.299   2.365   6.648 -0.1085  0.0327 -0.8337
  130OSM     OF14020   1.229   2.295   6.578  0.0863  0.0003  0.4828
  130OSM    C2F14021   1.265   2.391   6.801 -0.3542  0.3039 -0.0127
  130OSM    H2F14022   1.303   2.493   6.820  0.0359  0.0205  0.7680
  130OSM    H2G14023   1.327   2.323   6.865  0.6710  0.9328 -0.3170
  130OSM    C3F14024   1.108   2.367   6.839  0.0409 -0.3276 -0.0164
  130OSM    H3F14025   1.076   2.262   6.821  2.1114 -0.7285 -1.8155
  130OSM    H3G14026   1.051   2.430   6.768  0.4904  0.4189  0.2706
  130OSM    C4F14027   1.062   2.419   6.978 -0.5817 -0.1461 -0.1464
  130OSM    H4F14028   0.952   2.432   6.985 -0.6987 -0.2597 -1.4531
  130OSM    H4G14029   1.111   2.518   6.992  0.9724 -0.8083 -0.6865
  130OSM    C5F14030   1.105   2.328   7.090  1.0948 -0.5772  0.1957
  130OSM    H5F14031   1.213   2.318   7.065  1.3979 -0.5521  1.4381
  130OSM    H5G14032   1.073   2.221   7.089  0.1230 -0.3048 -1.3920
  130OSM    C6F14033   1.104   2.400   7.237  0.3958  0.3190  0.6083
  130OSM    H6F14034   1.005   2.447   7.256 -0.4272 -0.7132 -0.8704
  130OSM    H6G14035   1.191   2.466   7.258  0.4972  0.4888 -0.3067
  130OSM    C7F14036   1.132   2.283   7.343  0.3296 -0.2258  0.5174
  130OSM    H7F14037   1.206   2.218   7.292 -0.2123 -2.3905  2.3403
  130OSM    H7G14038   1.043   2.224   7.372  1.2047 -0.9783  1.7291
  130OSM    C8F14039   1.185   2.335   7.474 -0.0708 -0.6714  0.2868
  130OSM    H8F14040   1.275   2.397   7.457 -0.1644 -0.9723 -1.4655
  130OSM    H8G14041   1.230   2.254   7.537 -1.3607 -1.5871  0.0664
  130OSM    C9F14042   1.090   2.420   7.550 -0.0093 -0.2262 -0.8190
  130OSM    H9F14043   1.006   2.460   7.491  0.1715  0.1329 -0.8355
  130OSM   C10F14044   1.103   2.443   7.684  0.4071 -0.4286  0.1799
  130OSM   H10F14045   1.028   2.512   7.728 -0.4621 -1.0661 -0.2635
  130OSM   C11F14046   1.209   2.399   7.782 -0.2644  0.1635  0.1787
  130OSM   H11F14047   1.305   2.384   7.729  0.2048 -0.5623  1.2061
  130OSM   H11G14048   1.192   2.294   7.816 -1.1641 -1.2209 -3.9543
  130OSM   C12F14049   1.222   2.487   7.903 -0.3840 -0.0726  0.2580
  130OSM   H12F14050   1.212   2.596   7.882 -0.1290 -0.3235 -1.2280
  130OSM   H12G14051   1.320   2.470   7.953 -0.2930 -0.9119 -0.1934
  130OSM   C13F14052   1.122   2.439   8.009  0.3347  0.2259 -0.0542
  130OSM   H13F14053   1.153   2.335   8.032  1.8450  1.0098  1.8075
  130OSM   H13G14054   1.014   2.432   7.983  0.0316 -0.4919  1.3074
  130OSM   C14F14055   1.122   2.517   8.138  0.5463 -0.4073 -0.1519
  130OSM   H14F14056   1.095   2.619   8.102  1.0810 -0.8314 -1.8265
  130OSM   H14G14057   1.222   2.519   8.187  1.0989  1.4760 -1.2623
  130OSM   C15F14058   1.022   2.472   8.249  0.2346 -0.1133 -0.2619
  130OSM   H15F14059   1.055   2.367   8.264 -0.8016 -0.7258 -2.0824
  130OSM   H15G14060   0.918   2.475   8.210 -0.0329  1.6913  0.4662
  130OSM   C16F14061   1.022   2.553   8.375  0.1599 -0.1155 -0.2184
  130OSM   H16F14062   0.971   2.647   8.346  3.7501  2.2670  0.4460
  130OSM   H16G14063   1.122   2.588   8.408  0.3965  0.5728 -1.6009
  130OSM   C17F14064   0.948   2.482   8.485 -0.7602  0.0209  0.7408
  130OSM   H17F14065   1.005   2.386   8.494  3.2658  2.0063 -1.0127
  130OSM   H17G14066   0.847   2.449   8.455 -0.2052 -0.7665 -0.3543
  130OSM   C18F14067   0.960   2.553   8.626  0.4029 -0.4923  0.8675
  130OSM   H18F14068   0.892   2.640   8.632  2.8554  1.4413  2.0038
  130OSM   H18G14069   1.060   2.601   8.634  0.6036 -0.9932  1.5094
  130OSM   H18H14070   0.949   2.480   8.709 -1.6395 -1.1014  0.1205
  131OSM      N14071   0.616   4.201   6.031  0.4544  0.3626  0.1643
  131OSM    C1514072   0.679   4.327   6.067 -0.0054 -0.1727 -0.1870
  131OSM   H15A14073   0.727   4.378   5.984 -1.7235  1.4815 -0.2497
  131OSM   H15B14074   0.754   4.322   6.145  0.0481 -0.2224 -0.2411
  131OSM   H15C14075   0.610   4.403   6.102  0.7315 -0.4782  2.1077
  131OSM    C1414076   0.713   4.124   5.955 -0.5625 -0.2947  0.0246
  131OSM   H14A14077   0.798   4.102   6.018  0.6805  1.3384 -0.9917
  131OSM   H14B14078   0.749   4.186   5.875 -1.2170  2.1609  1.5486
  131OSM   H14C14079   0.675   4.034   5.909  0.2061 -0.4385 -0.3469
  131OSM    C1314080   0.576   4.126   6.155  1.0593 -0.1863  0.3648
  131OSM   H13A14081   0.493   4.182   6.196  0.0896  0.3074 -2.0823
  131OSM   H13B14082   0.665   4.112   6.215  1.1779  0.1726  0.2755
  131OSM   H13C14083   0.539   4.027   6.133 -0.7660  0.8798 -1.8088
  131OSM    C1214084   0.493   4.218   5.947  0.0160 -0.0379  0.1766
  131OSM   H12A14085   0.447   4.122   5.926  2.2758 -0.6063 -2.9096
  131OSM   H12B14086   0.525   4.253   5.850  0.7632 -3.0062 -0.7326
  131OSM    C1114087   0.375   4.306   6.005  0.1786 -0.3837  0.1418
  131OSM   H11A14088   0.313   4.265   6.087 -2.6964 -0.6654 -2.0406
  131OSM   H11B14089   0.305   4.310   5.920  0.3620 -1.9147 -0.0964
  131OSM      P14090   0.343   4.542   6.108 -0.1092 -0.3512 -0.2307
  131OSM    O1314091   0.374   4.677   6.049  0.3451 -0.1804 -0.0425
  131OSM    O1414092   0.197   4.506   6.104  0.2786 -0.1826  0.3055
  131OSM    O1114093   0.406   4.522   6.254  0.3282 -0.4077  0.3150
  131OSM    O1214094   0.422   4.437   6.019 -0.5440  0.5100 -0.6486
  131OSM    C1S14095   0.444   4.635   6.338 -0.1510 -0.6594  0.2334
  131OSM    H1S14096   0.355   4.700   6.356 -1.5855 -2.6209  0.6477
  131OSM    H1T14097   0.526   4.688   6.285 -0.5350 -0.3407 -0.0555
  131OSM     NF14098   0.548   4.709   6.554 -0.1376  0.6808 -0.9339
  131OSM    HNF14099   0.647   4.720   6.555 -0.2648  1.9449 -1.2386
  131OSM    C2S14100   0.496   4.597   6.480  0.3055  0.1334  0.4322
  131OSM    H2S14101   0.404   4.559   6.529 -0.5541 -0.5732 -1.6196
  131OSM    C3S14102   0.604   4.478   6.473 -0.3326  0.6004 -0.2480
  131OSM    H3S14103   0.695   4.528   6.433  0.6683 -0.6190  0.4553
  131OSM     O314104   0.573   4.361   6.392  0.3245  0.1717 -0.1565
  131OSM    HO314105   0.491   4.395   6.357  0.8171  1.8303  0.2251
  131OSM    C4S14106   0.636   4.440   6.619  0.4171 -0.0625 -0.4028
  131OSM    H4S14107   0.552   4.454   6.688 -0.9773  0.9591 -2.2054
  131OSM    C5S14108   0.750   4.403   6.663 -0.0452 -0.6926  0.0189
  131OSM    H5S14109   0.837   4.407   6.596  0.0414  2.2041  0.1536
  131OSM    C6S14110   0.788   4.372   6.805 -0.2264  0.4169  0.2121
  131OSM    H6S14111   0.878   4.433   6.825 -0.0537 -0.4192  2.1494
  131OSM    H6T14112   0.817   4.267   6.828  0.5159  0.7753  0.9685
  131OSM    C7S14113   0.689   4.400   6.919  0.0997  0.0868 -0.3393
  131OSM    H7S14114   0.616   4.316   6.911  1.7016 -1.2126 -2.8164
  131OSM    H7T14115   0.646   4.502   6.922 -1.1088 -0.4226  1.3352
  131OSM    C8S14116   0.762   4.393   7.052  0.8872  0.6160  0.3242
  131OSM    H8S14117   0.809   4.492   7.071  1.1039  0.6966 -0.6066
  131OSM    H8T14118   0.832   4.308   7.041 -0.9529 -0.8851 -0.3549
  131OSM    C9S14119   0.671   4.385   7.170  0.2340  0.0907  0.2861
  131OSM    H9S14120   0.596   4.303   7.161 -1.5121  1.4937  1.4878
  131OSM    H9T14121   0.608   4.476   7.172 -0.8848 -0.5945 -1.2681
  131OSM   C10S14122   0.744   4.382   7.308  0.2009  0.6439 -0.4042
  131OSM   H10S14123   0.788   4.483   7.323 -1.3945  1.4482 -0.9530
  131OSM   H10T14124   0.833   4.316   7.298  1.1942  2.0774 -1.3141
  131OSM   C11S14125   0.650   4.330   7.420  0.0912 -0.2020  0.2872
  131OSM   H11S14126   0.631   4.223   7.397  0.3702 -0.2823  0.4339
  131OSM   H11T14127   0.556   4.386   7.398  0.9546  1.2199  0.1491
  131OSM   C12S14128   0.706   4.347   7.560  0.5818  0.1891 -0.9593
  131OSM   H12S14129   0.727   4.451   7.591 -0.3541  0.6388 -1.7636
  131OSM   H12T14130   0.788   4.273   7.574 -2.5852 -3.5179  0.0543
  131OSM   C13S14131   0.590   4.300   7.657  0.4727 -0.2063  0.1524
  131OSM   H13S14132   0.563   4.193   7.642  1.7830 -0.3084 -1.9847
  131OSM   H13T14133   0.500   4.355   7.623  0.4438 -0.4391 -0.1614
  131OSM   C14S14134   0.615   4.328   7.802  0.4589 -0.4368  0.3016
  131OSM   H14S14135   0.626   4.437   7.822 -2.3388  0.0220 -0.2226
  131OSM   H14T14136   0.715   4.287   7.827  0.7384  1.7551  3.4401
  131OSM   C15S14137   0.508   4.290   7.901  0.2437  0.3276  0.8296
  131OSM   H15S14138   0.494   4.181   7.885  0.7659  0.2897  0.6184
  131OSM   H15T14139   0.419   4.355   7.888  1.9955  2.5840 -0.5887
  131OSM   C16S14140   0.549   4.294   8.046  0.0153 -0.1555 -0.0667
  131OSM   H16S14141   0.594   4.388   8.087 -0.6430 -0.4862  1.4900
  131OSM   H16T14142   0.635   4.224   8.041  0.7206  0.6199  0.6903
  131OSM   C17S14143   0.453   4.244   8.147  0.0400  0.5607 -0.3154
  131OSM   H17S14144   0.503   4.197   8.234 -1.0159 -0.8783 -0.4501
  131OSM   H17T14145   0.394   4.159   8.106  0.1495  0.9271 -1.2531
  131OSM   C18S14146   0.365   4.351   8.211  0.3687 -0.3319  0.1845
  131OSM   H18S14147   0.432   4.422   8.264  3.2592 -2.2088 -0.6750
  131OSM   H18T14148   0.293   4.307   8.283 -1.9637 -0.9039 -2.3106
  131OSM   H18U14149   0.321   4.412   8.130  1.6114  0.1753 -0.1368
  131OSM    C1F14150   0.468   4.805   6.595  0.7316 -0.1535 -0.0169
  131OSM     OF14151   0.345   4.807   6.573  0.2483 -0.1651 -0.4964
  131OSM    C2F14152   0.534   4.930   6.654 -0.2285 -0.3498 -0.1780
  131OSM    H2F14153   0.475   5.021   6.628  0.1938  0.1690  0.6202
  131OSM    H2G14154   0.638   4.942   6.618 -0.0424  2.0507  0.9820
  131OSM    C3F14155   0.549   4.929   6.810  0.2888 -0.1631 -0.6020
  131OSM    H3F14156   0.451   4.952   6.857  1.5118 -1.6229  3.0987
  131OSM    H3G14157   0.615   5.012   6.844  0.6678 -0.1903 -1.2617
  131OSM    C4F14158   0.593   4.793   6.873 -0.2448  0.1204  0.4864
  131OSM    H4F14159   0.677   4.748   6.816 -2.3152 -2.5352 -0.7131
  131OSM    H4G14160   0.505   4.725   6.864 -0.3975  0.4258 -0.5212
  131OSM    C5F14161   0.649   4.805   7.017 -0.2656 -0.1198  0.1970
  131OSM    H5F14162   0.730   4.882   7.021 -1.3474  1.0068  1.2473
  131OSM    H5G14163   0.693   4.709   7.051  1.1557  1.5267  3.4241
  131OSM    C6F14164   0.551   4.865   7.116 -0.2659 -0.2347 -0.3178
  131OSM    H6F14165   0.448   4.825   7.117  0.1880 -1.4609  1.3402
  131OSM    H6G14166   0.539   4.970   7.081  1.1917 -0.4690 -1.6914
  131OSM    C7F14167   0.607   4.875   7.258 -0.0448 -0.3283 -0.4868
  131OSM    H7F14168   0.529   4.925   7.318 -1.3148 -0.3796 -2.0265
  131OSM    H7G14169   0.701   4.934   7.254  0.9514 -1.8112  0.0126
  131OSM    C8F14170   0.641   4.748   7.335  0.0536 -0.3070  0.6490
  131OSM    H8F14171   0.715   4.691   7.275 -0.6769 -0.2648 -0.3102
  131OSM    H8G14172   0.544   4.697   7.350 -0.6795  0.6013 -0.7342
  131OSM    C9F14173   0.708   4.784   7.465 -0.6595 -0.1592  0.2238
  131OSM    H9F14174   0.814   4.814   7.465 -0.7528  0.9367 -4.3174
  131OSM   C10F14175   0.639   4.787   7.576  0.2238  0.1963  0.1121
  131OSM   H10F14176   0.693   4.810   7.670 -0.6258 -0.6581  0.8368
  131OSM   C11F14177   0.500   4.750   7.610 -0.0115  0.3875  0.1646
  131OSM   H11F14178   0.475   4.653   7.562  0.6725 -0.5656  1.6453
  131OSM   H11G14179   0.420   4.821   7.580  0.3838  0.1437 -1.5379
  131OSM   C12F14180   0.474   4.731   7.756 -0.5528  0.3470 -0.3868
  131OSM   H12F14181   0.504   4.817   7.819 -1.1515  0.8114 -0.7300
  131OSM   H12G14182   0.535   4.643   7.788  0.3227  0.8169 -0.7379
  131OSM   C13F14183   0.325   4.701   7.790  0.1698 -0.0269 -0.5415
  131OSM   H13F14184   0.313   4.606   7.734 -1.0105  0.1001 -0.5311
  131OSM   H13G14185   0.257   4.778   7.748 -2.1453 -1.1381  0.9773
  131OSM   C14F14186   0.263   4.681   7.928 -0.7955 -0.2482 -0.3599
  131OSM   H14F14187   0.336   4.632   7.996 -1.8288 -3.2959 -1.2466
  131OSM   H14G14188   0.167   4.625   7.932 -0.0124 -1.5570  2.3012
  131OSM   C15F14189   0.239   4.818   7.994 -0.2931  0.2812 -0.1879
  131OSM   H15F14190   0.158   4.871   7.941 -0.6236  1.0797  1.0732
  131OSM   H15G14191   0.336   4.871   7.982 -0.1202 -0.3048 -1.6183
  131OSM   C16F14192   0.194   4.799   8.132  0.8303 -0.5746 -0.0705
  131OSM   H16F14193   0.271   4.739   8.185  0.5050 -0.8723  0.0701
  131OSM   H16G14194   0.098   4.743   8.133 -0.7697  1.9637 -1.8440
  131OSM   C17F14195   0.169   4.929   8.223 -0.3551 -0.7461  0.5906
  131OSM   H17F14196   0.121   4.892   8.316  0.1402 -1.2399  0.6516
  131OSM   H17G14197   0.103   4.999   8.168  0.4108  0.5713  1.2956
  131OSM   C18F14198   0.303   4.995   8.271  0.4853  1.4806  0.0446
  131OSM   H18F14199   0.283   5.071   8.350 -0.6119 -0.0225  1.2832
  131OSM   H18G14200   0.360   5.033   8.184 -0.9037 -0.7181 -1.9527
  131OSM   H18H14201   0.367   4.915   8.316  1.8986  1.9406 -1.0998
  132OSM      N14202   0.144   6.412   6.024 -0.8259 -0.0500 -0.3143
  132OSM    C1514203   0.091   6.292   5.952 -0.6309  0.4767  0.6438
  132OSM   H15A14204   0.071   6.208   6.017  2.7000 -2.3939 -1.6378
  132OSM   H15B14205   0.176   6.258   5.894 -0.2333 -0.7084  1.8656
  132OSM   H15C14206   0.008   6.312   5.887 -0.6488 -0.6680  0.2925
  132OSM    C1414207   0.276   6.366   6.090  0.1013 -0.4169  0.7454
  132OSM   H14A14208   0.267   6.271   6.141  1.3910 -2.1270 -2.0076
  132OSM   H14B14209   0.296   6.444   6.161  0.8809 -0.0197  0.1047
  132OSM   H14C14210   0.352   6.359   6.013 -0.2848 -0.7888  0.3921
  132OSM    C1314211   0.173   6.536   5.933  0.5806 -0.5775  0.4704
  132OSM   H13A14212   0.254   6.516   5.865  1.8908 -0.4783  1.9290
  132OSM   H13B14213   0.197   6.620   5.996 -0.3021  0.9743 -1.1716
  132OSM   H13C14214   0.091   6.574   5.875 -0.8247  0.2706  2.8668
  132OSM    C1214215   0.048   6.455   6.140 -0.7367 -0.1596 -0.4268
  132OSM   H12A14216  -0.046   6.476   6.091 -0.6766  0.0824 -0.4404
  132OSM   H12B14217   0.072   6.554   6.176  0.9005  0.6795 -3.5016
  132OSM    C1114218   0.018   6.349   6.254  0.6728  0.3055 -0.6314
  132OSM   H11A14219  -0.044   6.398   6.332  1.5543  1.1299 -0.4389
  132OSM   H11B14220   0.107   6.310   6.307 -0.9139 -2.3237  0.3479
  132OSM      P14221  -0.214   6.240   6.178 -0.0382 -0.0418  0.1097
  132OSM    O1314222  -0.254   6.343   6.079  0.4867  0.1480  0.1860
  132OSM    O1414223  -0.256   6.103   6.149 -0.7897 -0.1906 -0.3241
  132OSM    O1114224  -0.266   6.274   6.320  0.0681 -0.5008 -0.6081
  132OSM    O1214225  -0.054   6.242   6.206  0.5485 -0.2648  0.7373
  132OSM    C1S14226  -0.244   6.191   6.436  0.3264 -0.6760  1.0013
  132OSM    H1S14227  -0.137   6.163   6.450  1.1544  1.1956 -0.9769
  132OSM    H1T14228  -0.296   6.095   6.417 -1.9414  0.8031 -0.8397
  132OSM     NF14229  -0.262   6.194   6.690  0.3601  0.6762  0.3164
  132OSM    HNF14230  -0.342   6.148   6.727  0.8656  0.4933  1.1808
  132OSM    C2S14231  -0.293   6.264   6.562  0.4459  0.3482 -0.5055
  132OSM    H2S14232  -0.240   6.361   6.573 -0.3241  0.7297 -0.0524
  132OSM    C3S14233  -0.443   6.287   6.551 -0.8133  0.2841 -1.0341
  132OSM    H3S14234  -0.494   6.189   6.538 -1.3803  0.4972 -0.4610
  132OSM     O314235  -0.486   6.370   6.441 -0.2918  0.5244  0.6386
  132OSM    HO314236  -0.405   6.356   6.391 -0.1176  0.5907  0.8962
  132OSM    C4S14237  -0.513   6.334   6.682 -0.5560 -0.0056 -0.1316
  132OSM    H4S14238  -0.573   6.250   6.720  0.6800 -1.5318 -1.3737
  132OSM    C5S14239  -0.515   6.463   6.730 -0.2694 -0.3779  0.1372
  132OSM    H5S14240  -0.459   6.543   6.678 -0.0124 -1.5271 -1.4280
  132OSM    C6S14241  -0.595   6.505   6.850 -0.0709  0.6998  0.2593
  132OSM    H6S14242  -0.682   6.441   6.876 -0.4373  1.7149  1.6683
  132OSM    H6T14243  -0.647   6.601   6.827 -2.9584 -0.5937  0.9524
  132OSM    C7S14244  -0.502   6.516   6.966  0.8948 -0.3456  0.1709
  132OSM    H7S14245  -0.405   6.559   6.931  0.1968 -0.5876 -2.2371
  132OSM    H7T14246  -0.482   6.407   6.972 -1.3947 -0.9420 -1.8050
  132OSM    C8S14247  -0.561   6.570   7.097 -0.2351 -0.9693 -0.2460
  132OSM    H8S14248  -0.598   6.481   7.151  0.5224 -1.9939 -1.3791
  132OSM    H8T14249  -0.638   6.648   7.078 -0.2043 -0.4671  1.5163
  132OSM    C9S14250  -0.441   6.626   7.180  0.0960 -0.5521  0.8566
  132OSM    H9S14251  -0.404   6.714   7.122 -1.0090  0.6896  1.9581
  132OSM    H9T14252  -0.361   6.551   7.198  1.0513  0.6255  1.6744
  132OSM   C10S14253  -0.482   6.673   7.317 -0.5525 -1.1457  0.7883
  132OSM   H10S14254  -0.528   6.589   7.374  2.2304 -3.2856  0.1020
  132OSM   H10T14255  -0.564   6.748   7.307 -1.5505 -2.1508  1.1951
  132OSM   C11S14256  -0.356   6.746   7.386  0.0551  0.2570 -0.0616
  132OSM   H11S14257  -0.284   6.764   7.304  0.6734 -0.3996  0.3294
  132OSM   H11T14258  -0.321   6.660   7.447 -3.5484 -1.0395  0.4312
  132OSM   C12S14259  -0.392   6.868   7.471  0.1692  0.0712 -0.6950
  132OSM   H12S14260  -0.437   6.952   7.414  0.1338 -0.3658 -1.3332
  132OSM   H12T14261  -0.300   6.914   7.513 -1.3047  1.2007  1.4677
  132OSM   C13S14262  -0.482   6.841   7.596 -0.1968  0.8777  0.1234
  132OSM   H13S14263  -0.456   6.749   7.651 -1.0280  0.3352 -0.3648
  132OSM   H13T14264  -0.583   6.806   7.565 -0.4182  0.1236  1.6512
  132OSM   C14S14265  -0.480   6.958   7.692  0.9272  0.7523 -0.4635
  132OSM   H14S14266  -0.499   7.050   7.634  2.4215  0.3279 -1.6964
  132OSM   H14T14267  -0.384   6.954   7.749  0.4158 -1.1298  0.3754
  132OSM   C15S14268  -0.603   6.953   7.788 -0.0636  0.8993  0.2890
  132OSM   H15S14269  -0.689   6.929   7.721  1.9545 -1.1942 -1.7346
  132OSM   H15T14270  -0.620   7.056   7.826  0.1413  1.6904 -1.6429
  132OSM   C16S14271  -0.607   6.834   7.886 -0.1881 -0.3354  0.3115
  132OSM   H16S14272  -0.502   6.799   7.894  1.0289  2.5510 -1.6939
  132OSM   H16T14273  -0.678   6.761   7.841 -0.4566  0.6284 -0.8619
  132OSM   C17S14274  -0.660   6.871   8.024  0.2246  0.1126 -0.1802
  132OSM   H17S14275  -0.769   6.889   8.008  0.4636  0.2103 -1.7805
  132OSM   H17T14276  -0.605   6.963   8.055 -0.2306  0.5227 -0.5601
  132OSM   C18S14277  -0.661   6.766   8.134 -0.0580 -0.9728  0.1418
  132OSM   H18S14278  -0.720   6.674   8.114 -0.9175 -0.0872 -1.6812
  132OSM   H18T14279  -0.692   6.808   8.233 -0.7730 -0.9865 -0.0666
  132OSM   H18U14280  -0.553   6.742   8.143  0.2637 -0.8283 -2.5059
  132OSM    C1F14281  -0.137   6.166   6.734  0.3649  0.2626  0.3530
  132OSM     OF14282  -0.045   6.222   6.675  0.0794  0.1220  0.4394
  132OSM    C2F14283  -0.128   6.073   6.852 -0.2247 -0.0614  0.0945
  132OSM    H2F14284  -0.182   5.977   6.837 -1.1407  0.3509  0.6500
  132OSM    H2G14285  -0.197   6.130   6.918 -0.1241  1.4978 -1.1060
  132OSM    C3F14286   0.007   6.057   6.923 -0.0772  0.1075 -0.0823
  132OSM    H3F14287   0.049   6.155   6.953  0.9583  0.0449 -1.2621
  132OSM    H3G14288   0.086   6.017   6.855  1.0615  0.9374  0.7059
  132OSM    C4F14289   0.016   5.977   7.054  1.0867 -0.4556 -0.3121
  132OSM    H4F14290   0.100   6.017   7.115 -0.3306 -1.2208  2.2762
  132OSM    H4G14291   0.033   5.869   7.034  2.4653 -0.1789 -0.7436
  132OSM    C5F14292  -0.105   6.007   7.144  0.0143  0.1968 -0.0029
  132OSM    H5F14293  -0.186   5.959   7.084  1.0888 -0.8791 -0.6509
  132OSM    H5G14294  -0.129   6.114   7.164  0.4649  0.4040 -0.5427
  132OSM    C6F14295  -0.107   5.925   7.278  0.3390 -0.5452 -0.7791
  132OSM    H6F14296  -0.013   5.951   7.332 -1.2204  0.7316  1.5174
  132OSM    H6G14297  -0.104   5.817   7.252 -0.7364 -0.6615 -0.4803
  132OSM    C7F14298  -0.236   5.964   7.359 -0.5220 -0.3602  0.1053
  132OSM    H7F14299  -0.327   5.942   7.298 -1.1390  1.4072  0.3106
  132OSM    H7G14300  -0.240   6.074   7.376 -2.5274 -0.1813 -1.1554
  132OSM    C8F14301  -0.251   5.885   7.492 -0.4459 -0.4172 -0.8070
  132OSM    H8F14302  -0.155   5.912   7.540  0.6634  1.1179 -3.6473
  132OSM    H8G14303  -0.236   5.778   7.466 -0.3960  0.0049 -2.5992
  132OSM    C9F14304  -0.369   5.927   7.572  0.4708 -1.1946 -0.0723
  132OSM    H9F14305  -0.403   6.026   7.538  0.2278 -1.6005 -1.0417
  132OSM   C10F14306  -0.415   5.858   7.675  0.0239  0.0482 -0.3276
  132OSM   H10F14307  -0.494   5.889   7.745 -0.7416 -0.6158 -0.8649
  132OSM   C11F14308  -0.359   5.729   7.722  0.0940 -0.2328  0.3815
  132OSM   H11F14309  -0.262   5.702   7.675  1.0370  0.9012  1.5773
  132OSM   H11G14310  -0.431   5.646   7.706  0.8269 -0.4011 -2.5100
  132OSM   C12F14311  -0.332   5.726   7.875 -0.4215  0.0692  0.2874
  132OSM   H12F14312  -0.418   5.775   7.926  1.6648  1.9393  2.2175
  132OSM   H12G14313  -0.242   5.785   7.898 -0.4370  0.7713 -1.3207
  132OSM   C13F14314  -0.314   5.587   7.929 -0.4354  0.5675  0.8217
  132OSM   H13F14315  -0.208   5.561   7.907  0.9914  4.5122  2.1114
  132OSM   H13G14316  -0.391   5.525   7.879 -0.6598 -1.8495  3.8815
  132OSM   C14F14317  -0.325   5.573   8.083  0.0354 -0.0048 -0.1267
  132OSM   H14F14318  -0.338   5.469   8.119 -2.1127  0.7068  1.3820
  132OSM   H14G14319  -0.421   5.625   8.106  0.0161 -0.4802  0.9624
  132OSM   C15F14320  -0.218   5.644   8.164  0.1375 -0.6499  0.0259
  132OSM   H15F14321  -0.219   5.754   8.149 -1.2887 -0.1106  3.2394
  132OSM   H15G14322  -0.121   5.601   8.131  0.2918  0.5474 -1.1247
  132OSM   C16F14323  -0.247   5.638   8.313  0.6767  0.1296  0.4664
  132OSM   H16F14324  -0.158   5.680   8.364 -0.8059  1.6622  1.9602
  132OSM   H16G14325  -0.271   5.532   8.335 -0.3427  0.3165  0.3202
  132OSM   C17F14326  -0.355   5.732   8.369 -0.2582 -0.1681 -0.2631
  132OSM   H17F14327  -0.452   5.721   8.317  0.8641 -2.3424 -2.0577
  132OSM   H17G14328  -0.323   5.838   8.356 -1.6666  0.2601 -0.4149
  132OSM   C18F14329  -0.357   5.719   8.518  0.0190 -0.0687  0.9042
  132OSM   H18F14330  -0.441   5.776   8.564 -0.5785  0.9229 -1.2903
  132OSM   H18G14331  -0.262   5.761   8.558 -0.4299  3.3410 -1.1958
  132OSM   H18H14332  -0.374   5.614   8.550 -2.8090  0.2260  0.6772
  133OSM      N14333   6.312   6.634   6.170 -0.6790 -0.1194  0.3751
  133OSM    C1514334   6.248   6.524   6.088 -0.8543 -0.5285  0.3562
  133OSM   H15A14335   6.249   6.430   6.142 -0.0154 -0.4798  0.4379
  133OSM   H15B14336   6.294   6.513   5.991 -2.3717 -1.9335 -0.2672
  133OSM   H15C14337   6.142   6.541   6.075 -1.3447 -3.2539  0.0311
  133OSM    C1414338   6.292   6.769   6.104  0.4505 -0.1392 -0.9397
  133OSM   H14A14339   6.186   6.789   6.107  0.5705  0.4068  1.6501
  133OSM   H14B14340   6.324   6.769   6.001  2.5047 -0.0380 -0.3439
  133OSM   H14C14341   6.352   6.844   6.153 -0.6626 -0.8230  1.6267
  133OSM    C1314342   6.243   6.632   6.305 -0.4215 -0.4333 -0.7064
  133OSM   H13A14343   6.281   6.709   6.371 -1.1391 -1.5798  1.1128
  133OSM   H13B14344   6.259   6.534   6.347  0.4325  0.2707  0.7200
  133OSM   H13C14345   6.137   6.652   6.299 -0.1135  1.6276 -0.1474
  133OSM    C1214346   6.457   6.590   6.186 -0.8451  0.9473  0.3983
  133OSM   H12A14347   6.505   6.583   6.089 -1.3207 -0.5378  0.2435
  133OSM   H12B14348   6.462   6.487   6.219  1.6327  0.6805 -0.6107
  133OSM    C1114349   6.542   6.673   6.287  0.9689 -0.4231  0.6311
  133OSM   H11A14350   6.628   6.613   6.322  1.0274 -0.0545  1.1323
  133OSM   H11B14351   6.477   6.694   6.375 -0.6407 -2.1281 -0.0867
  133OSM      P14352   6.572   6.936   6.288 -0.1648  0.1465  0.0477
  133OSM    O1314353   6.689   7.010   6.232  0.3212 -0.0179  0.3445
  133OSM    O1414354   6.439   7.000   6.275  0.7806  0.3232  0.2757
  133OSM    O1114355   6.606   6.895   6.438 -0.2772  0.0156  0.1582
  133OSM    O1214356   6.590   6.795   6.220 -0.0160 -0.5417 -0.0507
  133OSM    C1S14357   6.732   6.832   6.464 -0.5911 -0.0707  0.3441
  133OSM    H1S14358   6.813   6.907   6.452  1.5112 -2.3354 -0.6113
  133OSM    H1T14359   6.744   6.737   6.406  0.2540 -0.3353  0.9236
  133OSM     NF14360   6.877   6.728   6.637 -0.2223 -0.0583  0.8555
  133OSM    HNF14361   6.890   6.631   6.621  1.6501  0.0868  1.2880
  133OSM    C2S14362   6.745   6.784   6.613 -0.2197  0.1355 -0.5621
  133OSM    H2S14363   6.730   6.877   6.673  2.3898  0.3387 -0.1024
  133OSM    C3S14364   6.630   6.686   6.651 -1.1341 -0.0600  0.0386
  133OSM    H3S14365   6.625   6.600   6.581  0.8844  1.4930 -2.1516
  133OSM     O314366   6.505   6.757   6.657  0.2506 -0.3071  0.0966
  133OSM    HO314367   6.525   6.823   6.590  0.6056 -1.6053 -1.1331
  133OSM    C4S14368   6.649   6.637   6.799 -0.1015 -0.0414  0.0046
  133OSM    H4S14369   6.608   6.706   6.874 -0.3266 -0.0156 -0.1445
  133OSM    C5S14370   6.687   6.517   6.851  0.1814  0.2060  0.4916
  133OSM    H5S14371   6.720   6.436   6.786 -0.7344  0.5732 -0.4668
  133OSM    C6S14372   6.695   6.494   7.006 -0.2107  0.2041 -0.2928
  133OSM    H6S14373   6.767   6.412   7.028 -0.2115  0.1101 -0.6354
  133OSM    H6T14374   6.593   6.461   7.034  0.5077 -0.4546  1.8109
  133OSM    C7S14375   6.726   6.608   7.101 -0.3179  0.2131 -0.2105
  133OSM    H7S14376   6.658   6.695   7.084 -0.5095  0.2425  0.6512
  133OSM    H7T14377   6.831   6.642   7.088 -0.1487 -0.7747 -1.5487
  133OSM    C8S14378   6.717   6.567   7.252  0.0486 -1.0834  0.2125
  133OSM    H8S14379   6.614   6.531   7.269 -1.3455  3.4782  3.6399
  133OSM    H8T14380   6.730   6.651   7.324 -0.0536 -0.8251 -0.0661
  133OSM    C9S14381   6.829   6.469   7.281  0.2307  0.1726  0.1371
  133OSM    H9S14382   6.934   6.500   7.265 -0.1231  0.2650 -2.5217
  133OSM    H9T14383   6.808   6.378   7.220 -0.1300  0.0787  0.3972
  133OSM   C10S14384   6.815   6.432   7.425 -0.3818 -0.1660 -0.2890
  133OSM   H10S14385   6.710   6.423   7.461 -0.6981 -0.9509 -1.3286
  133OSM   H10T14386   6.864   6.513   7.482  0.1443 -0.2010 -0.6877
  133OSM   C11S14387   6.873   6.295   7.468 -0.1092  0.7642  0.2869
  133OSM   H11S14388   6.982   6.293   7.450 -0.2455 -2.8179 -1.0454
  133OSM   H11T14389   6.823   6.214   7.411  1.5536 -1.1022  1.3369
  133OSM   C12S14390   6.848   6.265   7.618  0.0325  0.4043  0.2035
  133OSM   H12S14391   6.880   6.160   7.632 -1.1594  0.0021  0.1017
  133OSM   H12T14392   6.741   6.281   7.646 -0.0739 -0.5853  0.4246
  133OSM   C13S14393   6.946   6.345   7.712 -0.6702  0.1277 -0.0935
  133OSM   H13S14394   6.905   6.447   7.695 -4.6894 -1.5570 -1.7092
  133OSM   H13T14395   7.043   6.339   7.660 -1.3228 -0.4273 -1.2718
  133OSM   C14S14396   6.953   6.285   7.853 -0.1641 -0.4193  0.1446
  133OSM   H14S14397   6.974   6.176   7.852 -2.4570 -0.9016 -0.6906
  133OSM   H14T14398   6.865   6.320   7.910  0.5908  5.1178 -1.3993
  133OSM   C15S14399   7.086   6.329   7.916 -0.6309 -0.2851 -0.8707
  133OSM   H15S14400   7.080   6.440   7.911  0.4707 -0.1086  0.7231
  133OSM   H15T14401   7.169   6.305   7.847 -1.6627  1.5129 -2.8373
  133OSM   C16S14402   7.113   6.297   8.073 -0.8322 -0.5362  0.0940
  133OSM   H16S14403   7.077   6.387   8.126  0.9335  1.9543 -2.6088
  133OSM   H16T14404   7.224   6.290   8.081 -0.6624 -1.9019 -2.3116
  133OSM   C17S14405   7.049   6.167   8.120  0.5111  0.2258  0.2440
  133OSM   H17S14406   7.070   6.090   8.043 -1.5802 -1.3309  1.1229
  133OSM   H17T14407   6.939   6.180   8.128  0.3742 -1.6431  2.7189
  133OSM   C18S14408   7.104   6.103   8.248 -0.5113 -0.7591 -0.2938
  133OSM   H18S14409   7.210   6.077   8.224 -1.1010 -1.1836 -2.6891
  133OSM   H18T14410   7.058   6.002   8.259  0.6896 -1.5862 -2.3449
  133OSM   H18U14411   7.088   6.167   8.338  0.0848  0.9089 -1.3295
  133OSM    C1F14412   6.990   6.799   6.636 -0.5036  0.1139  0.0046
  133OSM     OF14413   6.983   6.918   6.623  0.4416  0.1735  0.1894
  133OSM    C2F14414   7.118   6.723   6.654  0.2654 -0.3770  0.2528
  133OSM    H2F14415   7.171   6.697   6.560  1.5748 -0.3262  0.9517
  133OSM    H2G14416   7.096   6.624   6.698 -1.2727  0.2222  0.9149
  133OSM    C3F14417   7.215   6.796   6.751  0.3357  0.3926 -0.2657
  133OSM    H3F14418   7.242   6.898   6.715  0.2082  0.6129  0.2554
  133OSM    H3G14419   7.313   6.745   6.738  0.3381  0.6913 -1.5826
  133OSM    C4F14420   7.176   6.792   6.908  0.2786  0.5000  0.6466
  133OSM    H4F14421   7.079   6.741   6.924 -1.2797  3.3446  0.7720
  133OSM    H4G14422   7.167   6.898   6.940 -1.5803 -0.0773  2.2452
  133OSM    C5F14423   7.286   6.725   6.990 -0.0038 -0.7622  0.6736
  133OSM    H5F14424   7.386   6.770   6.970  0.0902 -0.7818  1.0879
  133OSM    H5G14425   7.286   6.617   6.963  0.8683 -0.1139 -2.1780
  133OSM    C6F14426   7.266   6.740   7.145 -0.4210 -0.1087  0.0047
  133OSM    H6F14427   7.157   6.737   7.167 -0.6240  1.3569 -0.6760
  133OSM    H6G14428   7.293   6.844   7.172  2.1944 -1.3796  2.8328
  133OSM    C7F14429   7.342   6.640   7.242 -0.3375  0.3211  0.0671
  133OSM    H7F14430   7.450   6.637   7.215  0.3626 -1.2833  2.6916
  133OSM    H7G14431   7.300   6.538   7.252 -0.5972  0.3901 -0.3092
  133OSM    C8F14432   7.350   6.707   7.382 -0.3719  0.3969 -0.0122
  133OSM    H8F14433   7.337   6.816   7.366 -2.8268  0.4906  2.1045
  133OSM    H8G14434   7.450   6.699   7.429  0.3782  0.8194 -1.4730
  133OSM    C9F14435   7.242   6.656   7.473 -0.1276  0.3328 -0.8448
  133OSM    H9F14436   7.215   6.552   7.449 -0.3518  0.7743 -2.6778
  133OSM   C10F14437   7.178   6.728   7.572  0.6214 -0.1646  0.1773
  133OSM   H10F14438   7.104   6.677   7.636  1.7031 -1.1474  0.6767
  133OSM   C11F14439   7.191   6.871   7.622 -0.6986  0.2807  0.0778
  133OSM   H11F14440   7.094   6.923   7.607 -0.4467  0.5684 -0.6294
  133OSM   H11G14441   7.272   6.922   7.565  0.0741 -1.7469 -0.7344
  133OSM   C12F14442   7.236   6.867   7.769  0.5707 -0.2096 -0.1340
  133OSM   H12F14443   7.270   6.965   7.810  0.3690 -1.0817  2.2321
  133OSM   H12G14444   7.329   6.806   7.773  0.3500 -0.5688 -0.4319
  133OSM   C13F14445   7.146   6.806   7.880  0.2807 -0.1489 -0.1117
  133OSM   H13F14446   7.134   6.697   7.861  0.0251 -0.1486  0.0444
  133OSM   H13G14447   7.045   6.852   7.885  0.7489  0.8386  0.8129
  133OSM   C14F14448   7.206   6.811   8.019 -0.9568 -0.4566 -0.6003
  133OSM   H14F14449   7.242   6.910   8.055 -0.4661 -1.0362  0.5643
  133OSM   H14G14450   7.293   6.742   8.018  0.6839  1.3346  2.1016
  133OSM   C15F14451   7.102   6.757   8.119  0.6643 -0.3671  0.6921
  133OSM   H15F14452   7.054   6.671   8.068  1.4636 -0.9557  0.9222
  133OSM   H15G14453   7.020   6.832   8.126 -0.9705 -2.0051 -0.2264
  133OSM   C16F14454   7.161   6.727   8.254 -0.4376 -0.3141 -0.3129
  133OSM   H16F14455   7.221   6.634   8.248  1.5327  0.8131  0.8815
  133OSM   H16G14456   7.076   6.703   8.322 -1.9462 -2.9842 -2.9114
  133OSM   C17F14457   7.240   6.838   8.325  0.4551  0.3109  0.6618
  133OSM   H17F14458   7.324   6.862   8.256  0.3613 -1.8358 -0.2692
  133OSM   H17G14459   7.289   6.797   8.416 -0.0387 -1.8281  0.0107
  133OSM   C18F14460   7.170   6.968   8.346  0.2310 -0.2232  0.3355
  133OSM   H18F14461   7.240   7.042   8.390  0.5830 -0.4622  0.1803
  133OSM   H18G14462   7.097   6.954   8.429 -1.0981  0.6661 -0.6559
  133OSM   H18H14463   7.115   6.997   8.255 -1.0345 -0.8287  0.8834
  134OSM      N14464   2.169   3.361   6.324 -0.2596 -0.0075 -0.1049
  134OSM    C1514465   2.309   3.392   6.374 -0.7814  0.3374 -0.4757
  134OSM   H15A14466   2.307   3.466   6.453  3.1217  1.5378 -1.3324
  134OSM   H15B14467   2.366   3.440   6.296  0.1491 -1.1627 -0.7558
  134OSM   H15C14468   2.360   3.303   6.407  0.4935  1.0057 -0.6136
  134OSM    C1414469   2.121   3.491   6.260 -0.3062 -0.5159 -0.1716
  134OSM   H14A14470   2.155   3.574   6.321 -0.3599  0.4133 -1.3666
  134OSM   H14B14471   2.013   3.486   6.261 -0.2618 -1.9073  0.7594
  134OSM   H14C14472   2.158   3.520   6.163  0.7822  0.2703  0.4556
  134OSM    C1314473   2.170   3.253   6.223  0.5339  0.3769 -0.1875
  134OSM   H13A14474   2.181   3.156   6.268  3.7061  0.0547 -1.4223
  134OSM   H13B14475   2.246   3.258   6.146  0.2133 -0.9507 -0.6177
  134OSM   H13C14476   2.076   3.253   6.169  1.4508  1.6245 -1.8814
  134OSM    C1214477   2.072   3.333   6.436 -0.2369  0.1107 -0.3833
  134OSM   H12A14478   1.972   3.314   6.399 -1.1990  0.6637  1.7491
  134OSM   H12B14479   2.050   3.417   6.500 -1.1297 -1.2769  1.1973
  134OSM    C1114480   2.104   3.218   6.531 -0.3015 -0.2823 -0.2065
  134OSM   H11A14481   2.031   3.195   6.611  1.0517 -1.4407  0.7659
  134OSM   H11B14482   2.196   3.255   6.581  1.4549  0.5869 -3.7731
  134OSM      P14483   2.012   3.000   6.419  0.0721 -0.2862  0.1879
  134OSM    O1314484   1.880   3.063   6.440 -0.7007  0.7568 -0.1557
  134OSM    O1414485   2.031   2.969   6.275  0.5943 -0.2001 -0.4236
  134OSM    O1114486   2.017   2.866   6.505 -0.7516 -0.6881 -0.2250
  134OSM    O1214487   2.134   3.096   6.466  0.3397  0.4973  0.4543
  134OSM    C1S14488   2.087   2.877   6.634  0.7086 -0.2314  0.3739
  134OSM    H1S14489   2.025   2.948   6.694  2.1083 -0.1121  1.7246
  134OSM    H1T14490   2.185   2.927   6.621  1.1808 -0.6706  2.0595
  134OSM     NF14491   2.154   2.770   6.846 -0.3468  0.2322 -0.4013
  134OSM    HNF14492   2.245   2.740   6.875 -1.8982 -3.0669  1.5746
  134OSM    C2S14493   2.107   2.740   6.711 -0.1234 -0.4322 -0.6786
  134OSM    H2S14494   2.013   2.682   6.710  0.2022 -0.9830 -2.4964
  134OSM    C3S14495   2.207   2.656   6.634  0.2433  0.0088  0.4150
  134OSM    H3S14496   2.304   2.710   6.645  0.1062  0.0804  1.3204
  134OSM     O314497   2.189   2.637   6.494  0.0603 -0.3477 -0.4336
  134OSM    HO314498   2.126   2.708   6.478 -0.7682 -1.1146 -0.6206
  134OSM    C4S14499   2.222   2.520   6.705 -0.1743 -0.0704  0.4833
  134OSM    H4S14500   2.125   2.469   6.719 -0.4538  0.7172  1.6272
  134OSM    C5S14501   2.338   2.465   6.754  0.5496 -0.4703  0.1183
  134OSM    H5S14502   2.426   2.528   6.735  0.0022  0.1844 -0.2889
  134OSM    C6S14503   2.342   2.331   6.829 -0.1916 -0.3709  0.7398
  134OSM    H6S14504   2.409   2.266   6.769  1.5893 -0.1324  2.3816
  134OSM    H6T14505   2.237   2.298   6.841 -0.6193  0.6174 -0.0785
  134OSM    C7S14506   2.409   2.361   6.965  0.6763  0.1416 -0.2446
  134OSM    H7S14507   2.499   2.423   6.948  0.3889  1.1933  1.7720
  134OSM    H7T14508   2.445   2.264   7.006 -1.4508 -1.5953 -2.1468
  134OSM    C8S14509   2.313   2.434   7.063 -0.1177 -0.1542  0.7500
  134OSM    H8S14510   2.228   2.365   7.084 -0.1364 -0.8725 -1.4042
  134OSM    H8T14511   2.266   2.526   7.023  1.1463 -0.0238 -0.4940
  134OSM    C9S14512   2.366   2.474   7.198  0.6745  0.0546  0.3116
  134OSM    H9S14513   2.428   2.566   7.189  0.7032  0.5787  4.1625
  134OSM    H9T14514   2.410   2.395   7.262  0.2498  0.1596  0.7413
  134OSM   C10S14515   2.241   2.513   7.280  0.7155 -0.1363 -0.1168
  134OSM   H10S14516   2.173   2.426   7.296 -1.7911  1.6421 -0.5741
  134OSM   H10T14517   2.174   2.575   7.217 -1.8688 -2.7427 -0.1192
  134OSM   C11S14518   2.272   2.586   7.414 -0.1082 -0.8455  0.2375
  134OSM   H11S14519   2.185   2.649   7.443 -0.6089 -0.0931 -2.5921
  134OSM   H11T14520   2.350   2.661   7.392 -2.1073  1.6549  1.1005
  134OSM   C12S14521   2.287   2.484   7.526 -0.6940  0.8605 -0.3632
  134OSM   H12S14522   2.365   2.418   7.482 -0.1889  0.9251  0.4062
  134OSM   H12T14523   2.193   2.425   7.532  0.5708 -1.2470 -0.0507
  134OSM   C13S14524   2.340   2.531   7.670  0.0078  0.2669  0.0254
  134OSM   H13S14525   2.275   2.613   7.705  1.5782  1.5934 -0.0578
  134OSM   H13T14526   2.439   2.582   7.664  0.4024 -0.4598  0.1962
  134OSM   C14S14527   2.358   2.418   7.774  1.1925 -0.4359 -0.1903
  134OSM   H14S14528   2.436   2.348   7.739  1.3454  0.8162 -2.5220
  134OSM   H14T14529   2.264   2.359   7.776  0.8253  0.0521  3.0080
  134OSM   C15S14530   2.388   2.470   7.913 -0.6668  0.3720 -0.3348
  134OSM   H15S14531   2.305   2.536   7.946 -0.8673 -0.4714  0.9015
  134OSM   H15T14532   2.474   2.539   7.911 -1.6251  1.6681  0.9146
  134OSM   C16S14533   2.404   2.357   8.008 -0.7338 -0.1809 -0.1327
  134OSM   H16S14534   2.467   2.275   7.966  0.8098  1.2302 -0.7158
  134OSM   H16T14535   2.313   2.300   8.034  1.5764 -3.4257  1.5551
  134OSM   C17S14536   2.455   2.400   8.151  0.6256 -0.6166  1.4588
  134OSM   H17S14537   2.394   2.483   8.192  3.0808  0.7048  2.6600
  134OSM   H17T14538   2.556   2.446   8.141 -0.4712  1.4852 -1.1987
  134OSM   C18S14539   2.466   2.277   8.231  0.0144  0.2205 -0.0926
  134OSM   H18S14540   2.534   2.206   8.179  0.1685  0.5239 -0.3042
  134OSM   H18T14541   2.367   2.226   8.242  0.4457 -0.3197  1.5537
  134OSM   H18U14542   2.505   2.303   8.332 -1.1277  0.5384  0.2829
  134OSM    C1F14543   2.072   2.811   6.940  0.9520 -0.5058 -0.9446
  134OSM     OF14544   1.953   2.829   6.914  0.0126  0.7126  0.1326
  134OSM    C2F14545   2.133   2.851   7.079  0.2769  0.0897  0.0564
  134OSM    H2F14546   2.187   2.945   7.059  1.0731 -0.5062 -0.6505
  134OSM    H2G14547   2.208   2.770   7.096 -0.0391  0.2645  2.7034
  134OSM    C3F14548   2.025   2.853   7.193 -0.8831  0.3908 -0.0324
  134OSM    H3F14549   1.998   2.745   7.202 -0.4319  0.2366 -0.5491
  134OSM    H3G14550   1.935   2.919   7.197  0.4344  2.2845 -0.4866
  134OSM    C4F14551   2.090   2.882   7.327 -0.3783  0.0726 -0.3552
  134OSM    H4F14552   2.118   2.990   7.329  0.4822 -0.1398 -0.6208
  134OSM    H4G14553   2.188   2.829   7.334  0.8344  2.1849 -0.4720
  134OSM    C5F14554   2.003   2.856   7.442 -0.5546 -0.1653 -0.5029
  134OSM    H5F14555   1.954   2.756   7.432 -1.4903  0.2888 -0.5026
  134OSM    H5G14556   1.929   2.938   7.440 -1.6673 -1.1640 -1.5344
  134OSM    C6F14557   2.080   2.863   7.572  0.2257  0.8659 -0.5993
  134OSM    H6F14558   2.137   2.958   7.570  1.9817  0.0085  2.2875
  134OSM    H6G14559   2.155   2.782   7.574 -1.5206 -0.9105 -2.3247
  134OSM    C7F14560   1.996   2.860   7.694  0.0816 -0.0416 -0.7680
  134OSM    H7F14561   1.910   2.931   7.698  0.7415  0.7655 -0.7113
  134OSM    H7G14562   2.057   2.876   7.786  0.3830 -4.3087 -0.0064
  134OSM    C8F14563   1.930   2.715   7.717 -0.5065  0.9154  0.1160
  134OSM    H8F14564   2.006   2.634   7.709 -0.2059  1.1574  0.4576
  134OSM    H8G14565   1.859   2.714   7.632 -0.0669  1.7904 -0.2759
  134OSM    C9F14566   1.854   2.708   7.855 -0.0137 -0.1084  0.3756
  134OSM    H9F14567   1.752   2.747   7.846 -0.7214 -1.7909  0.6873
  134OSM   C10F14568   1.910   2.676   7.974 -0.2532  0.2021 -0.1157
  134OSM   H10F14569   1.850   2.678   8.066  0.7037 -0.7638  0.5652
  134OSM   C11F14570   2.055   2.638   8.009  0.0428 -0.2447 -0.4250
  134OSM   H11F14571   2.115   2.660   7.918  0.7187  0.8154  0.2636
  134OSM   H11G14572   2.059   2.527   8.007 -0.2758 -0.2545 -1.8932
  134OSM   C12F14573   2.128   2.696   8.128 -0.1102 -0.6692 -0.9766
  134OSM   H12F14574   2.110   2.804   8.141 -2.6000 -0.9810 -1.3308
  134OSM   H12G14575   2.232   2.690   8.091 -0.5572  2.0537 -3.0142
  134OSM   C13F14576   2.106   2.628   8.267  0.1073  0.3324 -0.0218
  134OSM   H13F14577   2.187   2.675   8.327  0.7636 -0.7294 -0.0449
  134OSM   H13G14578   2.125   2.518   8.267 -0.3559  0.2315 -1.7444
  134OSM   C14F14579   1.965   2.653   8.329 -0.0057 -0.0446  0.1092
  134OSM   H14F14580   1.893   2.576   8.293 -1.5979 -0.8810  4.4798
  134OSM   H14G14581   1.911   2.742   8.290 -2.8008 -1.4034  0.5775
  134OSM   C15F14582   1.962   2.678   8.474  0.7158  0.1910 -0.2702
  134OSM   H15F14583   2.029   2.763   8.497  1.0053 -0.1778  0.2743
  134OSM   H15G14584   2.009   2.595   8.531 -0.1461  0.0231  0.2206
  134OSM   C16F14585   1.817   2.686   8.523  0.6160  0.1151  0.0397
  134OSM   H16F14586   1.773   2.585   8.513  0.8681 -0.1285  1.2111
  134OSM   H16G14587   1.760   2.764   8.468 -2.3166 -0.9991  1.3123
  134OSM   C17F14588   1.808   2.715   8.678  0.4293  0.6699  0.6561
  134OSM   H17F14589   1.856   2.813   8.697  0.7545  0.1898  2.4768
  134OSM   H17G14590   1.875   2.652   8.741  0.3231  1.1947  1.3097
  134OSM   C18F14591   1.660   2.716   8.736 -0.4637  0.0652  0.1667
  134OSM   H18F14592   1.626   2.610   8.741  1.6485 -0.6685  5.1262
  134OSM   H18G14593   1.611   2.778   8.658 -0.8227 -1.0432 -0.5090
  134OSM   H18H14594   1.661   2.773   8.832  0.2284  2.0119 -0.9428
  135OSM      N14595   1.653   2.743   6.041 -0.1623  0.2955 -0.0381
  135OSM    C1514596   1.587   2.751   5.905  0.1707 -0.3229 -0.6568
  135OSM   H15A14597   1.629   2.682   5.834  1.3290 -1.7642  1.3171
  135OSM   H15B14598   1.582   2.852   5.868 -1.4792  0.6721  2.0233
  135OSM   H15C14599   1.488   2.713   5.923  0.8300 -1.5069  0.7239
  135OSM    C1414600   1.631   2.607   6.094 -0.0923  0.0050 -0.3705
  135OSM   H14A14601   1.529   2.575   6.081 -0.4205  1.0203 -0.4197
  135OSM   H14B14602   1.667   2.610   6.196 -2.0075  0.5377  0.3366
  135OSM   H14C14603   1.692   2.531   6.048 -1.5194 -0.9785 -0.7082
  135OSM    C1314604   1.798   2.773   6.037 -0.2626 -0.8244 -0.0708
  135OSM   H13A14605   1.853   2.706   5.972  0.9543  1.6226 -1.7775
  135OSM   H13B14606   1.847   2.793   6.131 -1.6601 -0.2963  0.5625
  135OSM   H13C14607   1.805   2.869   5.987 -3.6416  1.1560  2.8161
  135OSM    C1214608   1.572   2.844   6.132 -0.1151  0.1404  0.6088
  135OSM   H12A14609   1.467   2.826   6.114 -0.1284  0.8332 -0.0588
  135OSM   H12B14610   1.593   2.940   6.089  1.4715  0.2747  1.5965
  135OSM    C1114611   1.597   2.834   6.284  0.0094  0.5233  0.2182
  135OSM   H11A14612   1.698   2.870   6.313  0.7783 -1.6724  0.4229
  135OSM   H11B14613   1.587   2.727   6.309 -1.8911  0.9200  1.3549
  135OSM      P14614   1.408   2.852   6.464 -0.3414  0.4914 -0.3006
  135OSM    O1314615   1.339   2.966   6.527 -0.0521  0.0130  0.1620
  135OSM    O1414616   1.324   2.745   6.398  0.3513  0.0059  0.2933
  135OSM    O1114617   1.509   2.794   6.562 -0.0011  0.6161  0.3047
  135OSM    O1214618   1.496   2.913   6.343  0.1434 -0.0071 -0.0473
  135OSM    C1S14619   1.627   2.851   6.621  0.0725  0.7802  0.6482
  135OSM    H1S14620   1.637   2.953   6.578 -0.2548  0.9417  0.9476
  135OSM    H1T14621   1.717   2.791   6.596 -0.8324 -0.0334 -0.7985
  135OSM     NF14622   1.714   2.944   6.831 -0.0957 -0.7740 -0.1112
  135OSM    HNF14623   1.799   2.907   6.866  0.6700 -0.5183 -1.6333
  135OSM    C2S14624   1.610   2.859   6.783  0.1633  0.0745  0.5984
  135OSM    H2S14625   1.513   2.909   6.805 -1.1143 -2.1723  0.3828
  135OSM    C3S14626   1.610   2.714   6.846 -0.2191 -0.0646 -0.8935
  135OSM    H3S14627   1.712   2.676   6.826 -0.1078  0.5985 -1.6398
  135OSM     O314628   1.514   2.627   6.780 -0.2777  0.3941  0.1691
  135OSM    HO314629   1.494   2.674   6.699  1.1287  1.9060  0.6388
  135OSM    C4S14630   1.590   2.728   6.991  0.2147  0.9766  0.0967
  135OSM    H4S14631   1.683   2.717   7.048  0.3595  1.2403 -0.0902
  135OSM    C5S14632   1.463   2.726   7.041 -0.1095  0.2914 -0.1228
  135OSM    H5S14633   1.382   2.708   6.968  1.5451 -0.5619 -1.8581
  135OSM    C6S14634   1.430   2.739   7.188  0.3842 -0.7490  0.1071
  135OSM    H6S14635   1.373   2.646   7.213  0.6277 -0.8354  0.3397
  135OSM    H6T14636   1.359   2.823   7.204  2.0737  0.8211 -0.3665
  135OSM    C7S14637   1.548   2.750   7.295  0.9779  0.3498  0.4319
  135OSM    H7S14638   1.622   2.820   7.251  0.5945 -0.0722 -0.9572
  135OSM    H7T14639   1.595   2.649   7.299 -1.3686 -0.9790 -1.7281
  135OSM    C8S14640   1.497   2.793   7.431 -0.1242  0.3992 -0.1379
  135OSM    H8S14641   1.437   2.886   7.426  0.2324  0.6213 -0.3059
  135OSM    H8T14642   1.572   2.805   7.511 -0.0639 -1.0443  0.0510
  135OSM    C9S14643   1.405   2.687   7.501 -0.8895 -0.0935 -0.5235
  135OSM    H9S14644   1.457   2.589   7.493 -1.5939 -1.0022  3.7991
  135OSM    H9T14645   1.309   2.680   7.446  0.3767  0.8597 -2.9830
  135OSM   C10S14646   1.387   2.705   7.654  0.2172  0.7324  0.7482
  135OSM   H10S14647   1.480   2.679   7.709  1.4371  1.9508 -0.6317
  135OSM   H10T14648   1.309   2.638   7.695 -0.6113  1.1062 -0.1918
  135OSM   C11S14649   1.363   2.847   7.698  0.1801  0.1853 -0.1701
  135OSM   H11S14650   1.256   2.859   7.727 -0.1409 -2.4430  0.0741
  135OSM   H11T14651   1.376   2.928   7.624 -0.4591  0.4015 -0.0511
  135OSM   C12S14652   1.457   2.889   7.813 -0.1331 -0.3075 -0.2066
  135OSM   H12S14653   1.472   2.999   7.810  3.4759 -0.5834  2.2369
  135OSM   H12T14654   1.556   2.847   7.787 -0.7592 -0.4101 -2.6481
  135OSM   C13S14655   1.408   2.840   7.952 -0.0067  0.4585  0.0625
  135OSM   H13S14656   1.389   2.732   7.932  1.6784 -0.0220  0.8651
  135OSM   H13T14657   1.314   2.893   7.980  0.0790  1.1281 -0.8631
  135OSM   C14S14658   1.515   2.851   8.063 -0.1452 -0.3317 -0.1018
  135OSM   H14S14659   1.565   2.948   8.041 -0.3840 -0.4370 -1.1411
  135OSM   H14T14660   1.597   2.777   8.054 -1.0333 -1.3792  0.2009
  135OSM   C15S14661   1.458   2.858   8.203  0.0347  0.6632  0.1147
  135OSM   H15S14662   1.371   2.926   8.212  1.1309  2.0079  0.8386
  135OSM   H15T14663   1.534   2.890   8.277  0.8055  3.0492 -1.6110
  135OSM   C16S14664   1.426   2.722   8.254 -0.3620  0.1921  0.1395
  135OSM   H16S14665   1.514   2.659   8.229  0.5171  0.4464  2.3617
  135OSM   H16T14666   1.348   2.678   8.188 -1.1076 -0.2226  1.2664
  135OSM   C17S14667   1.385   2.722   8.399 -0.3990  0.6768 -0.4277
  135OSM   H17S14668   1.276   2.742   8.400 -0.0254  3.0295  0.5851
  135OSM   H17T14669   1.415   2.814   8.453 -0.4942  1.1160 -1.1106
  135OSM   C18S14670   1.432   2.600   8.479 -0.4842 -0.1567 -0.2918
  135OSM   H18S14671   1.403   2.605   8.586 -1.3815 -1.0648 -0.4836
  135OSM   H18T14672   1.543   2.600   8.485 -0.4886 -2.5400  0.6570
  135OSM   H18U14673   1.406   2.506   8.427 -0.0644 -0.8328  0.6920
  135OSM    C1F14674   1.706   3.077   6.810  0.1025 -0.5580 -0.0703
  135OSM     OF14675   1.611   3.130   6.758  0.3407  0.6304 -0.1649
  135OSM    C2F14676   1.819   3.167   6.853  0.1405  0.0217  0.0224
  135OSM    H2F14677   1.872   3.198   6.760  2.0496 -0.7135  0.8152
  135OSM    H2G14678   1.883   3.096   6.910 -0.9728 -0.1340  1.1066
  135OSM    C3F14679   1.772   3.282   6.941  0.1995  0.2592  0.3218
  135OSM    H3F14680   1.695   3.344   6.890  1.2956  1.5405  0.1507
  135OSM    H3G14681   1.860   3.348   6.958 -0.9762  2.0895 -0.4261
  135OSM    C4F14682   1.705   3.236   7.074  0.1373 -0.1254 -0.6988
  135OSM    H4F14683   1.760   3.152   7.124 -0.3016  0.7577  1.3925
  135OSM    H4G14684   1.594   3.226   7.071 -0.0395  0.6547  1.3778
  135OSM    C5F14685   1.722   3.351   7.181  0.2028 -0.6618  1.1538
  135OSM    H5F14686   1.669   3.441   7.144 -0.5336 -0.8246  1.7825
  135OSM    H5G14687   1.829   3.378   7.189  0.6275 -1.5942 -0.6173
  135OSM    C6F14688   1.670   3.316   7.317  0.2075 -0.1908 -0.5645
  135OSM    H6F14689   1.559   3.317   7.307  0.1886  1.7082 -0.4966
  135OSM    H6G14690   1.683   3.406   7.381 -1.9094  0.3165 -0.7780
  135OSM    C7F14691   1.714   3.181   7.373 -0.7873 -0.7865  0.5959
  135OSM    H7F14692   1.823   3.170   7.359 -0.7785  0.1051 -0.1435
  135OSM    H7G14693   1.656   3.102   7.321  0.4999 -0.5967 -1.2300
  135OSM    C8F14694   1.692   3.163   7.523 -0.2409  0.4319 -0.2214
  135OSM    H8F14695   1.771   3.217   7.578  0.9592  0.3600 -1.7885
  135OSM    H8G14696   1.706   3.054   7.540  0.9558  0.5431 -0.3550
  135OSM    C9F14697   1.551   3.206   7.568 -0.0908 -0.0839  0.2738
  135OSM    H9F14698   1.464   3.176   7.507 -0.5127 -1.2268  1.3986
  135OSM   C10F14699   1.529   3.285   7.670  0.2742  0.0482 -0.1920
  135OSM   H10F14700   1.423   3.302   7.694  0.5355  1.4427  0.0356
  135OSM   C11F14701   1.635   3.352   7.761 -0.4564  0.9655  0.2932
  135OSM   H11F14702   1.616   3.461   7.772 -2.6146  1.1240 -3.3205
  135OSM   H11G14703   1.741   3.340   7.729 -0.6946 -1.6586  0.2926
  135OSM   C12F14704   1.624   3.280   7.901 -0.0568 -0.8526  0.1934
  135OSM   H12F14705   1.721   3.294   7.953  0.3083  2.6153 -1.1531
  135OSM   H12G14706   1.601   3.173   7.887  0.3507 -0.7349 -1.7023
  135OSM   C13F14707   1.516   3.332   7.999 -0.3727  0.2901  0.3723
  135OSM   H13F14708   1.411   3.306   7.975 -0.0236 -0.5473 -0.2731
  135OSM   H13G14709   1.538   3.441   7.989  2.1146 -0.1573  0.2023
  135OSM   C14F14710   1.540   3.283   8.138 -0.8161  0.2365 -0.1256
  135OSM   H14F14711   1.649   3.300   8.153  0.1421 -1.8416 -3.5119
  135OSM   H14G14712   1.526   3.173   8.143 -0.6188  0.2784  2.3934
  135OSM   C15F14713   1.460   3.353   8.250  0.5256  0.3857 -0.5002
  135OSM   H15F14714   1.355   3.325   8.228  0.5096  1.2693 -1.6544
  135OSM   H15G14715   1.461   3.463   8.261  0.2594  0.2470  1.1111
  135OSM   C16F14716   1.492   3.297   8.395  0.4025 -0.1110  0.1254
  135OSM   H16F14717   1.496   3.186   8.396  1.3937 -0.0837  0.4958
  135OSM   H16G14718   1.406   3.326   8.460 -0.1791  1.7750 -1.4138
  135OSM   C17F14719   1.625   3.341   8.452 -0.4644 -0.0763 -0.4414
  135OSM   H17F14720   1.610   3.443   8.492  0.9086  0.4844 -1.2571
  135OSM   H17G14721   1.710   3.351   8.381  1.1151  2.2445  1.6169
  135OSM   C18F14722   1.675   3.252   8.569 -0.0836  0.0941 -0.6354
  135OSM   H18F14723   1.752   3.306   8.628 -2.5911  1.9644  1.1411
  135OSM   H18G14724   1.721   3.155   8.541  1.6380  0.6135  0.2510
  135OSM   H18H14725   1.587   3.225   8.632  0.7888  1.4982  1.3096
  136OSM      N14726   6.573   3.748   5.913 -0.6614 -0.2585 -0.6359
  136OSM    C1514727   6.568   3.681   5.785  0.0037  0.2198  0.3315
  136OSM   H15A14728   6.652   3.704   5.721  0.3602  1.3861  1.1809
  136OSM   H15B14729   6.476   3.698   5.731  0.4107 -2.3636 -1.3324
  136OSM   H15C14730   6.574   3.574   5.797 -0.1231  0.0543 -0.8758
  136OSM    C1414731   6.467   3.691   6.003 -0.7528  0.0821 -0.4342
  136OSM   H14A14732   6.472   3.717   6.108  1.2358  0.0126 -0.4752
  136OSM   H14B14733   6.472   3.583   5.993 -2.7240  0.0847 -2.0597
  136OSM   H14C14734   6.373   3.725   5.962 -0.4590 -0.1628 -1.3229
  136OSM    C1314735   6.707   3.713   5.971  0.5657  0.0350 -0.3159
  136OSM   H13A14736   6.713   3.605   5.970 -1.9827 -0.1593 -1.0762
  136OSM   H13B14737   6.725   3.751   6.070  0.4475  0.4557 -0.4569
  136OSM   H13C14738   6.786   3.769   5.923  0.2956  0.2699 -0.4920
  136OSM    C1214739   6.569   3.897   5.902 -0.5736 -0.4244 -0.1517
  136OSM   H12A14740   6.491   3.920   5.830 -0.1340  2.2068  0.1054
  136OSM   H12B14741   6.656   3.927   5.845 -0.7718  3.1247  1.1400
  136OSM    C1114742   6.558   3.974   6.029  0.0952  0.3494 -0.8109
  136OSM   H11A14743   6.471   3.943   6.090  1.3119 -2.7961 -0.4991
  136OSM   H11B14744   6.530   4.080   6.009 -0.5268  0.6669  1.4233
  136OSM      P14745   6.801   4.065   6.084  0.1131  0.2033 -0.0228
  136OSM    O1314746   6.900   3.993   5.996  1.1857 -0.5192 -0.5406
  136OSM    O1414747   6.754   4.193   6.027 -0.0469 -0.3644  0.1053
  136OSM    O1114748   6.867   4.093   6.223  0.1014  0.3629 -0.2214
  136OSM    O1214749   6.678   3.971   6.114 -0.0117 -0.0245  0.3506
  136OSM    C1S14750   6.847   4.214   6.303  0.4834 -0.3551  0.2418
  136OSM    H1S14751   6.739   4.238   6.295  0.5006 -0.3040  0.1570
  136OSM    H1T14752   6.902   4.300   6.260  0.0320 -0.3699 -0.3707
  136OSM     NF14753   6.822   4.281   6.533  0.5856 -0.6427  0.4360
  136OSM    HNF14754   6.866   4.365   6.566  0.7563 -1.3168  2.0208
  136OSM    C2S14755   6.897   4.192   6.450 -0.2867  0.0513 -0.4962
  136OSM    H2S14756   6.868   4.087   6.473 -0.8899  0.4390  0.5923
  136OSM    C3S14757   7.047   4.214   6.458  0.3773 -0.6445  0.5426
  136OSM    H3S14758   7.073   4.318   6.428  0.0891 -0.4199  1.0681
  136OSM     O314759   7.131   4.135   6.371  0.1719 -0.1745 -0.3242
  136OSM    HO314760   7.066   4.089   6.316 -0.6121  1.3278 -0.7287
  136OSM    C4S14761   7.098   4.200   6.603  0.5995 -0.4741 -0.0470
  136OSM    H4S14762   7.085   4.288   6.668 -1.2850 -1.4159  0.9432
  136OSM    C5S14763   7.147   4.085   6.660  0.3482  0.1947 -0.3241
  136OSM    H5S14764   7.146   3.999   6.592 -0.9434 -2.4051  2.6848
  136OSM    C6S14765   7.198   4.064   6.799 -0.1397  0.5934  0.9467
  136OSM    H6S14766   7.308   4.071   6.810 -0.1880 -1.3878  3.5324
  136OSM    H6T14767   7.173   3.957   6.816  0.8925 -0.0374 -1.1784
  136OSM    C7S14768   7.127   4.150   6.903  0.4279 -0.7289  0.5205
  136OSM    H7S14769   7.017   4.144   6.888  0.4438 -0.4063  0.2593
  136OSM    H7T14770   7.152   4.258   6.896 -0.6848 -0.5264 -0.7556
  136OSM    C8S14771   7.156   4.106   7.047 -0.1334 -0.4644 -0.2442
  136OSM    H8S14772   7.265   4.109   7.072 -0.2857  2.3534  0.4287
  136OSM    H8T14773   7.128   3.999   7.056  0.6768 -0.6234  0.6604
  136OSM    C9S14774   7.079   4.180   7.157  0.0784  0.7723  0.5392
  136OSM    H9S14775   6.977   4.202   7.118  0.6210  0.8334 -0.8866
  136OSM    H9T14776   7.126   4.280   7.146  0.8623  0.4586  0.9813
  136OSM   C10S14777   7.088   4.116   7.293 -0.2031 -0.0963 -0.0040
  136OSM   H10S14778   7.191   4.104   7.331  0.1232  1.0933 -0.4909
  136OSM   H10T14779   7.041   4.015   7.294 -0.5437  0.0496  1.2932
  136OSM   C11S14780   7.020   4.187   7.413 -0.3815  0.3453 -0.2720
  136OSM   H11S14781   6.917   4.204   7.374 -1.0504 -1.2978  0.6839
  136OSM   H11T14782   7.062   4.289   7.430 -1.5208  1.1075 -1.6965
  136OSM   C12S14783   7.004   4.103   7.542 -0.7418  0.0780  0.5361
  136OSM   H12S14784   7.101   4.100   7.595 -0.3645 -0.1892 -0.1483
  136OSM   H12T14785   6.989   3.998   7.508 -0.8738  0.5837 -1.0937
  136OSM   C13S14786   6.902   4.141   7.648 -0.3349 -0.3037 -0.3318
  136OSM   H13S14787   6.909   4.071   7.734  1.2270 -0.2942 -0.4261
  136OSM   H13T14788   6.800   4.136   7.605 -0.2420  1.8857 -0.9190
  136OSM   C14S14789   6.931   4.293   7.693  0.3531 -0.0495  0.6633
  136OSM   H14S14790   6.900   4.362   7.612 -0.1936  0.5880  1.3903
  136OSM   H14T14791   7.037   4.293   7.725  0.9928 -4.1867 -0.8753
  136OSM   C15S14792   6.838   4.325   7.807  0.1091 -0.3076 -0.4416
  136OSM   H15S14793   6.735   4.326   7.764  0.8906 -0.3187 -2.4186
  136OSM   H15T14794   6.857   4.431   7.833  1.4272 -1.1815  2.4965
  136OSM   C16S14795   6.858   4.259   7.940 -0.3815 -0.5145 -0.1577
  136OSM   H16S14796   6.963   4.287   7.960 -0.4654  1.1602 -1.8121
  136OSM   H16T14797   6.851   4.148   7.950  0.8692 -0.5534  0.4694
  136OSM   C17S14798   6.767   4.321   8.047 -0.0915 -0.6080 -0.2301
  136OSM   H17S14799   6.659   4.304   8.023 -0.1074 -1.8374  0.6051
  136OSM   H17T14800   6.789   4.427   8.069 -0.7411 -0.6151  0.4955
  136OSM   C18S14801   6.786   4.251   8.181 -0.3633  0.2276 -0.0992
  136OSM   H18S14802   6.890   4.241   8.216  0.6039  0.1379 -2.7437
  136OSM   H18T14803   6.745   4.149   8.169 -0.1096  0.1833 -0.6200
  136OSM   H18U14804   6.728   4.313   8.253 -1.0623  1.1479 -1.3918
  136OSM    C1F14805   6.699   4.263   6.568 -0.1129  0.3044  0.6229
  136OSM     OF14806   6.647   4.153   6.542 -0.0066 -0.2884  0.1013
  136OSM    C2F14807   6.628   4.370   6.624 -0.3315  0.4462  0.2926
  136OSM    H2F14808   6.525   4.364   6.582 -0.7334  1.2063  1.1459
  136OSM    H2G14809   6.665   4.468   6.587 -2.6238  1.2653  0.0291
  136OSM    C3F14810   6.624   4.354   6.779  0.5787 -0.3083 -0.3004
  136OSM    H3F14811   6.724   4.313   6.805  1.9577  2.5104 -0.7597
  136OSM    H3G14812   6.543   4.282   6.806  0.7549 -0.6117 -0.5717
  136OSM    C4F14813   6.599   4.488   6.847  0.5040 -0.1092 -1.1217
  136OSM    H4F14814   6.498   4.518   6.813 -1.5536 -1.2594  3.2559
  136OSM    H4G14815   6.670   4.569   6.821 -1.4613  2.6042  1.3357
  136OSM    C5F14816   6.591   4.490   6.999 -0.8074  0.0874 -0.0287
  136OSM    H5F14817   6.695   4.470   7.035 -1.5579 -2.7045  0.8771
  136OSM    H5G14818   6.526   4.409   7.040 -0.7414 -0.0746 -0.2422
  136OSM    C6F14819   6.537   4.623   7.051 -0.1535  0.0533  0.5059
  136OSM    H6F14820   6.435   4.632   7.009 -0.1782 -1.8595  0.0969
  136OSM    H6G14821   6.595   4.713   7.021  0.9455 -0.6718  0.3702
  136OSM    C7F14822   6.528   4.617   7.201 -0.4214  0.0923  0.3135
  136OSM    H7F14823   6.628   4.616   7.249 -0.1513  2.3566 -0.0844
  136OSM    H7G14824   6.479   4.523   7.236 -2.4588  1.1676  0.5303
  136OSM    C8F14825   6.466   4.743   7.257 -0.2327  0.4739 -0.0144
  136OSM    H8F14826   6.517   4.829   7.210 -0.0846  0.7788  0.6901
  136OSM    H8G14827   6.490   4.757   7.365 -0.7863 -0.6840  0.2822
  136OSM    C9F14828   6.319   4.757   7.233  0.4501  0.8738  0.3131
  136OSM    H9F14829   6.277   4.706   7.146 -0.6182  1.1152  0.6779
  136OSM   C10F14830   6.238   4.824   7.315 -0.3278 -0.4573  0.4845
  136OSM   H10F14831   6.133   4.836   7.284 -1.0917 -0.1263  2.9639
  136OSM   C11F14832   6.271   4.895   7.440  0.8288 -0.8057 -0.9546
  136OSM   H11F14833   6.272   4.999   7.403  0.5652 -1.1654 -2.0262
  136OSM   H11G14834   6.368   4.863   7.484  0.2240 -0.3438  0.7839
  136OSM   C12F14835   6.161   4.872   7.542 -0.5443 -0.4045  0.0421
  136OSM   H12F14836   6.128   4.767   7.545  0.4847 -0.7138  2.8163
  136OSM   H12G14837   6.071   4.931   7.512 -1.0210 -0.1642  1.8596
  136OSM   C13F14838   6.200   4.913   7.687  0.3759 -0.0251  0.7608
  136OSM   H13F14839   6.224   5.022   7.686  1.6041 -0.2511 -0.9851
  136OSM   H13G14840   6.293   4.857   7.711  1.0665  1.1430  0.8809
  136OSM   C14F14841   6.100   4.883   7.802 -0.6649 -0.2376 -0.2281
  136OSM   H14F14842   6.041   4.795   7.769 -0.8320  0.4136 -1.7166
  136OSM   H14G14843   6.027   4.965   7.818  0.3178  0.6949 -0.4055
  136OSM   C15F14844   6.174   4.871   7.936 -0.1326 -0.4019 -0.0082
  136OSM   H15F14845   6.231   4.964   7.960 -1.4052  0.0504  1.3305
  136OSM   H15G14846   6.240   4.782   7.939  2.0849  1.1693  1.9597
  136OSM   C16F14847   6.074   4.860   8.051  0.5539  0.3103 -0.7221
  136OSM   H16F14848   5.984   4.801   8.023  0.0932 -0.5225  2.1896
  136OSM   H16G14849   6.031   4.959   8.077 -2.1575 -1.4716  2.2811
  136OSM   C17F14850   6.113   4.785   8.176  0.2941 -0.6339 -0.6960
  136OSM   H17F14851   6.202   4.830   8.226 -0.6328  1.7861 -1.0467
  136OSM   H17G14852   6.144   4.681   8.154  0.0928 -0.8051 -0.1818
  136OSM   C18F14853   5.999   4.775   8.273  0.7017 -0.1295 -0.0869
  136OSM   H18F14854   5.909   4.718   8.242 -0.4374 -0.5100  3.5134
  136OSM   H18G14855   5.960   4.874   8.304 -1.1449 -0.7511 -0.3018
  136OSM   H18H14856   6.045   4.737   8.366  0.8251  2.2553  0.8846
  137OSM      N14857   2.893   2.185   6.233 -0.2480 -0.3749  0.0143
  137OSM    C1514858   2.978   2.154   6.119 -0.3213  0.0291  0.1061
  137OSM   H15A14859   2.920   2.084   6.061 -3.0846  0.0030  2.6969
  137OSM   H15B14860   3.077   2.128   6.153 -0.1075 -1.7178 -1.6597
  137OSM   H15C14861   2.989   2.238   6.051 -1.9036  0.7164  0.6451
  137OSM    C1414862   2.952   2.298   6.317  0.3807 -0.1373 -0.8080
  137OSM   H14A14863   2.993   2.380   6.259  1.6812  0.6958  1.1689
  137OSM   H14B14864   3.031   2.252   6.374 -0.6066 -0.5972  0.2123
  137OSM   H14C14865   2.883   2.345   6.385  0.0260 -2.2369  0.3679
  137OSM    C1314866   2.758   2.221   6.186 -0.7938 -0.4244 -0.2226
  137OSM   H13A14867   2.703   2.151   6.124 -2.7083  2.6668 -2.3110
  137OSM   H13B14868   2.758   2.310   6.125  1.9340 -1.3807 -1.7789
  137OSM   H13C14869   2.691   2.235   6.269  1.4361  0.6134  1.5038
  137OSM    C1214870   2.878   2.061   6.322  0.2408  0.4964 -0.0716
  137OSM   H12A14871   2.829   1.988   6.259  0.2319  0.1812  0.2920
  137OSM   H12B14872   2.817   2.098   6.403  1.3950  2.3077  0.0304
  137OSM    C1114873   3.006   1.997   6.390  0.6205 -0.5132  0.2455
  137OSM   H11A14874   3.078   1.961   6.313  1.3937  0.6889  0.3731
  137OSM   H11B14875   2.976   1.904   6.442  0.9422 -1.1841 -0.7361
  137OSM      P14876   3.201   2.062   6.559  0.2418 -0.2219 -0.3516
  137OSM    O1314877   3.322   2.099   6.479 -0.4196  0.0374  0.2193
  137OSM    O1414878   3.187   2.127   6.694 -0.3539 -0.0807  0.3571
  137OSM    O1114879   3.192   1.909   6.563  0.0728  0.1555  0.4130
  137OSM    O1214880   3.083   2.095   6.469  0.1493  0.1533 -0.7410
  137OSM    C1S14881   3.293   1.834   6.623 -0.6274  0.5846 -0.0559
  137OSM    H1S14882   3.390   1.890   6.625 -0.2293  0.1145 -2.9465
  137OSM    H1T14883   3.304   1.745   6.559 -0.5238 -0.8671  1.8826
  137OSM     NF14884   3.390   1.736   6.820  0.3725  0.1616  0.4744
  137OSM    HNF14885   3.392   1.636   6.820 -0.3296  0.1261  1.7378
  137OSM    C2S14886   3.265   1.785   6.769 -0.2022 -1.8913 -0.5421
  137OSM    H2S14887   3.236   1.872   6.831  1.2724  0.2791 -2.7536
  137OSM    C3S14888   3.145   1.684   6.773  0.0590 -0.6282 -0.2357
  137OSM    H3S14889   3.175   1.593   6.716  1.9015 -1.4788  1.9478
  137OSM     O314890   3.023   1.742   6.719 -0.5253  0.4734  0.3705
  137OSM    HO314891   3.063   1.802   6.656  0.8954 -1.5821 -0.7775
  137OSM    C4S14892   3.111   1.641   6.908 -0.9130 -0.3989  0.3646
  137OSM    H4S14893   3.110   1.722   6.983 -0.0747 -1.0141  1.0562
  137OSM    C5S14894   3.092   1.517   6.951  0.9018 -0.4566  0.6768
  137OSM    H5S14895   3.093   1.429   6.885 -0.0003 -1.4075  1.8866
  137OSM    C6S14896   3.060   1.478   7.089 -0.5703 -0.0143 -0.2769
  137OSM    H6S14897   3.137   1.412   7.134  0.2183  0.2615 -1.1844
  137OSM    H6T14898   2.957   1.435   7.090 -1.0658  0.8442  4.4110
  137OSM    C7S14899   3.041   1.589   7.200 -0.0619  0.0539 -0.4563
  137OSM    H7S14900   2.964   1.660   7.163 -0.3756 -0.1751 -0.2476
  137OSM    H7T14901   3.141   1.635   7.212  0.2659 -0.6452 -0.4783
  137OSM    C8S14902   2.998   1.517   7.333 -0.5997  0.6580  0.2883
  137OSM    H8S14903   3.033   1.587   7.412 -0.8937 -1.4931  2.4660
  137OSM    H8T14904   3.041   1.417   7.357 -2.4468 -0.2325  0.0928
  137OSM    C9S14905   2.845   1.495   7.333  0.6228 -0.4114 -0.1685
  137OSM    H9S14906   2.803   1.421   7.261  1.9031 -0.9278 -0.4133
  137OSM    H9T14907   2.805   1.590   7.293 -2.3719 -2.7844 -3.4924
  137OSM   C10S14908   2.784   1.475   7.468  0.5149  0.0194 -0.5657
  137OSM   H10S14909   2.812   1.373   7.503  1.8594 -0.6190 -3.2089
  137OSM   H10T14910   2.674   1.470   7.454  0.3259  2.0918 -0.0388
  137OSM   C11S14911   2.809   1.589   7.565  0.3595 -0.2166  0.1823
  137OSM   H11S14912   2.750   1.677   7.533  2.6977  1.2174 -0.4626
  137OSM   H11T14913   2.913   1.626   7.555 -0.0267  0.4398 -1.7653
  137OSM   C12S14914   2.796   1.547   7.710 -0.4057  0.0828  0.1742
  137OSM   H12S14915   2.857   1.455   7.721 -0.2598  0.0782 -0.6537
  137OSM   H12T14916   2.692   1.516   7.738 -0.9372  0.5167 -1.2675
  137OSM   C13S14917   2.833   1.647   7.822 -0.0025  0.3894 -0.3388
  137OSM   H13S14918   2.775   1.741   7.818 -0.3372  0.1775 -0.5243
  137OSM   H13T14919   2.942   1.666   7.812  0.2605  0.5193  2.2023
  137OSM   C14S14920   2.838   1.595   7.968  0.0160  0.1813  0.9789
  137OSM   H14S14921   2.852   1.687   8.029  1.4924  0.9239 -0.3856
  137OSM   H14T14922   2.916   1.517   7.980  0.8627  0.5034 -1.7341
  137OSM   C15S14923   2.703   1.527   8.013  0.4521 -0.6828  0.1965
  137OSM   H15S14924   2.686   1.445   7.940 -0.9653 -0.0945 -0.1549
  137OSM   H15T14925   2.621   1.600   7.997 -1.4292 -2.8870 -0.7507
  137OSM   C16S14926   2.700   1.482   8.164  0.4170  0.0477  0.0857
  137OSM   H16S14927   2.723   1.575   8.220 -0.6647  0.2534  0.2236
  137OSM   H16T14928   2.775   1.408   8.199 -1.0237 -0.2625  2.8896
  137OSM   C17S14929   2.567   1.440   8.216  0.6625  0.2329 -0.0374
  137OSM   H17S14930   2.493   1.523   8.212 -0.1400 -0.5188 -3.0784
  137OSM   H17T14931   2.580   1.412   8.323  0.3973 -0.3358 -0.1541
  137OSM   C18S14932   2.497   1.331   8.141 -0.2596  0.5606  0.3778
  137OSM   H18S14933   2.451   1.361   8.044 -2.9500 -1.0683  1.0514
  137OSM   H18T14934   2.420   1.281   8.203 -1.0483  0.6583 -0.5044
  137OSM   H18U14935   2.569   1.251   8.114 -2.2174 -0.7023 -1.3408
  137OSM    C1F14936   3.492   1.813   6.861 -0.8579 -0.0473 -0.4477
  137OSM     OF14937   3.487   1.933   6.856  0.4742  0.0813 -0.0826
  137OSM    C2F14938   3.618   1.737   6.903 -0.1198 -0.0369 -0.7993
  137OSM    H2F14939   3.689   1.739   6.817  0.4286  2.3621 -0.3599
  137OSM    H2G14940   3.592   1.633   6.929 -0.0542 -0.4235 -2.1639
  137OSM    C3F14941   3.686   1.794   7.031  0.0508 -0.9966  0.8046
  137OSM    H3F14942   3.724   1.892   6.995 -1.3112 -0.5574  0.4689
  137OSM    H3G14943   3.763   1.723   7.067 -1.0444 -2.3554  0.5483
  137OSM    C4F14944   3.600   1.836   7.159  0.0510  0.5926 -0.0684
  137OSM    H4F14945   3.545   1.925   7.123  0.5336  1.3320  0.9886
  137OSM    H4G14946   3.671   1.853   7.243  1.1392 -1.7587 -0.4255
  137OSM    C5F14947   3.509   1.728   7.226 -0.5448 -0.5287  0.0472
  137OSM    H5F14948   3.571   1.636   7.227 -0.9252 -0.7997 -0.7133
  137OSM    H5G14949   3.425   1.705   7.156 -1.1907 -0.2649  0.7221
  137OSM    C6F14950   3.467   1.780   7.360  1.0338  0.5903 -0.8759
  137OSM    H6F14951   3.403   1.870   7.346 -0.4843 -0.1979  0.6930
  137OSM    H6G14952   3.551   1.818   7.422  2.6925 -0.6996 -2.2423
  137OSM    C7F14953   3.388   1.687   7.448  0.1205  0.5624 -0.2216
  137OSM    H7F14954   3.461   1.609   7.482  1.7021  1.8073 -0.6452
  137OSM    H7G14955   3.311   1.642   7.383 -0.1291  2.4283 -1.2889
  137OSM    C8F14956   3.327   1.761   7.567 -0.2887 -1.3727  0.0133
  137OSM    H8F14957   3.291   1.857   7.522  1.6314 -0.0889  1.0890
  137OSM    H8G14958   3.405   1.797   7.637  0.2145 -0.8917 -0.7713
  137OSM    C9F14959   3.213   1.685   7.631 -0.5296  1.2983  0.8956
  137OSM    H9F14960   3.116   1.688   7.580 -0.2991 -3.9037 -0.4188
  137OSM   C10F14961   3.216   1.616   7.748 -0.5756 -0.7819 -0.3464
  137OSM   H10F14962   3.127   1.569   7.791  0.1346  0.6141  2.9534
  137OSM   C11F14963   3.341   1.604   7.835 -0.1781  0.5536  0.2974
  137OSM   H11F14964   3.424   1.661   7.789  0.1999 -0.8988 -0.9190
  137OSM   H11G14965   3.365   1.495   7.838  1.0222  0.7226 -1.5569
  137OSM   C12F14966   3.331   1.669   7.976  0.2368  0.3404  0.1629
  137OSM   H12F14967   3.286   1.770   7.961 -2.0051 -0.9008 -2.5413
  137OSM   H12G14968   3.435   1.691   8.007  0.4507  1.0110 -0.9650
  137OSM   C13F14969   3.256   1.577   8.067  0.7745  0.2559  0.4906
  137OSM   H13F14970   3.294   1.473   8.058  1.3938  0.6161 -1.6433
  137OSM   H13G14971   3.153   1.550   8.036  1.3694 -1.1404 -0.4059
  137OSM   C14F14972   3.260   1.617   8.214  0.2678 -0.0190  0.8663
  137OSM   H14F14973   3.222   1.720   8.231 -1.4522 -0.2705 -1.1940
  137OSM   H14G14974   3.360   1.610   8.262  0.5045 -0.4091  0.3191
  137OSM   C15F14975   3.172   1.535   8.304  0.1183 -0.1464 -0.0513
  137OSM   H15F14976   3.192   1.428   8.283 -1.2891 -0.3253 -0.5965
  137OSM   H15G14977   3.063   1.553   8.290  0.0345 -0.0445  0.6635
  137OSM   C16F14978   3.201   1.569   8.454 -0.6121 -0.5163  0.7692
  137OSM   H16F14979   3.188   1.677   8.479  0.9760  0.5255 -2.3797
  137OSM   H16G14980   3.306   1.537   8.472 -0.0840 -0.3444 -1.5966
  137OSM   C17F14981   3.119   1.491   8.556  0.2577 -0.2258 -0.1048
  137OSM   H17F14982   3.011   1.502   8.533  0.6052  3.0335 -0.6488
  137OSM   H17G14983   3.122   1.525   8.662  0.0242 -0.4328 -0.0299
  137OSM   C18F14984   3.149   1.337   8.570  0.5816  0.2286 -0.6600
  137OSM   H18F14985   3.048   1.292   8.582 -1.2320  4.1493  0.4402
  137OSM   H18G14986   3.222   1.305   8.646 -2.4306  0.6621  2.7067
  137OSM   H18H14987   3.176   1.302   8.468 -0.8310  2.2891 -1.8449
  138OSM      N14988   3.733   5.317   5.938 -0.1205  0.3953  0.0164
  138OSM    C1514989   3.630   5.249   5.853 -0.1190  0.6679  0.2187
  138OSM   H15A14990   3.658   5.230   5.750 -0.6901 -0.7188  0.2987
  138OSM   H15B14991   3.532   5.293   5.863 -0.3288  0.0419  0.9630
  138OSM   H15C14992   3.628   5.144   5.879  1.5027 -0.5633 -3.7724
  138OSM    C1414993   3.869   5.267   5.899  0.0846  0.3949  0.0439
  138OSM   H14A14994   3.876   5.260   5.792  4.2066  1.7215  0.0500
  138OSM   H14B14995   3.872   5.171   5.949 -0.1949  1.0383  1.3524
  138OSM   H14C14996   3.945   5.331   5.942  1.0727 -2.0195  2.1843
  138OSM    C1314997   3.729   5.466   5.900 -0.1786  0.5405 -0.1292
  138OSM   H13A14998   3.650   5.519   5.950  1.2009  1.9144  0.6967
  138OSM   H13B14999   3.737   5.481   5.794 -1.4347 -0.8193 -0.4389
  138OSM   H13C15000   3.810   5.521   5.947  0.0307 -0.1923  0.3777
  138OSM    C1215001   3.713   5.304   6.087 -0.8015 -0.8385 -0.2323
  138OSM   H12A15002   3.615   5.343   6.109 -0.1917  1.5432 -1.4665
  138OSM   H12B15003   3.779   5.367   6.146 -2.7311  0.3443  0.7750
  138OSM    C1115004   3.712   5.162   6.149 -0.2704  0.5556 -0.2301
  138OSM   H11A15005   3.640   5.107   6.085  2.4625 -2.2421 -1.1497
  138OSM   H11B15006   3.682   5.170   6.256 -1.5701 -1.9769 -0.3419
  138OSM      P15007   3.850   4.944   6.153 -0.2072 -0.0020 -0.2881
  138OSM    O1315008   3.726   4.871   6.119  0.0135  0.1454 -0.2827
  138OSM    O1415009   3.983   4.902   6.100  0.3897  0.0721 -0.0597
  138OSM    O1115010   3.853   4.950   6.304 -0.1719 -0.2397 -0.4248
  138OSM    O1215011   3.838   5.098   6.128  0.0163 -0.2291  0.4696
  138OSM    C1S15012   3.895   4.831   6.382  0.4252 -0.5548  0.2302
  138OSM    H1S15013   4.003   4.808   6.372 -0.1365 -3.0555 -0.9287
  138OSM    H1T15014   3.848   4.738   6.343  0.0939 -0.1414 -0.3614
  138OSM     NF15015   3.881   4.721   6.608  0.0803  0.0059 -0.5578
  138OSM    HNF15016   3.806   4.674   6.654 -0.9652  1.1874 -0.9868
  138OSM    C2S15017   3.848   4.845   6.530  0.5892 -0.1961 -0.5016
  138OSM    H2S15018   3.905   4.933   6.567 -0.2064  0.2811 -0.3769
  138OSM    C3S15019   3.703   4.905   6.539 -0.5604 -0.3758 -0.3938
  138OSM    H3S15020   3.637   4.841   6.477 -0.9836 -2.6184  2.1546
  138OSM     O315021   3.697   5.045   6.489  0.0547 -0.2097 -0.2010
  138OSM    HO315022   3.759   5.051   6.416 -2.2087 -0.5334 -2.2750
  138OSM    C4S15023   3.656   4.888   6.679 -0.0822  0.4456  0.1179
  138OSM    H4S15024   3.578   4.814   6.701  0.2421  1.0346  3.7628
  138OSM    C5S15025   3.704   4.957   6.786 -0.1248  0.0999 -0.1968
  138OSM    H5S15026   3.777   5.039   6.783 -0.5853  0.4912 -1.3023
  138OSM    C6S15027   3.657   4.923   6.927  0.1794 -0.6658  0.6491
  138OSM    H6S15028   3.744   4.872   6.975 -0.0561 -1.8498 -0.1325
  138OSM    H6T15029   3.578   4.846   6.914  1.6186 -2.4035  1.5833
  138OSM    C7S15030   3.619   5.049   7.003  0.6856 -0.1207 -0.4701
  138OSM    H7S15031   3.541   5.101   6.943  0.5019  0.1468 -0.0034
  138OSM    H7T15032   3.711   5.108   7.024  0.8230  0.6645 -2.9647
  138OSM    C8S15033   3.549   5.017   7.137  0.2307  0.8264 -0.4042
  138OSM    H8S15034   3.466   4.951   7.103  1.6422 -1.1136 -0.2720
  138OSM    H8T15035   3.509   5.117   7.165 -1.1948  0.0297  0.4763
  138OSM    C9S15036   3.630   4.953   7.251 -0.3841  0.1561  0.0178
  138OSM    H9S15037   3.720   5.018   7.261 -1.6470  1.8569  0.9758
  138OSM    H9T15038   3.671   4.851   7.233  0.7042 -0.0815  3.2128
  138OSM   C10S15039   3.554   4.965   7.384 -0.5219 -0.3067 -0.2589
  138OSM   H10S15040   3.464   4.900   7.385 -1.2734  0.7071  0.0823
  138OSM   H10T15041   3.527   5.071   7.404  0.8281 -0.0200  0.1553
  138OSM   C11S15042   3.638   4.910   7.501  0.1189 -0.1422 -0.4962
  138OSM   H11S15043   3.732   4.968   7.510 -0.6629  1.4712 -2.0132
  138OSM   H11T15044   3.677   4.810   7.474  0.4618 -0.1606  0.0643
  138OSM   C12S15045   3.569   4.904   7.640  0.0680  0.4505  0.5391
  138OSM   H12S15046   3.482   4.837   7.623  0.6094  0.0333 -0.7074
  138OSM   H12T15047   3.538   5.006   7.671  1.2656  1.2110 -0.6760
  138OSM   C13S15048   3.664   4.847   7.753  0.3937 -0.3850  0.0155
  138OSM   H13S15049   3.763   4.898   7.749  0.0896  0.1342 -1.7488
  138OSM   H13T15050   3.689   4.741   7.731  2.7287 -0.0028  0.5331
  138OSM   C14S15051   3.596   4.871   7.885  0.3137  0.5378  0.4099
  138OSM   H14S15052   3.498   4.818   7.879  0.1597  0.9975 -1.9719
  138OSM   H14T15053   3.587   4.981   7.900  1.9171  0.5800  1.3458
  138OSM   C15S15054   3.679   4.817   8.004  0.1961 -0.2697 -0.3451
  138OSM   H15S15055   3.777   4.869   7.995 -0.4819  0.8680 -1.4757
  138OSM   H15T15056   3.696   4.708   7.989  0.9064 -0.4981  1.8741
  138OSM   C16S15057   3.613   4.834   8.141  1.2792 -0.2984  0.2969
  138OSM   H16S15058   3.650   4.933   8.176  0.1300  0.3954 -0.3650
  138OSM   H16T15059   3.648   4.759   8.214  4.2760 -0.8700 -1.5420
  138OSM   C17S15060   3.456   4.828   8.148 -0.6572 -0.0839  0.4034
  138OSM   H17S15061   3.416   4.732   8.108 -1.3631  0.1651  0.4907
  138OSM   H17T15062   3.431   4.913   8.082  0.4228  0.2990  0.4674
  138OSM   C18S15063   3.386   4.839   8.274 -0.2590  0.4544 -0.1269
  138OSM   H18S15064   3.280   4.869   8.258 -0.4990  1.2186  2.4005
  138OSM   H18T15065   3.426   4.924   8.333 -0.9758 -1.3417  3.2169
  138OSM   H18U15066   3.392   4.742   8.327 -0.4923  0.0753 -0.7924
  138OSM    C1F15067   4.004   4.689   6.634  0.3814  0.0815 -0.0509
  138OSM     OF15068   4.100   4.758   6.624 -0.0945  0.4491  0.1885
  138OSM    C2F15069   4.017   4.548   6.672  0.7986 -0.5401  0.3084
  138OSM    H2F15070   4.072   4.493   6.593  1.3124  1.4264 -0.7853
  138OSM    H2G15071   3.918   4.499   6.679  0.8137 -0.6069  0.0646
  138OSM    C3F15072   4.075   4.522   6.817  0.6787 -0.2156  0.4754
  138OSM    H3F15073   4.178   4.563   6.823 -0.5930  3.1633  2.3112
  138OSM    H3G15074   4.080   4.411   6.820 -1.5087 -0.4720 -1.7135
  138OSM    C4F15075   3.981   4.565   6.935 -0.2469  0.0010 -0.8175
  138OSM    H4F15076   3.889   4.503   6.930  0.0433 -0.7649  1.7877
  138OSM    H4G15077   3.941   4.665   6.909 -0.9234 -0.3369 -1.0843
  138OSM    C5F15078   4.051   4.555   7.074  0.7785  0.2035 -0.3654
  138OSM    H5F15079   4.154   4.585   7.047  0.6080  1.2124  0.0729
  138OSM    H5G15080   4.049   4.447   7.099 -0.5260 -0.1784 -1.9467
  138OSM    C6F15081   3.988   4.648   7.176  0.1169  0.2326  0.2017
  138OSM    H6F15082   3.892   4.612   7.218 -1.1694  0.3211 -2.4786
  138OSM    H6G15083   3.969   4.752   7.141  0.2923 -0.7186 -3.0197
  138OSM    C7F15084   4.079   4.667   7.303 -0.0748 -0.7807 -0.0713
  138OSM    H7F15085   4.023   4.735   7.371 -1.2561 -0.1321 -1.6230
  138OSM    H7G15086   4.176   4.715   7.279  1.2013 -2.1035  2.0923
  138OSM    C8F15087   4.106   4.531   7.365  0.0024 -0.1056 -0.1765
  138OSM    H8F15088   4.131   4.452   7.292  0.8633 -1.1998  1.2395
  138OSM    H8G15089   4.006   4.501   7.403  0.7136  0.5611  2.4528
  138OSM    C9F15090   4.215   4.536   7.471  0.1607  0.6258 -0.0289
  138OSM    H9F15091   4.313   4.493   7.442  1.4250  1.4682  2.7096
  138OSM   C10F15092   4.204   4.586   7.596 -0.6466  0.3396  0.2238
  138OSM   H10F15093   4.294   4.576   7.659 -0.6125  1.6199  0.4084
  138OSM   C11F15094   4.074   4.646   7.666 -0.5296  0.2457 -0.1655
  138OSM   H11F15095   3.976   4.630   7.616 -0.6929  1.0289 -0.1087
  138OSM   H11G15096   4.084   4.756   7.656 -0.7576  0.2034 -0.9408
  138OSM   C12F15097   4.071   4.577   7.804 -0.0867 -0.3186  0.0786
  138OSM   H12F15098   4.173   4.579   7.848  0.3340 -0.7513 -0.8560
  138OSM   H12G15099   4.038   4.471   7.801  3.4262 -1.5181 -0.4300
  138OSM   C13F15100   3.969   4.627   7.914 -0.2723  0.2790 -0.1909
  138OSM   H13F15101   3.865   4.643   7.880 -0.1772  0.6769 -0.3037
  138OSM   H13G15102   4.019   4.725   7.930  3.5851 -1.5770  0.2489
  138OSM   C14F15103   3.973   4.541   8.036  0.2353  0.3546  0.3561
  138OSM   H14F15104   4.081   4.526   8.061  0.3135  0.2387 -0.0367
  138OSM   H14G15105   3.929   4.443   8.011 -0.2155  0.7418 -0.4123
  138OSM   C15F15106   3.931   4.610   8.161 -0.1155 -0.5512 -0.5269
  138OSM   H15F15107   3.825   4.643   8.154 -0.3917 -0.9917  1.1554
  138OSM   H15G15108   4.003   4.695   8.159  1.1245 -1.3950  2.3932
  138OSM   C16F15109   3.960   4.517   8.275  0.1755 -0.1907 -0.2136
  138OSM   H16F15110   4.060   4.471   8.256 -0.6050 -1.1330 -2.4953
  138OSM   H16G15111   3.890   4.431   8.267 -1.2112  0.9278 -0.4595
  138OSM   C17F15112   3.952   4.582   8.417 -0.7059  1.0049 -0.2138
  138OSM   H17F15113   3.850   4.626   8.416 -0.6277  1.1885 -0.4098
  138OSM   H17G15114   4.025   4.666   8.426 -1.4736  1.4580  2.4459
  138OSM   C18F15115   3.961   4.496   8.543 -0.1649  0.0513  0.2007
  138OSM   H18F15116   3.928   4.547   8.636  1.7915  0.5257  0.6832
  138OSM   H18G15117   4.066   4.467   8.561  0.7534  0.9988 -2.9614
  138OSM   H18H15118   3.918   4.394   8.529  0.5857 -0.2426  0.0046
  139OSM      N15119   3.330   4.939   6.234  0.3483 -0.0632 -0.1916
  139OSM    C1515120   3.470   4.903   6.269 -0.3823  0.5771 -0.0776
  139OSM   H15A15121   3.493   4.928   6.372  1.3611  1.8271 -0.7370
  139OSM   H15B15122   3.549   4.952   6.215  3.9189 -2.1777  3.0762
  139OSM   H15C15123   3.489   4.798   6.258  1.3333  1.0858 -2.6582
  139OSM    C1415124   3.320   5.088   6.225 -0.3434  0.1029 -0.3666
  139OSM   H14A15125   3.389   5.129   6.153  3.0163  0.6620  2.8239
  139OSM   H14B15126   3.343   5.136   6.319  1.1704 -0.7778 -0.2592
  139OSM   H14C15127   3.217   5.120   6.218 -0.2911  0.6804  1.0420
  139OSM    C1315128   3.285   4.890   6.096 -0.2427 -0.3969  0.4875
  139OSM   H13A15129   3.186   4.922   6.069 -0.5155  0.0694  1.9563
  139OSM   H13B15130   3.289   4.783   6.083  0.6080 -0.3007 -0.1572
  139OSM   H13C15131   3.360   4.935   6.031 -1.1562  0.6961  0.1560
  139OSM    C1215132   3.242   4.889   6.345 -0.4564  0.1012 -0.3010
  139OSM   H12A15133   3.140   4.917   6.321 -0.7180 -0.5345  0.0321
  139OSM   H12B15134   3.252   4.940   6.440 -0.3490 -0.9372  0.2662
  139OSM    C1115135   3.237   4.739   6.370  0.8064  0.2413  0.4283
  139OSM   H11A15136   3.188   4.726   6.469  0.8121 -1.6957  0.2144
  139OSM   H11B15137   3.337   4.691   6.380  0.2937 -0.6871  1.3504
  139OSM      P15138   3.004   4.694   6.243  0.2839 -0.1819 -0.1915
  139OSM    O1315139   2.973   4.839   6.268 -0.6182  0.1718  0.0165
  139OSM    O1415140   2.970   4.640   6.106  0.2104 -0.6432 -0.3624
  139OSM    O1115141   2.933   4.603   6.357  0.7739 -0.9905  0.1036
  139OSM    O1215142   3.157   4.663   6.276 -0.2683 -0.4998  0.3020
  139OSM    C1S15143   2.905   4.656   6.490 -0.0266  0.6115 -0.2462
  139OSM    H1S15144   2.826   4.733   6.478 -1.9194 -1.2634 -0.1913
  139OSM    H1T15145   2.993   4.699   6.543 -0.3199 -1.6486  2.2529
  139OSM     NF15146   2.814   4.596   6.712 -0.0517  0.3763  0.3273
  139OSM    HNF15147   2.874   4.583   6.790  0.3657  0.5350  0.0320
  139OSM    C2S15148   2.857   4.543   6.585  0.0799 -0.4142 -0.2979
  139OSM    H2S15149   2.764   4.501   6.541  0.6550 -3.2983  1.0696
  139OSM    C3S15150   2.964   4.431   6.596 -0.4119  0.4184  0.0606
  139OSM    H3S15151   3.046   4.464   6.664 -0.6709 -0.5943  0.8892
  139OSM     O315152   3.017   4.396   6.472  0.8439  0.1070  0.4959
  139OSM    HO315153   2.985   4.474   6.425  0.8396  0.5087  1.1490
  139OSM    C4S15154   2.910   4.302   6.655 -0.3720 -0.7600 -0.8187
  139OSM    H4S15155   2.836   4.252   6.591 -0.8729  0.0456 -0.8844
  139OSM    C5S15156   2.945   4.260   6.782  0.2619  0.2249  0.4266
  139OSM    H5S15157   3.032   4.315   6.823  0.0639  1.4454 -0.7016
  139OSM    C6S15158   2.903   4.138   6.858  1.0144  0.6945 -0.0068
  139OSM    H6S15159   2.980   4.064   6.888 -0.2318 -1.4803 -1.8607
  139OSM    H6T15160   2.828   4.081   6.800  1.5532 -1.3918  1.2236
  139OSM    C7S15161   2.831   4.156   6.996  0.4271 -0.3309 -0.0298
  139OSM    H7S15162   2.736   4.212   6.985  0.8390  0.5789  0.8625
  139OSM    H7T15163   2.891   4.221   7.063  0.4899 -1.4983  1.0884
  139OSM    C8S15164   2.799   4.027   7.073  0.1093 -0.0543 -0.1501
  139OSM    H8S15165   2.898   3.983   7.098 -0.1742 -0.2929  0.5608
  139OSM    H8T15166   2.742   3.966   7.000 -1.7726 -0.6100  1.6779
  139OSM    C9S15167   2.722   4.043   7.200  0.9428  0.5137 -0.4408
  139OSM    H9S15168   2.742   3.957   7.267 -2.4940  1.4179  2.0012
  139OSM    H9T15169   2.613   4.059   7.188  1.3080  2.1708 -2.2233
  139OSM   C10S15170   2.755   4.178   7.279  0.2203  0.9878  0.0868
  139OSM   H10S15171   2.710   4.258   7.216 -0.3086 -0.3713 -1.3286
  139OSM   H10T15172   2.865   4.196   7.281  0.1307  1.5944 -0.1503
  139OSM   C11S15173   2.702   4.189   7.426  0.5138 -1.2344  0.1019
  139OSM   H11S15174   2.591   4.183   7.424  0.1871  2.7193 -1.7549
  139OSM   H11T15175   2.730   4.295   7.443 -0.7312 -0.2699 -3.1907
  139OSM   C12S15176   2.758   4.089   7.534 -0.9250 -0.1866 -0.7686
  139OSM   H12S15177   2.868   4.101   7.528 -1.0500  3.4688  1.3158
  139OSM   H12T15178   2.739   3.986   7.498  2.5092 -1.0948 -0.2523
  139OSM   C13S15179   2.703   4.111   7.673 -0.0085 -0.1038  0.0294
  139OSM   H13S15180   2.593   4.112   7.665 -0.0196  1.9431  0.0236
  139OSM   H13T15181   2.720   4.214   7.712 -2.1138 -0.4541  2.1278
  139OSM   C14S15182   2.752   4.010   7.776 -0.1399  0.2121 -0.9392
  139OSM   H14S15183   2.863   4.016   7.784 -0.2578 -0.0156  1.9184
  139OSM   H14T15184   2.706   3.913   7.748  1.1943 -0.0878 -2.2253
  139OSM   C15S15185   2.709   4.037   7.920 -0.4268 -0.6902  0.4838
  139OSM   H15S15186   2.601   4.066   7.921 -0.4001 -0.3363  3.4896
  139OSM   H15T15187   2.758   4.133   7.945 -3.3763  1.5464 -1.5394
  139OSM   C16S15188   2.733   3.925   8.022  0.0271 -0.2347 -0.4583
  139OSM   H16S15189   2.840   3.908   8.047 -0.1903  1.1845  1.7459
  139OSM   H16T15190   2.686   3.830   7.989 -2.0307 -0.0113  1.5928
  139OSM   C17S15191   2.665   3.949   8.157 -0.1861 -0.4889 -0.2870
  139OSM   H17S15192   2.691   3.867   8.228  0.1746 -2.8379 -2.9489
  139OSM   H17T15193   2.555   3.946   8.144 -0.4596  3.3292  0.0990
  139OSM   C18S15194   2.711   4.082   8.220  0.0657 -0.0422 -0.5516
  139OSM   H18S15195   2.703   4.067   8.329 -2.1161  0.1271 -0.6449
  139OSM   H18T15196   2.631   4.155   8.197 -0.1515  1.5032  4.1078
  139OSM   H18U15197   2.811   4.120   8.191  0.2434  1.2198  1.5827
  139OSM    C1F15198   2.707   4.667   6.730 -0.6632 -0.2575  0.2354
  139OSM     OF15199   2.631   4.696   6.638  0.0400 -0.1324 -0.5570
  139OSM    C2F15200   2.687   4.723   6.876  0.9101 -0.4256 -0.1455
  139OSM    H2F15201   2.789   4.750   6.908  1.3943  0.4401 -2.2651
  139OSM    H2G15202   2.647   4.637   6.935  0.2607 -0.2109 -0.2667
  139OSM    C3F15203   2.567   4.816   6.880 -0.4571  0.0578 -0.0726
  139OSM    H3F15204   2.482   4.757   6.840  0.7596 -0.5876 -1.8305
  139OSM    H3G15205   2.571   4.899   6.806 -0.5594 -0.9892 -1.2720
  139OSM    C4F15206   2.545   4.877   7.025 -0.4644  0.1024 -0.4539
  139OSM    H4F15207   2.548   4.800   7.105  0.0850  1.6956  1.1100
  139OSM    H4G15208   2.445   4.925   7.028 -1.7931 -2.5138  1.8345
  139OSM    C5F15209   2.647   4.990   7.042  0.1892 -0.2616 -0.2149
  139OSM    H5F15210   2.629   5.079   6.978 -2.8742 -0.4399  0.2753
  139OSM    H5G15211   2.749   4.953   7.020  0.4584  0.8551 -0.9388
  139OSM    C6F15212   2.657   5.045   7.189 -0.0265  0.6655  0.0708
  139OSM    H6F15213   2.554   5.070   7.220 -0.0449  0.7835 -0.0849
  139OSM    H6G15214   2.707   5.144   7.194  0.8052  0.6398 -4.1818
  139OSM    C7F15215   2.725   4.948   7.292  0.4173  0.6935  0.1833
  139OSM    H7F15216   2.832   4.943   7.261  0.5461 -0.0416  0.7200
  139OSM    H7G15217   2.692   4.842   7.290 -0.5138  0.9754  0.3567
  139OSM    C8F15218   2.739   4.991   7.438 -0.1886  0.0031  0.5647
  139OSM    H8F15219   2.723   5.101   7.434 -2.5404  0.0031  4.7751
  139OSM    H8G15220   2.839   4.962   7.476  1.0700  2.2220 -0.8180
  139OSM    C9F15221   2.627   4.947   7.524 -0.4186 -0.3051 -0.6251
  139OSM    H9F15222   2.531   4.947   7.470  0.6911 -0.5303 -2.7232
  139OSM   C10F15223   2.625   4.923   7.655  0.7107  0.8368 -0.1041
  139OSM   H10F15224   2.533   4.892   7.707  0.9753 -1.0893 -0.7094
  139OSM   C11F15225   2.744   4.928   7.740 -0.6880 -0.1472  0.6060
  139OSM   H11F15226   2.809   5.015   7.712  1.6610 -1.3322  2.0245
  139OSM   H11G15227   2.813   4.842   7.724  0.9182  1.0741  0.6236
  139OSM   C12F15228   2.715   4.950   7.890 -0.0067 -0.4782  0.2532
  139OSM   H12F15229   2.809   4.966   7.947  1.3005 -0.8573 -1.6918
  139OSM   H12G15230   2.671   4.857   7.932 -0.5505  0.2391  1.3030
  139OSM   C13F15231   2.622   5.070   7.917 -0.4013  0.8637 -0.6164
  139OSM   H13F15232   2.528   5.073   7.857 -0.3134  2.0788 -0.7056
  139OSM   H13G15233   2.666   5.167   7.887  1.4243 -0.2493 -1.7130
  139OSM   C14F15234   2.579   5.085   8.059 -0.2912 -0.3561 -0.1577
  139OSM   H14F15235   2.655   5.062   8.136  0.0678  1.6686  0.1516
  139OSM   H14G15236   2.501   5.008   8.077  0.6349 -1.9302 -2.4175
  139OSM   C15F15237   2.529   5.227   8.096  0.1620  0.3632  0.0307
  139OSM   H15F15238   2.455   5.253   8.017  1.0575 -1.2854 -1.4168
  139OSM   H15G15239   2.614   5.298   8.088 -0.1785  0.5817 -2.8339
  139OSM   C16F15240   2.448   5.221   8.234 -0.7270  0.4145 -0.2968
  139OSM   H16F15241   2.530   5.259   8.299  1.1895 -1.3355 -1.5687
  139OSM   H16G15242   2.423   5.115   8.257  2.2743 -0.0312  1.3295
  139OSM   C17F15243   2.324   5.308   8.231  0.0825 -0.6456 -0.3806
  139OSM   H17F15244   2.247   5.285   8.154 -0.7651  1.5703 -0.2579
  139OSM   H17G15245   2.347   5.416   8.225  1.0876 -0.7675  0.7703
  139OSM   C18F15246   2.241   5.295   8.355  0.3866 -0.5115  0.4609
  139OSM   H18F15247   2.166   5.371   8.383 -0.4111 -1.9952  2.6447
  139OSM   H18G15248   2.316   5.293   8.438  0.0684  2.6615  0.9225
  139OSM   H18H15249   2.186   5.198   8.362 -2.5458  1.1431  2.2040
  140OSM      N15250   2.291   0.304   6.202 -0.5272 -0.8957  0.0928
  140OSM    C1515251   2.393   0.379   6.130 -0.1501 -0.3464  0.0523
  140OSM   H15A15252   2.410   0.354   6.026  1.2995  2.4200 -0.4671
  140OSM   H15B15253   2.487   0.366   6.182 -0.7632 -0.4339  1.1552
  140OSM   H15C15254   2.374   0.484   6.142 -1.2682 -0.7068  1.9153
  140OSM    C1415255   2.164   0.330   6.136 -0.4253  0.5068  0.5806
  140OSM   H14A15256   2.090   0.269   6.186  0.8758  0.2531  2.2752
  140OSM   H14B15257   2.164   0.292   6.035 -0.6098  2.0436 -0.0223
  140OSM   H14C15258   2.139   0.434   6.146 -1.3244  0.3829 -0.1798
  140OSM    C1315259   2.326   0.153   6.200  0.4759 -0.5809 -0.3334
  140OSM   H13A15260   2.329   0.125   6.095  1.7740  3.9042 -1.7261
  140OSM   H13B15261   2.261   0.092   6.260 -1.1434  1.8172  0.4935
  140OSM   H13C15262   2.429   0.157   6.233 -0.4645  4.7563  3.1890
  140OSM    C1215263   2.295   0.347   6.351  0.3773 -0.0981  0.0570
  140OSM   H12A15264   2.383   0.318   6.407 -1.3915 -1.2599  2.4540
  140OSM   H12B15265   2.218   0.287   6.397 -1.2627  1.0086 -1.1523
  140OSM    C1115266   2.272   0.493   6.383 -0.3142  0.7114 -0.0681
  140OSM   H11A15267   2.261   0.514   6.492  2.5223  1.4570  0.1780
  140OSM   H11B15268   2.180   0.524   6.329 -0.2058  0.6007 -0.3173
  140OSM      P15269   2.516   0.578   6.425 -0.2673 -0.2254  0.3362
  140OSM    O1315270   2.619   0.501   6.350 -0.2949 -0.2123  0.0612
  140OSM    O1415271   2.546   0.723   6.441 -0.3870  0.0305  0.3892
  140OSM    O1115272   2.481   0.502   6.561 -0.1150  0.1729  0.7870
  140OSM    O1215273   2.384   0.571   6.343 -0.4213  0.5627 -0.1553
  140OSM    C1S15274   2.572   0.501   6.671  0.3864 -0.1385  0.4547
  140OSM    H1S15275   2.571   0.606   6.708  1.8515  0.3900 -0.8806
  140OSM    H1T15276   2.677   0.483   6.641  0.9311  1.7262  1.1191
  140OSM     NF15277   2.647   0.406   6.889  0.5273  0.1523 -0.4618
  140OSM    HNF15278   2.722   0.340   6.887  0.2428 -0.3376  1.8295
  140OSM    C2S15279   2.537   0.402   6.791  0.0572 -0.4755 -0.3806
  140OSM    H2S15280   2.443   0.444   6.832 -0.7550  0.1511 -2.7259
  140OSM    C3S15281   2.502   0.255   6.746 -0.3808  0.2982  0.1328
  140OSM    H3S15282   2.598   0.213   6.709 -0.1152 -0.1165  1.2510
  140OSM     O315283   2.416   0.245   6.635 -0.1960 -0.1858 -0.7185
  140OSM    HO315284   2.400   0.335   6.608 -0.0963 -0.4165 -1.5774
  140OSM    C4S15285   2.468   0.167   6.867 -0.2598  0.0820 -0.3264
  140OSM    H4S15286   2.549   0.094   6.882 -1.1593 -0.8223  0.2624
  140OSM    C5S15287   2.351   0.161   6.931  0.5071  0.5422  0.5552
  140OSM    H5S15288   2.274   0.235   6.903 -1.8876 -1.8390  0.4700
  140OSM    C6S15289   2.316   0.072   7.045 -0.5413 -0.3825 -0.4977
  140OSM    H6S15290   2.206   0.082   7.055 -0.6974 -2.3086  0.0617
  140OSM    H6T15291   2.352   0.102   7.145 -1.4605  0.7354 -0.4704
  140OSM    C7S15292   2.360  -0.074   7.017  0.0190  0.1949 -0.2490
  140OSM    H7S15293   2.471  -0.080   7.007  0.1186  0.6833  0.4455
  140OSM    H7T15294   2.312  -0.102   6.922  0.8960 -1.6380 -0.1882
  140OSM    C8S15295   2.307  -0.178   7.113 -0.5368  0.2263 -1.0579
  140OSM    H8S15296   2.332  -0.277   7.069 -0.6346 -0.2728 -0.0324
  140OSM    H8T15297   2.196  -0.183   7.125 -0.3666 -0.8071  0.3986
  140OSM    C9S15298   2.372  -0.163   7.252  0.0006  0.2666 -0.3312
  140OSM    H9S15299   2.362  -0.058   7.288 -0.4314 -0.3152  1.3286
  140OSM    H9T15300   2.481  -0.176   7.241 -0.1920  0.0429 -2.2745
  140OSM   C10S15301   2.313  -0.275   7.345  0.7527  0.4870 -0.0672
  140OSM   H10S15302   2.273  -0.360   7.285  1.3125 -2.3124  3.2204
  140OSM   H10T15303   2.221  -0.225   7.383  1.9437  2.2699  0.5417
  140OSM   C11S15304   2.407  -0.316   7.461 -0.5330 -0.0865 -0.2106
  140OSM   H11S15305   2.507  -0.327   7.415 -0.6488  1.5456 -0.9421
  140OSM   H11T15306   2.372  -0.415   7.498  0.7303 -0.2855  0.4761
  140OSM   C12S15307   2.406  -0.214   7.572  0.6454 -0.2788  0.7503
  140OSM   H12S15308   2.300  -0.194   7.601  0.2504  0.0718 -0.8349
  140OSM   H12T15309   2.434  -0.116   7.528  1.6498 -1.4674 -1.4181
  140OSM   C13S15310   2.491  -0.247   7.693 -0.1562  0.5739  0.0565
  140OSM   H13S15311   2.511  -0.164   7.763  1.0326  0.2234  0.1565
  140OSM   H13T15312   2.586  -0.287   7.650 -0.0278 -0.9607  1.6604
  140OSM   C14S15313   2.425  -0.356   7.781  0.4822 -0.0404 -0.0474
  140OSM   H14S15314   2.397  -0.446   7.722  0.7911  1.1229 -2.0626
  140OSM   H14T15315   2.327  -0.319   7.816  0.8118  0.7461  0.0536
  140OSM   C15S15316   2.523  -0.389   7.900  0.3101  0.0315  0.7884
  140OSM   H15S15317   2.567  -0.293   7.933 -0.3815  0.6112  0.0473
  140OSM   H15T15318   2.597  -0.453   7.847 -0.1276  0.0101  0.1972
  140OSM   C16S15319   2.462  -0.463   8.022  0.1268 -0.7088  0.4474
  140OSM   H16S15320   2.430  -0.562   7.982 -1.9063  0.4160 -0.8833
  140OSM   H16T15321   2.370  -0.412   8.057 -0.8636 -1.4292 -1.0022
  140OSM   C17S15322   2.568  -0.463   8.136  0.1216 -0.1080 -0.2142
  140OSM   H17S15323   2.510  -0.499   8.224 -0.9054  1.2252 -0.3234
  140OSM   H17T15324   2.618  -0.366   8.156  1.9845 -1.1043  0.2104
  140OSM   C18S15325   2.688  -0.551   8.102  0.4623  0.6549 -1.0954
  140OSM   H18S15326   2.750  -0.512   8.019  1.2869 -3.4590 -2.6443
  140OSM   H18T15327   2.668  -0.659   8.084  0.1388  0.3989  0.6838
  140OSM   H18U15328   2.755  -0.555   8.191 -1.3621 -0.5456  0.2965
  140OSM    C1F15329   2.664   0.512   6.966  0.2953  0.0244 -0.0886
  140OSM     OF15330   2.602   0.624   6.953  0.6176  0.6379 -0.1574
  140OSM    C2F15331   2.770   0.504   7.077 -0.0826  0.4643 -0.6221
  140OSM    H2F15332   2.837   0.591   7.089  0.1427  0.1732  0.3802
  140OSM    H2G15333   2.823   0.407   7.065  3.1284  2.0976 -0.5851
  140OSM    C3F15334   2.703   0.502   7.213  0.6391  0.4276 -0.0289
  140OSM    H3F15335   2.627   0.423   7.222  0.5774  0.7499  3.8743
  140OSM    H3G15336   2.649   0.597   7.233 -0.4313 -0.1112 -0.2832
  140OSM    C4F15337   2.808   0.482   7.324  0.8948 -0.0322 -0.0675
  140OSM    H4F15338   2.892   0.555   7.322  0.5105  0.4832 -3.9262
  140OSM    H4G15339   2.851   0.381   7.309  0.3052 -0.4642  1.0186
  140OSM    C5F15340   2.737   0.474   7.460 -0.5242 -0.3106 -0.0447
  140OSM    H5F15341   2.808   0.424   7.529 -0.0108  1.1832  0.5451
  140OSM    H5G15342   2.652   0.402   7.451  0.5701 -1.6761  0.0975
  140OSM    C6F15343   2.694   0.606   7.528 -0.0047 -0.0907  0.4816
  140OSM    H6F15344   2.659   0.678   7.451  0.3465  0.2301  0.6206
  140OSM    H6G15345   2.770   0.673   7.573 -0.3220  1.7499 -1.5706
  140OSM    C7F15346   2.589   0.588   7.646 -0.1289  0.4842 -0.0369
  140OSM    H7F15347   2.506   0.532   7.597 -0.2745  0.4637  0.2308
  140OSM    H7G15348   2.558   0.692   7.671 -4.1789 -0.5637  0.0034
  140OSM    C8F15349   2.644   0.511   7.770 -0.1702 -0.1904  1.0563
  140OSM    H8F15350   2.729   0.566   7.815  0.9226 -0.9149 -0.0866
  140OSM    H8G15351   2.690   0.419   7.728  3.6006  2.4489 -1.1726
  140OSM    C9F15352   2.544   0.475   7.880 -0.1681  0.6128  0.2486
  140OSM    H9F15353   2.445   0.450   7.839 -0.5403  1.8429  0.3562
  140OSM   C10F15354   2.563   0.479   8.012  0.2920 -0.6039 -0.0721
  140OSM   H10F15355   2.480   0.453   8.079 -0.5213  2.9351  0.5257
  140OSM   C11F15356   2.690   0.518   8.089  0.1542 -0.0198 -0.8639
  140OSM   H11F15357   2.663   0.607   8.149 -1.2803  0.5743 -2.3362
  140OSM   H11G15358   2.766   0.553   8.017 -0.3769  2.3310 -0.3402
  140OSM   C12F15359   2.769   0.418   8.174  0.7538  0.4696  0.2636
  140OSM   H12F15360   2.851   0.478   8.220  1.5239  0.1650 -0.6748
  140OSM   H12G15361   2.831   0.352   8.110  1.7204  1.8449 -0.2684
  140OSM   C13F15362   2.686   0.345   8.280 -0.1666  0.7741 -0.2012
  140OSM   H13F15363   2.613   0.275   8.235 -0.4511  0.4434  0.7406
  140OSM   H13G15364   2.639   0.422   8.344 -1.1505  1.1465 -1.3575
  140OSM   C14F15365   2.775   0.257   8.365  0.0691  0.0536  0.4458
  140OSM   H14F15366   2.837   0.197   8.295 -1.8049  0.9183 -2.0950
  140OSM   H14G15367   2.718   0.185   8.429  0.3893 -1.0006 -0.4277
  140OSM   C15F15368   2.878   0.325   8.456 -0.3307 -0.4899 -0.0442
  140OSM   H15F15369   2.825   0.404   8.513 -0.8108 -0.6431 -0.2691
  140OSM   H15G15370   2.951   0.383   8.396  0.7530 -0.8700  0.8759
  140OSM   C16F15371   2.973   0.235   8.543 -0.8825 -0.0295 -0.2861
  140OSM   H16F15372   3.008   0.151   8.479 -1.1932  0.7837 -1.5673
  140OSM   H16G15373   2.906   0.203   8.625 -0.8996 -1.4626 -0.8429
  140OSM   C17F15374   3.095   0.298   8.608  0.0749 -0.2550 -0.0788
  140OSM   H17F15375   3.053   0.375   8.677  0.0386  1.9717 -2.4075
  140OSM   H17G15376   3.144   0.341   8.518  1.9693  0.3749  1.1885
  140OSM   C18F15377   3.203   0.201   8.660 -0.0761  0.1923 -0.8909
  140OSM   H18F15378   3.249   0.134   8.583  1.7311 -0.1358  0.4022
  140OSM   H18G15379   3.156   0.137   8.738  1.9655 -0.2531  0.0446
  140OSM   H18H15380   3.285   0.260   8.705 -1.4460  1.3929  0.1209
  141OSM      N15381   2.504   2.904   6.211 -0.0085 -0.1796 -0.2329
  141OSM    C1515382   2.648   2.884   6.203  0.1590  0.5461  0.0678
  141OSM   H15A15383   2.672   2.836   6.109 -1.0225  0.5737 -0.2629
  141OSM   H15B15384   2.678   2.818   6.283 -0.1536  1.3822  0.8877
  141OSM   H15C15385   2.708   2.972   6.220 -0.7558  1.7932 -2.6274
  141OSM    C1415386   2.465   3.006   6.319 -0.3817 -0.1227  0.4264
  141OSM   H14A15387   2.510   2.970   6.411  0.8101 -0.3934 -0.2439
  141OSM   H14B15388   2.359   3.009   6.341 -0.4475  0.7384  0.0005
  141OSM   H14C15389   2.514   3.100   6.299 -0.8493  0.0804  0.2195
  141OSM    C1315390   2.461   2.961   6.079 -0.4875 -0.0567  0.0346
  141OSM   H13A15391   2.456   2.885   6.003 -1.5337  0.2018 -0.1792
  141OSM   H13B15392   2.521   3.048   6.057 -0.3708 -0.2714 -0.4830
  141OSM   H13C15393   2.356   2.988   6.076 -0.8148 -0.9146  2.0709
  141OSM    C1215394   2.440   2.771   6.248  0.0033  0.4331  0.9381
  141OSM   H12A15395   2.468   2.696   6.176  0.7401 -0.6173  2.2591
  141OSM   H12B15396   2.334   2.789   6.244  0.0953  0.8549 -2.2731
  141OSM    C1115397   2.474   2.706   6.384 -0.7516  0.4380 -0.1424
  141OSM   H11A15398   2.412   2.615   6.400  0.0934 -0.2177 -0.4380
  141OSM   H11B15399   2.438   2.775   6.463 -2.5102  0.0637 -0.5784
  141OSM      P15400   2.678   2.538   6.356 -0.1049 -0.0096  0.0539
  141OSM    O1315401   2.595   2.453   6.266 -0.3682  0.1380 -0.1056
  141OSM    O1415402   2.818   2.561   6.317  0.0834  0.4124 -0.1476
  141OSM    O1115403   2.676   2.461   6.491  0.0878  0.6414  0.3477
  141OSM    O1215404   2.612   2.671   6.402  0.4399 -0.5470 -0.4158
  141OSM    C1S15405   2.743   2.490   6.611 -0.0810 -0.4343  0.0952
  141OSM    H1S15406   2.711   2.591   6.646  0.4550 -0.2083 -0.0664
  141OSM    H1T15407   2.851   2.483   6.585  0.2302 -2.6427  1.6536
  141OSM     NF15408   2.802   2.423   6.842  0.4308 -0.3256 -0.6155
  141OSM    HNF15409   2.888   2.375   6.856  0.2289 -0.4916  0.0653
  141OSM    C2S15410   2.724   2.387   6.723  0.1002 -0.3948  0.0583
  141OSM    H2S15411   2.618   2.376   6.752  0.4916 -0.0843  1.6973
  141OSM    C3S15412   2.770   2.251   6.664  0.2482  0.3808  0.1893
  141OSM    H3S15413   2.878   2.265   6.642 -0.0292  0.4156 -1.2594
  141OSM     O315414   2.698   2.208   6.553 -0.4713  0.6441  0.5972
  141OSM    HO315415   2.660   2.290   6.523 -1.7795 -0.5934 -1.3915
  141OSM    C4S15416   2.756   2.146   6.768 -0.3962 -0.8620 -0.0417
  141OSM    H4S15417   2.652   2.122   6.796 -1.1649  1.6705 -0.4350
  141OSM    C5S15418   2.856   2.065   6.813  0.0987 -0.2014  0.3906
  141OSM    H5S15419   2.953   2.063   6.762 -0.5696  1.1358 -1.0159
  141OSM    C6S15420   2.832   1.959   6.911  0.0427  0.1593 -0.4084
  141OSM    H6S15421   2.886   1.868   6.879 -0.4213  0.4408 -2.1074
  141OSM    H6T15422   2.726   1.934   6.932 -0.4270  3.0167  1.2112
  141OSM    C7S15423   2.877   2.003   7.053 -0.5859 -0.3150  0.0063
  141OSM    H7S15424   2.852   1.921   7.124  0.9811 -2.9892 -2.2941
  141OSM    H7T15425   2.828   2.094   7.094  1.8414  0.8420  0.5132
  141OSM    C8S15426   3.037   2.012   7.053  0.2511 -0.7719 -0.5264
  141OSM    H8S15427   3.078   2.058   6.960 -1.7240 -1.4195 -1.7879
  141OSM    H8T15428   3.080   1.910   7.064  0.0519 -0.7817  0.1873
  141OSM    C9S15429   3.086   2.096   7.174  0.4790  0.1054  0.0329
  141OSM    H9S15430   3.016   2.181   7.189  0.2298 -0.2236  0.7960
  141OSM    H9T15431   3.191   2.131   7.165  1.1914 -1.9197 -0.0091
  141OSM   C10S15432   3.083   2.005   7.293  0.2550 -0.6202 -0.8432
  141OSM   H10S15433   3.175   1.945   7.281  0.1902 -0.7539 -0.6657
  141OSM   H10T15434   3.004   1.928   7.306 -0.3363  0.1501  0.4258
  141OSM   C11S15435   3.085   2.088   7.423  0.0378  0.7251 -0.6034
  141OSM   H11S15436   3.002   2.163   7.430 -0.7883 -0.2638  0.5311
  141OSM   H11T15437   3.183   2.141   7.429 -0.6061  2.1109 -1.6249
  141OSM   C12S15438   3.058   2.008   7.552  0.4954  0.0655  0.0027
  141OSM   H12S15439   3.124   1.919   7.563 -0.7527 -0.7514  1.2137
  141OSM   H12T15440   2.950   1.984   7.560  0.1807  0.8836 -1.4429
  141OSM   C13S15441   3.084   2.097   7.678  0.5334  0.0103  0.5025
  141OSM   H13S15442   3.023   2.189   7.666 -1.7502 -1.5294 -0.3272
  141OSM   H13T15443   3.192   2.123   7.675  0.2912  0.9503 -0.2451
  141OSM   C14S15444   3.050   2.024   7.807 -0.3034 -0.0218  0.9292
  141OSM   H14S15445   3.123   1.941   7.805 -0.5868 -0.2781 -1.5498
  141OSM   H14T15446   2.946   1.986   7.798  0.6570 -2.4504 -0.8618
  141OSM   C15S15447   3.057   2.120   7.922  0.6300 -0.0451  0.8772
  141OSM   H15S15448   2.975   2.193   7.902 -0.9140 -2.0930 -0.8199
  141OSM   H15T15449   3.154   2.173   7.923  0.2786  0.7161 -0.8736
  141OSM   C16S15450   3.036   2.051   8.053 -0.2091  0.7684  0.7235
  141OSM   H16S15451   3.097   1.959   8.059  0.9786  1.5073  0.3515
  141OSM   H16T15452   2.930   2.019   8.059 -0.3362 -0.6884 -4.5934
  141OSM   C17S15453   3.086   2.138   8.169 -0.1483  0.0412 -0.7684
  141OSM   H17S15454   3.052   2.244   8.158  0.3430  0.1069 -1.7433
  141OSM   H17T15455   3.197   2.140   8.175 -0.1655 -0.9936  0.2082
  141OSM   C18S15456   3.034   2.096   8.306 -0.7577  0.8364  0.6127
  141OSM   H18S15457   2.929   2.124   8.327 -0.4020 -0.0250  4.0192
  141OSM   H18T15458   3.093   2.165   8.370  0.5280  3.7010 -3.2395
  141OSM   H18U15459   3.059   1.989   8.321  0.3939  1.2019  1.3882
  141OSM    C1F15460   2.783   2.525   6.925 -0.3200  0.2004  0.8900
  141OSM     OF15461   2.691   2.604   6.908  0.5231 -0.4496  0.5624
  141OSM    C2F15462   2.883   2.536   7.035  0.0847  0.1375  0.7289
  141OSM    H2F15463   2.947   2.621   7.002 -0.1840 -0.0416 -0.2928
  141OSM    H2G15464   2.952   2.450   7.029 -0.7029 -0.4398 -0.7497
  141OSM    C3F15465   2.824   2.545   7.173  0.0266 -0.4285 -0.4794
  141OSM    H3F15466   2.751   2.629   7.168 -2.5974 -2.5115  0.3981
  141OSM    H3G15467   2.896   2.569   7.253  1.0963 -0.7592 -1.3264
  141OSM    C4F15468   2.741   2.423   7.219 -0.4941  0.3342  0.1164
  141OSM    H4F15469   2.801   2.331   7.202  0.2200  0.6269  0.9549
  141OSM    H4G15470   2.657   2.410   7.148 -0.7491 -0.7987  0.6068
  141OSM    C5F15471   2.682   2.429   7.363 -0.0112 -0.4208  0.8495
  141OSM    H5F15472   2.605   2.349   7.374  0.6596 -1.0627  0.9531
  141OSM    H5G15473   2.633   2.527   7.382  3.2352  0.7852  4.2952
  141OSM    C6F15474   2.780   2.421   7.480  0.3060  0.5881  0.1700
  141OSM    H6F15475   2.853   2.504   7.476  2.0991 -0.9681 -1.5726
  141OSM    H6G15476   2.835   2.325   7.469 -0.6869 -0.1863  1.5763
  141OSM    C7F15477   2.705   2.421   7.615  0.4622  0.0691 -0.6062
  141OSM    H7F15478   2.615   2.358   7.602 -0.5713  0.9868  1.6284
  141OSM    H7G15479   2.685   2.528   7.636  0.7774  0.2920 -1.3829
  141OSM    C8F15480   2.790   2.364   7.734  0.3642  0.6379  0.6320
  141OSM    H8F15481   2.814   2.263   7.694  1.0515  0.4723  1.4471
  141OSM    H8G15482   2.727   2.365   7.825 -1.5145 -0.6609 -0.5830
  141OSM    C9F15483   2.918   2.443   7.768  0.2862  0.2883  0.8709
  141OSM    H9F15484   2.995   2.443   7.690 -0.9838  1.6604 -0.4574
  141OSM   C10F15485   2.956   2.493   7.887 -0.0815 -0.1600  0.0821
  141OSM   H10F15486   3.045   2.558   7.884  0.4061 -0.7781  0.8474
  141OSM   C11F15487   2.890   2.489   8.024 -0.2742  1.0355 -0.3307
  141OSM   H11F15488   2.901   2.389   8.070  3.0314  1.4642  0.0490
  141OSM   H11G15489   2.784   2.523   8.020 -0.5458  0.2072 -0.3741
  141OSM   C12F15490   2.955   2.580   8.130  0.1710 -0.2780  0.2207
  141OSM   H12F15491   2.972   2.679   8.083  1.3028 -1.1250 -1.2583
  141OSM   H12G15492   3.054   2.531   8.146 -0.4127 -1.8008 -0.6335
  141OSM   C13F15493   2.895   2.582   8.268 -0.0795  0.0519  0.5613
  141OSM   H13F15494   2.803   2.643   8.255  1.2720  2.3383  1.1577
  141OSM   H13G15495   2.960   2.626   8.346 -0.2314 -0.7595  1.1569
  141OSM   C14F15496   2.846   2.443   8.311 -0.5972 -0.3758  0.1274
  141OSM   H14F15497   2.938   2.380   8.309 -0.1053  0.3431 -1.3579
  141OSM   H14G15498   2.767   2.404   8.242 -0.1560  1.7582 -1.6958
  141OSM   C15F15499   2.786   2.443   8.449 -0.3155 -0.2440 -0.4832
  141OSM   H15F15500   2.694   2.505   8.456 -0.3236 -0.4294  2.6155
  141OSM   H15G15501   2.861   2.480   8.523  0.4029  0.2468 -1.4269
  141OSM   C16F15502   2.735   2.307   8.505 -0.9664  0.1350 -0.1092
  141OSM   H16F15503   2.826   2.248   8.529 -1.2063  0.4979  1.9241
  141OSM   H16G15504   2.674   2.249   8.433 -1.9819  0.6785  0.2843
  141OSM   C17F15505   2.675   2.329   8.644 -0.5330  0.0844  0.4173
  141OSM   H17F15506   2.647   2.225   8.670 -1.7504 -0.3398 -2.1888
  141OSM   H17G15507   2.588   2.399   8.640 -1.5340 -1.1797 -1.8927
  141OSM   C18F15508   2.761   2.402   8.749 -0.4574  0.0399  1.1201
  141OSM   H18F15509   2.693   2.438   8.830 -1.6549  1.4774 -0.4451
  141OSM   H18G15510   2.820   2.487   8.709  0.1022 -0.6983  0.3468
  141OSM   H18H15511   2.825   2.319   8.783  0.9805  0.1868 -1.0534
  142OSM      N15512   3.352   3.308   6.226  0.0764 -0.0060  0.0811
  142OSM    C1515513   3.417   3.272   6.092  0.1417  0.3962  0.7451
  142OSM   H15A15514   3.347   3.271   6.009  0.0231  2.1538  0.8014
  142OSM   H15B15515   3.481   3.185   6.097  1.7183  1.6044  3.6035
  142OSM   H15C15516   3.484   3.351   6.063 -0.1625 -0.0179 -1.2645
  142OSM    C1415517   3.460   3.325   6.325  0.5107 -0.3084  0.4664
  142OSM   H14A15518   3.522   3.409   6.299  0.6247 -0.2081  1.0512
  142OSM   H14B15519   3.526   3.240   6.324 -1.0550 -1.5971 -1.5198
  142OSM   H14C15520   3.408   3.351   6.417  0.5875  0.5846  0.2643
  142OSM    C1315521   3.286   3.437   6.206  0.1771 -0.6062 -0.3529
  142OSM   H13A15522   3.346   3.525   6.225 -1.7293  0.7985 -0.5122
  142OSM   H13B15523   3.213   3.451   6.285  0.6989  0.6509 -0.0608
  142OSM   H13C15524   3.238   3.444   6.110  1.5815 -0.3985 -1.0721
  142OSM    C1215525   3.251   3.199   6.266 -0.1064 -0.1635  0.5709
  142OSM   H12A15526   3.293   3.099   6.262 -3.8614 -1.8543 -1.0540
  142OSM   H12B15527   3.178   3.197   6.186 -0.1068  0.0866  0.5656
  142OSM    C1115528   3.176   3.204   6.396 -0.4960 -0.0401  0.4112
  142OSM   H11A15529   3.242   3.208   6.486 -0.2038  1.0784  0.1542
  142OSM   H11B15530   3.117   3.114   6.425 -1.2297 -0.3448 -1.8815
  142OSM      P15531   2.950   3.302   6.316  0.2580 -0.2097  0.0605
  142OSM    O1315532   2.936   3.415   6.224  0.3167 -0.2089 -0.2349
  142OSM    O1415533   2.935   3.164   6.259 -0.7943 -0.0994 -0.0798
  142OSM    O1115534   2.840   3.327   6.425 -0.1560  0.1538  0.0944
  142OSM    O1215535   3.084   3.315   6.398  0.7313  0.7359  0.0871
  142OSM    C1S15536   2.857   3.288   6.562 -0.1690 -0.5084 -0.0952
  142OSM    H1S15537   2.942   3.347   6.602  1.9983 -1.5727 -2.8371
  142OSM    H1T15538   2.873   3.178   6.562 -0.1410 -0.5038  0.2167
  142OSM     NF15539   2.787   3.339   6.791  0.3790  0.0689 -0.1706
  142OSM    HNF15540   2.761   3.261   6.847 -0.7347  0.1859 -0.4855
  142OSM    C2S15541   2.743   3.340   6.651  0.0555 -0.4521 -0.7085
  142OSM    H2S15542   2.721   3.445   6.622  0.3607  0.0152  0.6390
  142OSM    C3S15543   2.618   3.263   6.607  0.7685 -0.5411  1.1902
  142OSM    H3S15544   2.642   3.155   6.619  1.6820 -0.3270  1.3076
  142OSM     O315545   2.576   3.287   6.469 -0.0415 -0.3324 -0.2606
  142OSM    HO315546   2.648   3.334   6.427  1.1604 -0.2413  1.7886
  142OSM    C4S15547   2.492   3.281   6.702 -0.0995 -0.3089  0.2296
  142OSM    H4S15548   2.448   3.382   6.710 -0.2722 -0.4640  1.4688
  142OSM    C5S15549   2.432   3.179   6.765  0.2818 -0.7641  0.4930
  142OSM    H5S15550   2.468   3.075   6.755  2.1346 -0.3662  2.1962
  142OSM    C6S15551   2.310   3.191   6.853  0.5730  0.1019  0.5971
  142OSM    H6S15552   2.327   3.121   6.938 -1.4507  1.1828  1.9589
  142OSM    H6T15553   2.221   3.146   6.804  0.9085  0.0930 -0.0224
  142OSM    C7S15554   2.286   3.328   6.903  0.0763  0.0561  0.1081
  142OSM    H7S15555   2.264   3.398   6.820  0.7736 -0.0931 -0.2043
  142OSM    H7T15556   2.373   3.371   6.956  1.1788 -2.5680  0.6009
  142OSM    C8S15557   2.174   3.317   7.004  0.7915  0.2194  0.4154
  142OSM    H8S15558   2.119   3.222   6.992  3.6034 -1.3180 -1.4117
  142OSM    H8T15559   2.122   3.415   6.999  2.7497  1.3773  1.2553
  142OSM    C9S15560   2.235   3.315   7.148  0.1391 -0.3760 -0.3880
  142OSM    H9S15561   2.299   3.403   7.172  0.5266 -1.0819  1.3500
  142OSM    H9T15562   2.294   3.221   7.139 -0.3816 -0.6045 -1.5417
  142OSM   C10S15563   2.132   3.297   7.260  0.3818  0.2495  0.0402
  142OSM   H10S15564   2.078   3.201   7.249  0.9669 -0.2804  1.5322
  142OSM   H10T15565   2.056   3.378   7.260  0.0366 -0.0596  0.9998
  142OSM   C11S15566   2.190   3.284   7.404  0.2746 -0.0449  0.2708
  142OSM   H11S15567   2.234   3.382   7.432  0.5535 -0.2068  0.4092
  142OSM   H11T15568   2.270   3.207   7.413 -0.6140 -1.0310 -0.1724
  142OSM   C12S15569   2.083   3.245   7.508 -0.5757 -0.1545 -0.2630
  142OSM   H12S15570   2.032   3.148   7.490  0.6640 -1.4860  2.6945
  142OSM   H12T15571   2.003   3.320   7.526 -0.6281 -0.7853  2.5941
  142OSM   C13S15572   2.147   3.241   7.652  0.2277  0.0712  0.5758
  142OSM   H13S15573   2.201   3.336   7.671  0.6660  0.0151 -0.3060
  142OSM   H13T15574   2.216   3.157   7.675  1.3475  0.9896  0.6497
  142OSM   C14S15575   2.042   3.231   7.761 -0.0259  0.2413 -0.5650
  142OSM   H14S15576   1.974   3.149   7.731 -1.2574  1.0854 -0.1363
  142OSM   H14T15577   1.986   3.326   7.775  0.8508  0.5209  1.3367
  142OSM   C15S15578   2.090   3.197   7.906  0.0265 -0.4829  0.3582
  142OSM   H15S15579   2.178   3.262   7.928 -1.4886  1.4787  0.9451
  142OSM   H15T15580   2.134   3.095   7.907  1.4456  0.1075 -0.1816
  142OSM   C16S15581   1.983   3.217   8.006  0.4212  0.2453 -0.7063
  142OSM   H16S15582   1.901   3.144   7.988  0.3411 -0.0792  0.8023
  142OSM   H16T15583   1.936   3.316   7.986  1.3841  0.4827 -1.9118
  142OSM   C17S15584   2.039   3.210   8.149 -0.0843  0.8952  0.5296
  142OSM   H17S15585   2.025   3.307   8.201 -1.5009  1.5057 -0.8993
  142OSM   H17T15586   2.149   3.196   8.144 -0.5035 -3.7519 -0.5282
  142OSM   C18S15587   1.990   3.096   8.238  0.3059 -0.2703  0.1554
  142OSM   H18S15588   2.046   3.095   8.334  1.2706 -3.2071 -0.3320
  142OSM   H18T15589   1.996   2.993   8.197 -0.3444 -0.5384  0.7145
  142OSM   H18U15590   1.886   3.111   8.272 -0.3176 -0.6424 -1.4772
  142OSM    C1F15591   2.869   3.438   6.835  0.2220 -0.4094 -0.8901
  142OSM     OF15592   2.908   3.532   6.766  0.1414 -0.6066  0.2897
  142OSM    C2F15593   2.900   3.430   6.983  0.6769 -0.0159 -0.3242
  142OSM    H2F15594   2.960   3.339   7.003  2.2249  1.7576  4.2126
  142OSM    H2G15595   2.803   3.427   7.037  0.4130  4.2106 -0.2334
  142OSM    C3F15596   2.994   3.541   7.034 -0.3067 -0.7292 -0.4131
  142OSM    H3F15597   2.946   3.637   7.006 -1.6056 -0.7066  1.6928
  142OSM    H3G15598   3.087   3.529   6.974 -0.1038 -0.6099 -0.1214
  142OSM    C4F15599   3.019   3.516   7.177  0.1912  0.0804 -1.1277
  142OSM    H4F15600   3.092   3.592   7.213 -0.6068  0.2273  0.2224
  142OSM    H4G15601   3.065   3.416   7.187  1.0157  0.6218  1.0747
  142OSM    C5F15602   2.901   3.521   7.273  1.1010  0.0689  0.0504
  142OSM    H5F15603   2.857   3.419   7.268 -2.0764  1.3677 -1.2222
  142OSM    H5G15604   2.814   3.585   7.246  1.7454 -0.0283 -2.4451
  142OSM    C6F15605   2.950   3.548   7.423  0.1215 -0.1729 -0.1098
  142OSM    H6F15606   3.030   3.478   7.454  1.4273  1.2986  0.0105
  142OSM    H6G15607   2.863   3.529   7.489  2.8202 -2.2402  3.1270
  142OSM    C7F15608   2.970   3.705   7.438 -0.1390 -0.0323 -0.5410
  142OSM    H7F15609   2.888   3.755   7.383 -0.3639 -0.8242 -0.9452
  142OSM    H7G15610   3.065   3.733   7.388  0.8954 -2.3958 -0.0215
  142OSM    C8F15611   2.981   3.754   7.586  0.0825  0.7594 -0.4183
  142OSM    H8F15612   2.874   3.747   7.616 -0.2999  1.5314 -1.5561
  142OSM    H8G15613   3.001   3.863   7.581 -0.7929  1.0790  1.9125
  142OSM    C9F15614   3.067   3.687   7.693 -0.4643 -0.6332 -0.5306
  142OSM    H9F15615   3.173   3.693   7.663  0.3916 -2.4123  1.8570
  142OSM   C10F15616   3.033   3.635   7.810  0.1057  1.1860  0.5081
  142OSM   H10F15617   3.109   3.589   7.875 -0.5716 -0.2390  0.3358
  142OSM   C11F15618   2.895   3.631   7.870 -0.1685 -0.4596  0.9107
  142OSM   H11F15619   2.855   3.536   7.829  3.4148 -0.6360 -2.7302
  142OSM   H11G15620   2.836   3.718   7.836 -1.0237 -1.0097  0.9632
  142OSM   C12F15621   2.891   3.621   8.014  0.7220 -0.1838 -0.2583
  142OSM   H12F15622   2.783   3.631   8.038  0.4425 -0.0675 -1.4959
  142OSM   H12G15623   2.931   3.712   8.063 -1.8976  1.5192 -1.0884
  142OSM   C13F15624   2.951   3.493   8.073  0.9692 -0.1292  0.0784
  142OSM   H13F15625   3.061   3.510   8.069  0.9976 -0.5646 -2.1649
  142OSM   H13G15626   2.938   3.410   8.001  1.2553  0.2516 -0.4107
  142OSM   C14F15627   2.891   3.458   8.208 -0.2271 -0.3342 -0.2367
  142OSM   H14F15628   2.783   3.432   8.200 -0.3096  0.1099 -0.6016
  142OSM   H14G15629   2.902   3.542   8.279  0.7310 -0.4242 -0.2754
  142OSM   C15F15630   2.964   3.328   8.260 -0.0239 -0.1800 -0.0088
  142OSM   H15F15631   3.074   3.338   8.264 -0.0710  0.1076  0.9529
  142OSM   H15G15632   2.931   3.248   8.190 -0.8858 -0.0035  0.1832
  142OSM   C16F15633   2.909   3.275   8.398 -0.2641 -0.0751  0.3167
  142OSM   H16F15634   2.945   3.174   8.427  1.4772 -0.3312 -2.3918
  142OSM   H16G15635   2.798   3.263   8.392 -0.3012 -0.2684  1.2846
  142OSM   C17F15636   2.922   3.365   8.519  0.0022 -0.2105 -0.3769
  142OSM   H17F15637   2.851   3.448   8.502 -0.7286 -0.8757 -0.6303
  142OSM   H17G15638   3.024   3.408   8.508 -0.0216  0.2208  0.8938
  142OSM   C18F15639   2.902   3.292   8.652 -0.5380  0.9840 -0.6458
  142OSM   H18F15640   2.966   3.202   8.645 -2.2333 -0.2266 -1.2228
  142OSM   H18G15641   2.798   3.257   8.637  0.2759 -1.6486 -0.5216
  142OSM   H18H15642   2.919   3.354   8.743  0.7040 -0.3978  0.0990
  143OSM      N15643   1.973   5.572   6.130  0.5979 -0.3904  0.5722
  143OSM    C1515644   2.044   5.557   5.991  0.5508  0.1926 -0.8904
  143OSM   H15A15645   1.999   5.620   5.915 -0.8127  0.1651 -0.1342
  143OSM   H15B15646   2.045   5.456   5.953  0.5359 -0.8451  1.7110
  143OSM   H15C15647   2.146   5.589   6.005  0.5194  0.6035 -1.5407
  143OSM    C1415648   1.828   5.537   6.121  0.7133  0.2591  0.1177
  143OSM   H14A15649   1.775   5.598   6.049  2.8482  0.9266 -0.9451
  143OSM   H14B15650   1.782   5.553   6.217 -0.8473  1.3346 -0.7645
  143OSM   H14C15651   1.812   5.434   6.091 -1.3466  1.1804 -2.4007
  143OSM    C1315652   2.034   5.469   6.219 -0.2813 -0.4506 -0.0694
  143OSM   H13A15653   2.019   5.371   6.174  0.8538 -1.1160  0.9237
  143OSM   H13B15654   1.987   5.457   6.316  3.2595 -2.1223  1.6530
  143OSM   H13C15655   2.139   5.482   6.240 -0.6622 -0.1458  1.8319
  143OSM    C1215656   1.979   5.713   6.177 -0.4060  0.6055 -0.1311
  143OSM   H12A15657   1.890   5.748   6.226  0.4321  0.0412  1.9017
  143OSM   H12B15658   1.977   5.776   6.089  0.2844  0.3779 -0.3246
  143OSM    C1115659   2.112   5.753   6.249 -0.3878 -0.2562  0.5703
  143OSM   H11A15660   2.104   5.708   6.350  2.7141 -0.6417  0.7631
  143OSM   H11B15661   2.112   5.864   6.256 -1.1941 -0.3331  2.1272
  143OSM      P15662   2.363   5.687   6.251 -0.3828 -0.0353 -0.5339
  143OSM    O1315663   2.331   5.570   6.333 -0.1890  0.3694  0.1747
  143OSM    O1415664   2.470   5.697   6.148 -0.2308 -0.2252 -0.3141
  143OSM    O1115665   2.382   5.819   6.340 -0.0721 -0.4300 -0.3668
  143OSM    O1215666   2.228   5.713   6.176  0.0446  0.1819  0.1708
  143OSM    C1S15667   2.359   5.815   6.478 -0.1183  0.0291 -0.9839
  143OSM    H1S15668   2.271   5.752   6.504 -0.4264  1.0606  0.6287
  143OSM    H1T15669   2.317   5.914   6.507  1.3338 -0.1946  2.2613
  143OSM     NF15670   2.437   5.812   6.707 -0.1376  0.2090  0.2517
  143OSM    HNF15671   2.474   5.898   6.741  1.6858  0.0308 -1.1226
  143OSM    C2S15672   2.476   5.783   6.573 -0.1812 -0.0463 -0.1786
  143OSM    H2S15673   2.492   5.673   6.576  0.1876  0.0238  0.7116
  143OSM    C3S15674   2.605   5.856   6.520 -0.2149 -0.4584 -0.9962
  143OSM    H3S15675   2.589   5.964   6.498 -1.1771 -0.4811 -0.4609
  143OSM     O315676   2.644   5.814   6.392  0.2874  0.0458 -0.5468
  143OSM    HO315677   2.572   5.769   6.347  1.5161 -0.6708 -1.8718
  143OSM    C4S15678   2.719   5.843   6.619 -0.1032  0.2564 -1.0558
  143OSM    H4S15679   2.751   5.738   6.626  0.6573  0.5635  0.3969
  143OSM    C5S15680   2.786   5.939   6.684  0.5076 -0.1074 -1.1295
  143OSM    H5S15681   2.746   6.041   6.676  0.0887 -0.2826 -1.2965
  143OSM    C6S15682   2.903   5.917   6.780 -0.4842 -0.2577  0.0534
  143OSM    H6S15683   2.863   5.909   6.884  1.4368  0.5086  0.8859
  143OSM    H6T15684   2.973   6.003   6.776  0.9056 -1.3537  0.0288
  143OSM    C7S15685   2.990   5.791   6.760  0.0976  0.6458  0.1990
  143OSM    H7S15686   3.046   5.803   6.665 -0.3503 -0.2377 -0.1916
  143OSM    H7T15687   2.931   5.697   6.766 -0.4742  0.9868 -0.0203
  143OSM    C8S15688   3.109   5.763   6.859 -0.2101  0.2842 -0.9405
  143OSM    H8S15689   3.164   5.859   6.856 -1.5314  1.0680 -0.7979
  143OSM    H8T15690   3.161   5.679   6.807 -0.6335  0.4375 -1.6223
  143OSM    C9S15691   3.075   5.749   7.005 -0.6160  0.0644 -0.3072
  143OSM    H9S15692   2.995   5.673   7.000 -0.9805  0.4060  0.1722
  143OSM    H9T15693   3.035   5.849   7.035 -0.0317  0.2702 -0.1938
  143OSM   C10S15694   3.187   5.713   7.104 -0.5143  0.3280  0.3582
  143OSM   H10S15695   3.280   5.773   7.097  0.6630 -1.1773  2.0971
  143OSM   H10T15696   3.213   5.610   7.074  0.2005  1.1986 -2.2462
  143OSM   C11S15697   3.135   5.717   7.245  0.0065  0.2477  0.1272
  143OSM   H11S15698   3.047   5.650   7.241 -0.4347  0.8462 -0.8812
  143OSM   H11T15699   3.110   5.822   7.273  3.0955  1.4063 -1.0025
  143OSM   C12S15700   3.239   5.672   7.348 -0.6322  0.2657  0.3911
  143OSM   H12S15701   3.313   5.756   7.350 -0.0105 -0.2145 -0.9500
  143OSM   H12T15702   3.292   5.581   7.312  0.0845  1.4823 -1.8506
  143OSM   C13S15703   3.187   5.664   7.485 -0.1786 -0.1724 -0.1652
  143OSM   H13S15704   3.102   5.593   7.489 -0.6627  0.4374  0.6573
  143OSM   H13T15705   3.154   5.753   7.543 -0.0505 -1.7546  2.4871
  143OSM   C14S15706   3.296   5.606   7.586  0.2946  0.2688 -0.1101
  143OSM   H14S15707   3.253   5.625   7.687 -0.4662 -0.7908 -0.2208
  143OSM   H14T15708   3.393   5.657   7.571  0.9158 -0.7963  0.1756
  143OSM   C15S15709   3.312   5.460   7.567 -0.5890 -0.2187 -0.6008
  143OSM   H15S15710   3.339   5.447   7.459 -1.0505  2.2030 -1.0757
  143OSM   H15T15711   3.228   5.393   7.593  0.2890 -0.5478  1.5867
  143OSM   C16S15712   3.441   5.414   7.641  0.1454 -0.1996  0.8166
  143OSM   H16S15713   3.525   5.475   7.601 -1.8635  1.8063 -0.5458
  143OSM   H16T15714   3.465   5.309   7.612 -0.5170 -0.1403  0.0291
  143OSM   C17S15715   3.453   5.422   7.790  1.0832  0.3643 -0.0338
  143OSM   H17S15716   3.361   5.402   7.848  0.9796 -0.0743 -0.3483
  143OSM   H17T15717   3.482   5.528   7.808 -1.8331  1.0660  0.9512
  143OSM   C18S15718   3.570   5.341   7.843 -0.7279 -0.7146 -0.0605
  143OSM   H18S15719   3.591   5.362   7.950 -0.7782 -1.0917  0.0224
  143OSM   H18T15720   3.666   5.353   7.789  0.0913  2.3607  1.7831
  143OSM   H18U15721   3.531   5.237   7.848 -1.2607 -0.7147 -2.6268
  143OSM    C1F15722   2.367   5.724   6.782  0.0631  0.7097  0.0331
  143OSM     OF15723   2.353   5.607   6.744  0.0958 -0.4080 -0.3928
  143OSM    C2F15724   2.308   5.768   6.914 -0.1782  1.0619 -0.1779
  143OSM    H2F15725   2.234   5.850   6.901  0.0885  1.2628 -0.4671
  143OSM    H2G15726   2.394   5.804   6.974  0.6018 -1.8346  0.5750
  143OSM    C3F15727   2.239   5.658   6.998 -0.1475 -0.1132 -0.2154
  143OSM    H3F15728   2.308   5.570   6.999 -1.8411 -1.5027  0.1690
  143OSM    H3G15729   2.145   5.627   6.947  1.7516 -2.6341 -2.5267
  143OSM    C4F15730   2.226   5.693   7.151 -0.0914  0.9858 -0.3210
  143OSM    H4F15731   2.183   5.605   7.203  1.1974 -0.1199 -1.0826
  143OSM    H4G15732   2.158   5.782   7.156 -1.6281 -0.2078  1.3484
  143OSM    C5F15733   2.361   5.720   7.227  0.0912 -0.0770  0.0223
  143OSM    H5F15734   2.417   5.802   7.177 -0.2930 -1.4630 -2.8520
  143OSM    H5G15735   2.417   5.631   7.193 -2.4384 -1.1714 -1.5382
  143OSM    C6F15736   2.341   5.746   7.377 -0.2415  0.3516 -0.3200
  143OSM    H6F15737   2.284   5.661   7.417 -0.9142  0.5023 -0.9339
  143OSM    H6G15738   2.276   5.835   7.392 -0.3695  0.2261 -0.1387
  143OSM    C7F15739   2.468   5.763   7.461  0.1850 -0.1969 -0.3498
  143OSM    H7F15740   2.534   5.840   7.416  1.5832 -0.3847  1.3019
  143OSM    H7G15741   2.508   5.659   7.465 -0.8195 -0.5638  0.5788
  143OSM    C8F15742   2.429   5.804   7.607  0.5198  0.4604  0.2474
  143OSM    H8F15743   2.530   5.817   7.653  1.1006 -0.0479 -0.8509
  143OSM    H8G15744   2.381   5.719   7.659  1.5456  0.2094  0.8272
  143OSM    C9F15745   2.345   5.927   7.632 -0.1123  0.1621  0.2032
  143OSM    H9F15746   2.317   5.978   7.538  1.3354 -1.3152 -1.0919
  143OSM   C10F15747   2.300   5.958   7.751  0.0125 -0.5395  0.1283
  143OSM   H10F15748   2.260   6.061   7.758  1.6071  0.2194 -1.0650
  143OSM   C11F15749   2.332   5.888   7.873  0.0727  0.6792 -0.6888
  143OSM   H11F15750   2.382   5.952   7.950 -0.5408 -1.7345  1.8761
  143OSM   H11G15751   2.407   5.806   7.863  1.4071  1.6850  0.5950
  143OSM   C12F15752   2.219   5.807   7.938  0.5212  0.4480 -0.1483
  143OSM   H12F15753   2.259   5.711   7.979  0.4399 -0.0224 -1.1359
  143OSM   H12G15754   2.159   5.768   7.853  1.0746  3.7133 -2.1858
  143OSM   C13F15755   2.123   5.876   8.035 -0.9397 -0.2101 -0.0213
  143OSM   H13F15756   2.027   5.821   8.028 -1.0348  0.0626 -0.9932
  143OSM   H13G15757   2.105   5.978   7.995 -0.3410 -0.8296 -1.9589
  143OSM   C14F15758   2.174   5.869   8.179 -0.1795  0.7024 -0.2050
  143OSM   H14F15759   2.278   5.907   8.177 -0.3338  1.1594  0.3787
  143OSM   H14G15760   2.175   5.763   8.215  3.9794  0.5196 -0.2976
  143OSM   C15F15761   2.078   5.942   8.281 -0.8812 -0.4663  0.4317
  143OSM   H15F15762   2.121   5.918   8.380  0.2205  0.7872  0.2880
  143OSM   H15G15763   1.984   5.883   8.268  0.8380 -3.0350 -1.1213
  143OSM   C16F15764   2.078   6.091   8.256 -0.4102 -0.1918 -0.8349
  143OSM   H16F15765   2.010   6.122   8.338 -0.8061  0.9790 -1.5783
  143OSM   H16G15766   2.045   6.126   8.156  0.6500 -0.2045 -1.1993
  143OSM   C17F15767   2.213   6.157   8.286 -0.0543  0.0476  0.1497
  143OSM   H17F15768   2.297   6.133   8.217 -0.8430 -0.5849 -0.6035
  143OSM   H17G15769   2.235   6.117   8.388  1.1282  0.5177  0.1035
  143OSM   C18F15770   2.199   6.308   8.298  0.2619 -0.9616  0.2717
  143OSM   H18F15771   2.201   6.351   8.195  2.1629 -0.1454  0.5955
  143OSM   H18G15772   2.274   6.348   8.370 -2.7394  0.3884  2.8832
  143OSM   H18H15773   2.099   6.341   8.332 -0.1598  0.1918 -1.8819
  144OSM      N15774   2.611   5.028   6.083  0.4640  0.3132  0.8704
  144OSM    C1515775   2.692   4.894   6.074  0.4598  0.3211  0.1581
  144OSM   H15A15776   2.739   4.886   5.977 -0.8245  2.7438 -0.7764
  144OSM   H15B15777   2.626   4.810   6.085  2.5559 -1.2715  1.0315
  144OSM   H15C15778   2.764   4.894   6.154  2.4594 -0.9922 -1.5274
  144OSM    C1415779   2.507   5.030   5.977  0.4166 -0.0871 -0.2305
  144OSM   H14A15780   2.438   5.107   6.007  1.3933  0.0068  2.0106
  144OSM   H14B15781   2.452   4.938   5.967 -4.0722  2.5631 -2.7576
  144OSM   H14C15782   2.548   5.052   5.880 -1.9836 -0.4833 -1.3994
  144OSM    C1315783   2.550   5.027   6.215 -0.2898 -0.7366  0.4772
  144OSM   H13A15784   2.468   5.097   6.223 -1.2513 -1.8617  0.6487
  144OSM   H13B15785   2.623   5.052   6.291 -0.5820 -0.8757  0.8024
  144OSM   H13C15786   2.517   4.929   6.247  0.3184 -1.4048 -0.8537
  144OSM    C1215787   2.699   5.146   6.067 -0.1542  0.7218  0.1973
  144OSM   H12A15788   2.727   5.151   5.963 -0.6293 -0.3952  0.0103
  144OSM   H12B15789   2.791   5.128   6.119  0.2332 -0.7423 -0.9306
  144OSM    C1115790   2.642   5.288   6.109 -0.7014  0.3347  0.3762
  144OSM   H11A15791   2.536   5.304   6.080 -1.5727  1.2758  3.5939
  144OSM   H11B15792   2.705   5.368   6.066  1.6785 -2.5862 -2.0284
  144OSM      P15793   2.776   5.345   6.329  0.4229  0.2620 -0.1382
  144OSM    O1315794   2.892   5.268   6.287 -0.3896 -0.3430 -0.1095
  144OSM    O1415795   2.792   5.489   6.299  0.4109  0.2175 -0.0478
  144OSM    O1115796   2.738   5.311   6.480  0.1214 -0.0011 -0.6023
  144OSM    O1215797   2.641   5.298   6.251 -0.6800 -0.5892  0.2143
  144OSM    C1S15798   2.610   5.347   6.532 -0.0739 -0.1072  0.0726
  144OSM    H1S15799   2.529   5.276   6.509 -0.0606 -0.2642  0.5043
  144OSM    H1T15800   2.576   5.444   6.489 -0.8277 -0.7655 -0.8729
  144OSM     NF15801   2.487   5.364   6.747  0.4515  0.3160  0.1795
  144OSM    HNF15802   2.453   5.457   6.757 -0.5836 -0.0603  0.2360
  144OSM    C2S15803   2.621   5.355   6.684  0.5616 -0.0441 -0.6056
  144OSM    H2S15804   2.667   5.267   6.734 -1.8128 -2.0720 -1.7863
  144OSM    C3S15805   2.709   5.472   6.717 -0.6025 -0.0887 -0.6100
  144OSM    H3S15806   2.648   5.559   6.685  0.2218  1.5555  1.9694
  144OSM     O315807   2.839   5.474   6.656 -0.1907 -0.4808 -0.8309
  144OSM    HO315808   2.838   5.388   6.613 -0.5692 -0.4601 -0.8721
  144OSM    C4S15809   2.728   5.502   6.868  0.2327  0.2881  0.0779
  144OSM    H4S15810   2.748   5.412   6.928  1.5001  0.0360 -0.6944
  144OSM    C5S15811   2.723   5.620   6.932 -0.2671  0.4282 -0.5258
  144OSM    H5S15812   2.704   5.709   6.870 -2.0739 -0.8864 -1.9625
  144OSM    C6S15813   2.743   5.639   7.085 -0.1967  0.2575 -0.0133
  144OSM    H6S15814   2.653   5.687   7.128 -0.1621 -0.9397  1.5166
  144OSM    H6T15815   2.826   5.709   7.111  2.2285 -1.8265 -1.6395
  144OSM    C7S15816   2.782   5.513   7.171  0.0860  0.1074  0.3641
  144OSM    H7S15817   2.886   5.490   7.138  0.0489  1.0768 -0.4694
  144OSM    H7T15818   2.712   5.434   7.137 -0.3102  0.0281  1.3400
  144OSM    C8S15819   2.772   5.527   7.321 -0.2470  0.0096 -0.4402
  144OSM    H8S15820   2.670   5.550   7.360 -0.1531 -2.2244  1.3603
  144OSM    H8T15821   2.837   5.615   7.342 -0.9172  0.6922 -1.1579
  144OSM    C9S15822   2.824   5.415   7.407 -0.4642 -0.9468  0.4158
  144OSM    H9S15823   2.919   5.373   7.366  0.5496  2.0781 -0.5588
  144OSM    H9T15824   2.760   5.325   7.398 -2.0794  0.1101  0.8936
  144OSM   C10S15825   2.837   5.451   7.550 -0.3780 -0.7096 -0.0675
  144OSM   H10S15826   2.746   5.511   7.571 -1.0551 -1.6035 -0.4285
  144OSM   H10T15827   2.933   5.506   7.565 -0.5857 -0.3499 -0.0411
  144OSM   C11S15828   2.819   5.335   7.648  0.2235  0.4638  0.5401
  144OSM   H11S15829   2.892   5.257   7.616 -2.5955 -1.8274 -0.7314
  144OSM   H11T15830   2.718   5.290   7.640  0.3495  0.0764  1.0359
  144OSM   C12S15831   2.858   5.364   7.797 -0.2549 -0.4560  0.0833
  144OSM   H12S15832   2.859   5.271   7.857  2.8187  1.3710  3.2886
  144OSM   H12T15833   2.771   5.431   7.818 -0.1914 -0.5526  0.6692
  144OSM   C13S15834   2.992   5.430   7.829 -0.6563 -0.6362  0.2067
  144OSM   H13S15835   2.997   5.524   7.771 -1.1435 -1.5878 -1.4406
  144OSM   H13T15836   3.078   5.372   7.791 -0.3588  0.1423 -0.3324
  144OSM   C14S15837   3.017   5.461   7.982  0.1598 -0.1329  0.0136
  144OSM   H14S15838   3.110   5.518   8.004  0.2066  0.2765 -1.1831
  144OSM   H14T15839   3.022   5.359   8.026  0.0926 -1.2521 -2.3669
  144OSM   C15S15840   2.896   5.530   8.039  0.3683 -0.9428  0.5595
  144OSM   H15S15841   2.922   5.541   8.147  2.6301 -0.4633  0.0124
  144OSM   H15T15842   2.807   5.463   8.031  0.7647 -1.2422 -3.1711
  144OSM   C16S15843   2.880   5.684   7.993  0.7643 -0.8602 -0.1452
  144OSM   H16S15844   2.850   5.681   7.886  0.3577  5.5853 -0.5489
  144OSM   H16T15845   2.972   5.747   8.001 -0.2417  0.5619  0.5385
  144OSM   C17S15846   2.768   5.776   8.048 -0.2386  0.0541  0.5974
  144OSM   H17S15847   2.668   5.730   8.036 -0.3622  0.1387  1.2662
  144OSM   H17T15848   2.772   5.875   7.998 -2.2344 -0.4275 -0.6004
  144OSM   C18S15849   2.775   5.807   8.192  0.1859  0.2043  0.0022
  144OSM   H18S15850   2.765   5.716   8.253 -1.2073 -0.6276 -1.4078
  144OSM   H18T15851   2.694   5.879   8.215  2.0752  2.1909  0.8100
  144OSM   H18U15852   2.872   5.856   8.218  0.4859  0.1947 -1.0178
  144OSM    C1F15853   2.414   5.257   6.774  0.3599 -0.0010  0.0717
  144OSM     OF15854   2.461   5.144   6.749  0.5275 -1.1193 -0.1639
  144OSM    C2F15855   2.273   5.288   6.819  0.3180  0.2640  0.0797
  144OSM    H2F15856   2.202   5.270   6.735 -0.4414  1.8665  0.3399
  144OSM    H2G15857   2.248   5.393   6.844 -1.9601  0.0738 -1.0608
  144OSM    C3F15858   2.238   5.214   6.945 -0.3835  0.3187 -0.8861
  144OSM    H3F15859   2.247   5.104   6.928  0.4168  0.4347 -1.2417
  144OSM    H3G15860   2.132   5.232   6.972 -1.0486 -2.5369 -1.2256
  144OSM    C4F15861   2.323   5.264   7.058 -0.1000  0.0950 -0.0897
  144OSM    H4F15862   2.315   5.373   7.080  1.6560  0.0803  0.8612
  144OSM    H4G15863   2.427   5.230   7.038 -0.9019 -2.9891  0.5338
  144OSM    C5F15864   2.301   5.194   7.192  0.0985  0.0220 -0.6938
  144OSM    H5F15865   2.339   5.093   7.219 -1.2724  0.2587  2.5982
  144OSM    H5G15866   2.192   5.187   7.211  0.1967  0.6661  0.1459
  144OSM    C6F15867   2.340   5.293   7.306 -0.6144 -0.1077  0.0773
  144OSM    H6F15868   2.262   5.372   7.293 -2.2886 -1.3975  1.7873
  144OSM    H6G15869   2.442   5.326   7.274 -0.3009 -0.8393  0.3026
  144OSM    C7F15870   2.343   5.227   7.446  0.7244 -0.5136  0.7286
  144OSM    H7F15871   2.428   5.156   7.437  0.7456 -0.2926 -1.2559
  144OSM    H7G15872   2.249   5.169   7.450  0.2137  0.2499  0.2684
  144OSM    C8F15873   2.363   5.324   7.566 -0.6150  0.4406 -0.9751
  144OSM    H8F15874   2.290   5.408   7.557 -1.5268 -0.3834 -1.4793
  144OSM    H8G15875   2.456   5.382   7.546 -0.1433  0.2050  0.4060
  144OSM    C9F15876   2.341   5.260   7.700 -0.2498  0.7620 -0.6271
  144OSM    H9F15877   2.403   5.172   7.722 -1.6357  0.3300  1.8855
  144OSM   C10F15878   2.247   5.291   7.790  0.9077  0.3077 -0.0957
  144OSM   H10F15879   2.240   5.222   7.875  1.7204  0.0268 -0.2470
  144OSM   C11F15880   2.141   5.390   7.772  0.0582 -0.2696 -0.4720
  144OSM   H11F15881   2.090   5.378   7.674 -2.2139  1.2895  0.4243
  144OSM   H11G15882   2.178   5.492   7.797  2.0836 -0.8609 -0.9096
  144OSM   C12F15883   2.024   5.360   7.878 -0.2956  0.0093  0.2337
  144OSM   H12F15884   2.074   5.362   7.977  1.6351  0.8528 -0.7015
  144OSM   H12G15885   1.975   5.262   7.863  0.9685 -0.2803 -2.6563
  144OSM   C13F15886   1.923   5.475   7.883  0.0998  0.0056 -0.0860
  144OSM   H13F15887   1.835   5.444   7.822  0.1648  3.2222 -2.0269
  144OSM   H13G15888   1.965   5.562   7.829  0.1267  0.9601  1.4372
  144OSM   C14F15889   1.881   5.511   8.022  0.1449 -0.7994  0.6860
  144OSM   H14F15890   1.971   5.530   8.085  0.8737  1.6325 -0.8991
  144OSM   H14G15891   1.823   5.434   8.076 -0.8870 -0.7374 -0.2756
  144OSM   C15F15892   1.791   5.629   8.010 -0.4364 -1.1486 -0.0266
  144OSM   H15F15893   1.705   5.584   7.957  0.3049 -0.9401 -1.4767
  144OSM   H15G15894   1.843   5.707   7.950 -0.9191 -1.6695 -1.1434
  144OSM   C16F15895   1.755   5.673   8.148 -0.1538  0.0680  0.4571
  144OSM   H16F15896   1.835   5.727   8.203  0.7394  0.6976 -1.4080
  144OSM   H16G15897   1.718   5.587   8.208 -0.8529 -0.1343 -0.2376
  144OSM   C17F15898   1.638   5.774   8.143  0.3158 -0.0265 -0.4535
  144OSM   H17F15899   1.551   5.711   8.116  0.2298  0.0105 -0.2635
  144OSM   H17G15900   1.646   5.845   8.058  0.0206 -0.0602 -0.5119
  144OSM   C18F15901   1.604   5.837   8.276 -0.0307  0.3306 -0.4756
  144OSM   H18F15902   1.681   5.908   8.310  0.9687 -0.0404 -1.8589
  144OSM   H18G15903   1.599   5.757   8.353  1.0239  0.8667  0.1684
  144OSM   H18H15904   1.509   5.893   8.262 -1.1027 -0.6693  2.1695
  145SAPE     N15905   1.497   6.731  10.659 -0.4408  0.0154 -0.0851
  145SAPE   HN115906   1.467   6.647  10.713 -2.0657 -0.0067 -0.9873
  145SAPE   HN215907   1.510   6.708  10.559 -0.9393  2.8878 -0.9017
  145SAPE   HN315908   1.584   6.762  10.709  0.1153  1.6033 -1.9089
  145SAPE   C1215909   1.393   6.833  10.672  0.1951 -0.6685 -0.4944
  145SAPE  H12A15910   1.426   6.938  10.656 -1.8645  0.4233  1.7119
  145SAPE  H12B15911   1.359   6.833  10.778 -5.1201 -2.3515 -1.8824
  145SAPE   C1115912   1.273   6.812  10.577  0.4230  0.1634 -0.2528
  145SAPE  H11A15913   1.237   6.707  10.579  1.5865 -0.2979 -1.8600
  145SAPE  H11B15914   1.304   6.841  10.474 -0.2524 -1.8075 -1.0567
  145SAPE     P15915   1.134   7.040  10.579  0.4911  0.0872 -0.0840
  145SAPE   O1315916   1.003   7.072  10.645 -0.3099 -0.1973 -0.0603
  145SAPE   O1415917   1.248   7.134  10.611 -0.0550 -0.2253 -0.0930
  145SAPE   O1215918   1.165   6.892  10.626  0.1983  0.3440  0.0258
  145SAPE   O1115919   1.132   7.024  10.419  0.6414  0.1529 -0.1285
  145SAPE    C115920   1.032   6.949  10.349  0.4085 -0.2005 -0.0429
  145SAPE    HA15921   1.006   6.869  10.422  3.4400 -0.3264  1.0613
  145SAPE    HB15922   0.953   7.017  10.312  0.0708  0.0311  1.0550
  145SAPE    C215923   1.094   6.866  10.233 -0.3451 -0.3194 -0.0206
  145SAPE    HS15924   1.204   6.857  10.243 -0.4134 -2.4763 -0.6747
  145SAPE   O2115925   1.060   6.941  10.113  0.2350 -0.3579 -0.6530
  145SAPE   C2115926   1.144   6.936  10.013  0.1662 -0.2684 -0.2902
  145SAPE   O2215927   1.247   6.874  10.008  0.4659  0.2573  0.5953
  145SAPE   C2215928   1.096   7.030   9.901  0.7106 -0.2145 -0.8599
  145SAPE   H2R15929   0.996   7.068   9.929 -0.3210 -1.5795 -2.4772
  145SAPE   H2S15930   1.165   7.116   9.888  2.1933 -0.4717  3.5453
  145SAPE    C315931   1.030   6.730  10.213 -0.1538 -0.0080 -0.4350
  145SAPE    HX15932   0.931   6.750  10.167  0.5442 -1.2628 -2.6083
  145SAPE    HY15933   1.010   6.680  10.310  1.5757 -0.0867 -0.0886
  145SAPE   O3115934   1.106   6.644  10.120  0.1037 -0.4144 -0.3726
  145SAPE   C3115935   1.202   6.570  10.173 -0.5103  0.2265 -0.9253
  145SAPE   O3215936   1.234   6.565  10.292 -0.1447 -0.1473  0.3972
  145SAPE   C3215937   1.277   6.480  10.073  0.7480 -0.0495 -0.1287
  145SAPE   H2X15938   1.274   6.374  10.107 -1.9915  0.6193  2.0882
  145SAPE   H2Y15939   1.380   6.519  10.064  0.3166  1.5331  1.2060
  145SAPE   C2315940   1.066   6.955   9.772 -0.3387  0.1102  0.5855
  145SAPE   H3R15941   1.005   6.865   9.795  0.5442 -0.5021  0.5940
  145SAPE   H3S15942   1.157   6.920   9.719 -2.1012 -2.2698 -1.0586
  145SAPE   C2415943   0.976   7.048   9.674  0.3495  0.3348  0.9968
  145SAPE   H4R15944   0.884   7.063   9.735  1.5890  0.1759  2.9800
  145SAPE   H4S15945   0.949   6.988   9.584  0.4182 -0.5216  1.5358
  145SAPE   C2515946   1.048   7.169   9.635  0.2238 -0.3530  0.3325
  145SAPE   H5R15947   1.107   7.215   9.716  0.0522 -0.1636  0.3511
  145SAPE   C2615948   1.051   7.230   9.519 -0.6400  0.3222 -0.2245
  145SAPE   H6R15949   1.117   7.317   9.518  0.2794 -0.3534 -0.1020
  145SAPE   C2715950   0.990   7.192   9.386  0.0446  0.0644 -0.4989
  145SAPE   H7R15951   0.887   7.160   9.411  0.7894 -0.2375  2.7250
  145SAPE   H7S15952   1.036   7.096   9.354  1.8228  1.0994 -1.1889
  145SAPE   C2815953   0.989   7.291   9.272 -0.8060 -0.2744  0.0004
  145SAPE   H8R15954   1.037   7.387   9.296 -1.3131 -0.0510  0.1150
  145SAPE   C2915955   0.936   7.267   9.152  0.2660 -0.5897 -0.2629
  145SAPE   H9R15956   0.925   7.355   9.085  1.9875 -1.5264 -1.8779
  145SAPE  C21015957   0.849   7.152   9.108 -0.5089 -0.4253  0.2554
  145SAPE  H10R15958   0.745   7.189   9.119 -0.9603 -2.2281  3.2950
  145SAPE  H10S15959   0.852   7.062   9.174  0.1321 -1.8264 -1.6202
  145SAPE  C21115960   0.855   7.116   8.962  0.0891  0.4673  0.2292
  145SAPE  H11R15961   0.951   7.119   8.908 -0.7846 -0.4682 -1.4609
  145SAPE  C21215962   0.758   7.059   8.885 -0.3553  1.2310 -0.0515
  145SAPE  H12R15963   0.787   7.035   8.782 -1.2500  0.0417 -0.0487
  145SAPE  C21315964   0.615   7.025   8.919 -0.4639  0.0379  0.7547
  145SAPE  H13R15965   0.538   7.067   8.851 -1.9724 -1.7717  1.2482
  145SAPE  H13S15966   0.598   7.085   9.011  1.8809  2.3592 -0.2048
  145SAPE  C21415967   0.594   6.877   8.940  0.6097 -0.5260 -0.8427
  145SAPE  H14R15968   0.635   6.846   9.037 -0.3736  0.7402  0.0029
  145SAPE  C21515969   0.507   6.795   8.875  0.4858 -0.1401 -0.6429
  145SAPE  H15R15970   0.510   6.690   8.906 -0.4826  0.2173  0.7920
  145SAPE  C21615971   0.415   6.831   8.767  0.7252  0.9724 -0.3611
  145SAPE  H16R15972   0.467   6.804   8.673  0.6763  2.5952 -0.8855
  145SAPE  H16S15973   0.398   6.941   8.765 -0.8297  0.7487 -1.7579
  145SAPE  C21715974   0.282   6.748   8.765 -0.3716 -0.1547 -0.2651
  145SAPE  H17R15975   0.210   6.770   8.846  0.3519 -0.4250  0.4644
  145SAPE  H17S15976   0.301   6.640   8.779 -1.8476 -0.5697 -1.2193
  145SAPE  C21815977   0.217   6.764   8.622 -0.4045  0.5053 -0.1685
  145SAPE  H18R15978   0.283   6.718   8.545  0.5713 -0.7118  1.3188
  145SAPE  H18S15979   0.215   6.873   8.602 -0.1846  0.1486 -2.3617
  145SAPE  C21915980   0.078   6.701   8.616 -0.4311  0.0236  0.2520
  145SAPE  H19R15981   0.038   6.717   8.514 -1.0422 -0.0313  0.4768
  145SAPE  H19S15982   0.015   6.753   8.692  0.5086  0.7169  0.5747
  145SAPE  C22015983   0.082   6.548   8.639  0.2386 -0.2614 -0.3754
  145SAPE  H20R15984   0.147   6.496   8.565  2.4381  1.7364  0.0316
  145SAPE  H20S15985  -0.020   6.504   8.641  0.2237 -0.2254 -0.3460
  145SAPE  H20T15986   0.125   6.529   8.739  0.9932 -0.2129 -0.6834
  145SAPE   C3315987   1.218   6.488   9.937  1.1037 -0.0764 -0.5618
  145SAPE   H3X15988   1.211   6.596   9.908 -1.6937  0.3571  1.2901
  145SAPE   H3Y15989   1.113   6.453   9.947  0.8672  1.0352  1.4775
  145SAPE   C3415990   1.296   6.408   9.831 -0.1558 -0.5102  0.3588
  145SAPE   H4X15991   1.304   6.310   9.884  1.4626 -0.1711  0.8055
  145SAPE   H4Y15992   1.398   6.450   9.842 -0.3573 -0.2825  1.4600
  145SAPE   C3515993   1.233   6.410   9.689  0.7287 -0.1667  0.1909
  145SAPE   H5X15994   1.208   6.502   9.631  0.6431 -0.6589 -0.5775
  145SAPE   H5Y15995   1.139   6.351   9.689  1.2811 -1.1334 -1.6482
  145SAPE   C3615996   1.319   6.334   9.588 -0.4319 -0.3014  0.5492
  145SAPE   H6X15997   1.343   6.229   9.615 -0.5588 -0.3978  0.2933
  145SAPE   H6Y15998   1.421   6.378   9.599  0.0243 -1.1641 -0.1426
  145SAPE   C3715999   1.267   6.345   9.443 -0.2867 -0.5257  0.6620
  145SAPE   H7X16000   1.253   6.454   9.424  0.7854 -0.6346 -0.9719
  145SAPE   H7Y16001   1.174   6.289   9.417 -0.9716  0.9744 -0.2919
  145SAPE   C3816002   1.379   6.315   9.344 -0.1439 -0.7166  0.6508
  145SAPE   H8X16003   1.406   6.209   9.363 -0.6564 -0.5682  2.3505
  145SAPE   H8Y16004   1.469   6.379   9.351 -0.0592 -0.3767 -2.1292
  145SAPE   C3916005   1.316   6.331   9.199 -0.4022  0.0615  0.0976
  145SAPE   H9X16006   1.295   6.440   9.193  0.2662  0.1279 -1.5783
  145SAPE   H9Y16007   1.223   6.272   9.192 -1.0262  0.9309  0.8542
  145SAPE  C31016008   1.423   6.308   9.087 -0.0344 -0.3655 -0.2174
  145SAPE  H10X16009   1.483   6.220   9.119  0.8102  0.2212 -0.1370
  145SAPE  H10Y16010   1.473   6.407   9.074  0.5949 -0.8216 -1.4975
  145SAPE  C31116011   1.368   6.271   8.948  0.3625 -0.2394 -0.1709
  145SAPE  H11X16012   1.316   6.173   8.955  0.4538 -0.1558  2.4267
  145SAPE  H11Y16013   1.455   6.263   8.880 -0.3233  0.1261 -1.1208
  145SAPE  C31216014   1.268   6.374   8.888 -0.3108  0.1277 -0.4436
  145SAPE  H12X16015   1.185   6.397   8.957  1.0399 -0.1101  1.3208
  145SAPE  H12Y16016   1.215   6.333   8.799  0.1159 -1.5615  0.0324
  145SAPE  C31316017   1.341   6.498   8.844  0.1542  0.4266  0.4225
  145SAPE  H13X16018   1.432   6.475   8.785  0.6165  3.4420 -0.2364
  145SAPE  H13Y16019   1.381   6.560   8.927 -0.2783  1.9377 -0.4362
  145SAPE  C31416020   1.248   6.593   8.766 -0.1035 -0.3891 -0.4988
  145SAPE  H14X16021   1.156   6.609   8.827 -0.1020 -0.1617 -0.5535
  145SAPE  H14Y16022   1.217   6.531   8.678  0.0644  0.6256 -1.2983
  145SAPE  C31516023   1.309   6.732   8.722  0.1932  0.5789 -0.1996
  145SAPE  H15X16024   1.409   6.714   8.677  0.2762 -0.4494  0.3805
  145SAPE  H15Y16025   1.313   6.797   8.812  0.4230 -0.4597  0.5495
  145SAPE  C31616026   1.218   6.798   8.613  0.5295  0.3810  0.6775
  145SAPE  H16X16027   1.134   6.834   8.676 -0.9165 -1.5981  0.0118
  145SAPE  H16Y16028   1.176   6.721   8.544 -0.3211  0.8336  0.6733
  145SAPE  C31716029   1.286   6.912   8.528  0.5073 -0.0724 -0.8118
  145SAPE  H17X16030   1.383   6.869   8.492  1.5391  0.2514  1.4140
  145SAPE  H17Y16031   1.313   6.989   8.603 -1.1340 -1.8847  1.7913
  145SAPE  C31816032   1.205   6.966   8.414 -0.4882  0.2431 -0.2066
  145SAPE  H18X16033   1.263   7.026   8.341  1.3623 -1.9737 -0.6752
  145SAPE  H18Y16034   1.128   7.035   8.456  0.5503  1.9574 -1.0122
  145SAPE  H18Z16035   1.161   6.883   8.353 -1.0384 -0.6726  1.3799
  146SAPE     N16036   0.213   1.528  10.864 -0.5797 -0.2514  0.1782
  146SAPE   HN116037   0.156   1.441  10.857 -0.5507 -0.3983  1.4282
  146SAPE   HN216038   0.260   1.556  10.776 -1.2376 -0.0738 -0.1211
  146SAPE   HN316039   0.290   1.513  10.933  1.2780  2.3985 -1.1754
  146SAPE   C1216040   0.130   1.647  10.904 -0.4829  0.1997  0.9079
  146SAPE  H12A16041   0.119   1.640  11.014 -0.4226  1.0117  0.9765
  146SAPE  H12B16042   0.038   1.651  10.842 -0.8599  1.4886  1.5064
  146SAPE   C1116043   0.203   1.777  10.868 -0.9462 -0.3279  0.5070
  146SAPE  H11A16044   0.272   1.794  10.954 -0.5322 -0.8420  0.2840
  146SAPE  H11B16045   0.135   1.864  10.872 -1.7485 -0.7833 -1.7297
  146SAPE     P16046   0.396   1.856  10.703 -0.2924  0.0140 -0.1220
  146SAPE   O1316047   0.498   1.845  10.808  0.3586  0.0064  0.3007
  146SAPE   O1416048   0.440   1.823  10.565  0.4326 -0.1975  0.1650
  146SAPE   O1216049   0.269   1.767  10.743  0.0382  0.2256  0.1584
  146SAPE   O1116050   0.335   2.000  10.706 -0.6384  0.3931 -0.7455
  146SAPE    C116051   0.235   2.060  10.632  0.1698  0.1256  0.2909
  146SAPE    HA16052   0.177   1.976  10.589 -0.3404  0.3550  0.5285
  146SAPE    HB16053   0.162   2.118  10.691 -1.3804 -0.6485 -0.8065
  146SAPE    C216054   0.289   2.157  10.524  0.1588 -0.4047  0.2130
  146SAPE    HS16055   0.205   2.218  10.484  0.1663  0.4375  1.4236
  146SAPE   O2116056   0.366   2.094  10.423 -0.2181  0.2737 -0.1320
  146SAPE   C2116057   0.286   2.037  10.333 -0.0590 -0.1772  0.4163
  146SAPE   O2216058   0.166   2.063  10.321 -0.4240 -0.0585  0.1079
  146SAPE   C2216059   0.368   1.937  10.250  0.2059  0.4041  0.1001
  146SAPE   H2R16060   0.471   1.974  10.232  0.3259 -0.5730 -1.4535
  146SAPE   H2S16061   0.388   1.851  10.318  2.9736 -0.3790 -1.5456
  146SAPE    C316062   0.373   2.264  10.594  0.1947 -0.5879 -0.3194
  146SAPE    HX16063   0.462   2.207  10.628 -0.7790 -2.6237 -1.0481
  146SAPE    HY16064   0.317   2.291  10.686 -0.2461 -0.5465 -0.5970
  146SAPE   O3116065   0.420   2.377  10.509 -0.1797 -0.7200 -0.0578
  146SAPE   C3116066   0.350   2.493  10.537 -0.3296 -1.0113  0.4995
  146SAPE   O3216067   0.257   2.497  10.619 -0.5458 -0.1266 -0.5593
  146SAPE   C3216068   0.378   2.600  10.430 -0.1105  0.4521 -0.1734
  146SAPE   H2X16069   0.469   2.578  10.371  1.2598  1.1917  1.5911
  146SAPE   H2Y16070   0.381   2.696  10.485 -0.5827  0.1841  0.3326
  146SAPE   C2316071   0.297   1.898  10.118 -0.8988 -0.0295  0.3553
  146SAPE   H3R16072   0.317   1.969  10.035  0.2206 -0.9736 -0.2063
  146SAPE   H3S16073   0.187   1.896  10.135 -0.8328 -1.3511  0.7206
  146SAPE   C2416074   0.340   1.763  10.074 -0.4395 -0.0862  0.4560
  146SAPE   H4R16075   0.266   1.728   9.999 -2.8684  3.6547  0.8547
  146SAPE   H4S16076   0.318   1.699  10.162 -1.2614 -1.0388 -0.4160
  146SAPE   C2516077   0.484   1.748  10.029  0.2111  0.3617 -0.0487
  146SAPE   H5R16078   0.561   1.728  10.105  1.1985 -2.5830 -1.6589
  146SAPE   C2616079   0.515   1.747   9.898 -0.4057  0.4106 -0.2284
  146SAPE   H6R16080   0.616   1.735   9.854 -1.2442 -0.6995 -1.9517
  146SAPE   C2716081   0.423   1.777   9.781 -1.3116 -0.4256  0.2439
  146SAPE   H7R16082   0.338   1.833   9.826 -0.5308 -0.7055  2.1354
  146SAPE   H7S16083   0.382   1.686   9.733  3.1282 -2.2529 -0.5785
  146SAPE   C2816084   0.476   1.876   9.684 -0.2945 -1.1685 -0.2525
  146SAPE   H8R16085   0.513   1.970   9.728 -0.8141 -1.1650  0.1926
  146SAPE   C2916086   0.487   1.873   9.550  0.3094  0.5676 -0.0436
  146SAPE   H9R16087   0.525   1.968   9.509  1.6956  1.3357  2.7611
  146SAPE  C21016088   0.450   1.765   9.448  0.6496 -0.0969 -0.6945
  146SAPE  H10R16089   0.409   1.678   9.505  0.4699  1.4290  1.6244
  146SAPE  H10S16090   0.540   1.718   9.403 -0.1483 -1.9203 -0.4951
  146SAPE  C21116091   0.339   1.804   9.345 -0.0164  0.0902  0.5163
  146SAPE  H11R16092   0.266   1.864   9.401  0.1153 -1.1547  2.0902
  146SAPE  C21216093   0.334   1.784   9.211 -0.4506 -0.3460 -0.2603
  146SAPE  H12R16094   0.255   1.833   9.151 -0.8085  0.2670  0.6839
  146SAPE  C21316095   0.432   1.718   9.124  0.2043 -0.0385 -0.1968
  146SAPE  H13R16096   0.530   1.704   9.175  0.4314 -3.7911 -1.3531
  146SAPE  H13S16097   0.446   1.785   9.037 -0.5956  2.2073  1.3103
  146SAPE  C21416098   0.392   1.574   9.089 -0.2369 -0.4405  0.0086
  146SAPE  H14R16099   0.356   1.519   9.177  0.1867  0.3180  0.6639
  146SAPE  C21516100   0.406   1.509   8.971 -0.3560 -0.0447 -0.1948
  146SAPE  H15R16101   0.374   1.404   8.963  0.0092 -0.3090  1.4540
  146SAPE  C21616102   0.457   1.559   8.835 -0.0233 -0.1503 -0.1820
  146SAPE  H16R16103   0.501   1.660   8.847  1.7410 -0.8020 -0.8779
  146SAPE  H16S16104   0.363   1.585   8.781 -1.0335  2.2512  2.4850
  146SAPE  C21716105   0.552   1.468   8.760 -0.9130  0.2247  0.3757
  146SAPE  H17R16106   0.497   1.381   8.719  3.3666 -1.8436 -1.6109
  146SAPE  H17S16107   0.639   1.438   8.823  0.1615 -0.1781 -1.2454
  146SAPE  C21816108   0.611   1.533   8.633 -0.8497  0.2269  0.3726
  146SAPE  H18R16109   0.561   1.628   8.603  0.2395  0.5902 -0.3602
  146SAPE  H18S16110   0.605   1.464   8.546  1.1757  0.4724 -0.0039
  146SAPE  C21916111   0.755   1.565   8.672 -0.5056 -0.9431 -0.3758
  146SAPE  H19R16112   0.810   1.469   8.679 -1.4788 -1.6321 -1.6830
  146SAPE  H19S16113   0.766   1.609   8.773 -0.8425 -0.7968 -0.3995
  146SAPE  C22016114   0.828   1.659   8.570 -0.0420  0.8171 -0.0324
  146SAPE  H20R16115   0.936   1.668   8.597 -0.0485  0.6710  0.0435
  146SAPE  H20S16116   0.776   1.757   8.578 -0.8472  0.4899 -1.0715
  146SAPE  H20T16117   0.818   1.635   8.462 -0.3944  1.3983 -0.1313
  146SAPE   C3316118   0.251   2.615  10.340  0.5243 -0.4091 -0.6378
  146SAPE   H3X16119   0.261   2.706  10.277  1.2955 -0.6860 -0.9323
  146SAPE   H3Y16120   0.168   2.630  10.411  0.2681 -0.2980 -0.9597
  146SAPE   C3416121   0.196   2.501  10.253 -0.3766  0.3941 -0.3662
  146SAPE   H4X16122   0.148   2.421  10.313  0.2599 -1.6023 -2.3671
  146SAPE   H4Y16123   0.283   2.456  10.201 -0.3386 -0.6345  0.5515
  146SAPE   C3516124   0.097   2.552  10.143  0.6853 -0.0320 -0.4094
  146SAPE   H5X16125   0.150   2.636  10.093  1.0621 -0.9532 -1.5907
  146SAPE   H5Y16126   0.009   2.601  10.188  0.7520  0.3675 -0.7140
  146SAPE   C3616127   0.057   2.456  10.045  0.0483 -0.0623 -0.1920
  146SAPE   H6X16128  -0.007   2.384  10.100  0.0568  0.2643  0.2497
  146SAPE   H6Y16129   0.152   2.408  10.014  0.0001  1.2285 -2.5853
  146SAPE   C3716130  -0.012   2.523   9.927 -0.8519 -0.5437 -0.5102
  146SAPE   H7X16131   0.048   2.604   9.881 -0.6436 -0.8628 -0.8089
  146SAPE   H7Y16132  -0.103   2.580   9.956  1.0850  2.5611 -0.0740
  146SAPE   C3816133  -0.043   2.426   9.821  0.9024 -0.0296  0.2889
  146SAPE   H8X16134  -0.096   2.339   9.865 -0.8779 -0.7803 -3.0496
  146SAPE   H8Y16135   0.046   2.377   9.777 -1.2387 -2.8024 -1.2608
  146SAPE   C3916136  -0.139   2.465   9.707 -0.3243  0.0040 -0.1253
  146SAPE   H9X16137  -0.217   2.535   9.745 -1.5351 -1.6419  0.5314
  146SAPE   H9Y16138  -0.193   2.371   9.681 -0.2746 -0.3960  1.1327
  146SAPE  C31016139  -0.069   2.531   9.589 -0.0906  0.8289  0.7132
  146SAPE  H10X16140   0.013   2.465   9.556 -0.8832  0.5452 -0.8221
  146SAPE  H10Y16141  -0.029   2.633   9.605  0.2898  0.9269 -0.6967
  146SAPE  C31116142  -0.158   2.534   9.462 -0.6350  0.6739 -0.2545
  146SAPE  H11X16143  -0.256   2.586   9.471 -0.4744  0.9499 -0.0841
  146SAPE  H11Y16144  -0.176   2.425   9.451  1.0759  0.3476 -0.0461
  146SAPE  C31216145  -0.085   2.581   9.338 -0.9751 -0.2812  0.4322
  146SAPE  H12X16146  -0.006   2.505   9.321 -0.4436 -0.0936  1.9296
  146SAPE  H12Y16147  -0.030   2.674   9.363 -1.3166 -0.3478  1.4759
  146SAPE  C31316148  -0.178   2.598   9.219  0.2189 -0.1780 -0.2889
  146SAPE  H13X16149  -0.267   2.654   9.256  0.4104  1.1106 -1.6804
  146SAPE  H13Y16150  -0.197   2.497   9.178  0.4830 -1.3695  2.3149
  146SAPE  C31416151  -0.113   2.695   9.118 -0.7950  0.6995  0.5020
  146SAPE  H14X16152  -0.096   2.791   9.172 -2.4054 -0.1841  2.7326
  146SAPE  H14Y16153  -0.196   2.724   9.050 -1.5252 -0.0736  1.0424
  146SAPE  C31516154   0.002   2.638   9.036 -0.6254 -0.0898  0.3612
  146SAPE  H15X16155  -0.029   2.541   8.991 -1.2357 -0.6951  2.0254
  146SAPE  H15Y16156   0.088   2.624   9.104 -1.1232  1.5309  1.3983
  146SAPE  C31616157   0.054   2.739   8.937  0.8052  0.6130 -0.0884
  146SAPE  H16X16158   0.068   2.831   8.996 -1.5657  1.3716 -0.5986
  146SAPE  H16Y16159  -0.024   2.750   8.858 -1.1544  0.0639  1.6640
  146SAPE  C31716160   0.190   2.695   8.883 -0.0348  0.0007  0.4621
  146SAPE  H17X16161   0.187   2.592   8.843  0.1259 -0.1019  0.7109
  146SAPE  H17Y16162   0.264   2.687   8.966  0.5956 -2.8586 -0.2645
  146SAPE  C31816163   0.236   2.787   8.770 -0.8481 -0.6579 -0.2183
  146SAPE  H18X16164   0.324   2.751   8.713  0.0420  1.4286 -0.2683
  146SAPE  H18Y16165   0.251   2.892   8.803  0.5734 -0.6102 -0.9394
  146SAPE  H18Z16166   0.168   2.787   8.682 -0.5991  2.4063 -0.5159
  147SAPE     N16167   2.228   5.310  10.909  0.0717 -0.5839 -0.0277
  147SAPE   HN116168   2.269   5.234  10.967  0.1307  1.5795  2.9786
  147SAPE   HN216169   2.307   5.371  10.880  1.7337 -0.6063  3.8739
  147SAPE   HN316170   2.171   5.367  10.975 -2.4831 -0.7066 -1.9623
  147SAPE   C1216171   2.149   5.242  10.801 -0.5024 -0.0383  0.4598
  147SAPE  H12A16172   2.078   5.180  10.860 -1.0568  0.4170  0.2689
  147SAPE  H12B16173   2.216   5.181  10.736 -1.2211 -0.2733 -0.0778
  147SAPE   C1116174   2.079   5.337  10.715  0.1413 -1.0699  0.1259
  147SAPE  H11A16175   2.026   5.280  10.636  0.0038 -0.1910 -0.4337
  147SAPE  H11B16176   2.147   5.404  10.658 -0.0650 -1.7153 -0.9167
  147SAPE     P16177   1.848   5.452  10.757  0.0462  0.2320  0.1256
  147SAPE   O1316178   1.748   5.434  10.868 -0.4596 -0.4393 -0.4344
  147SAPE   O1416179   1.860   5.588  10.704  0.0733  0.4233  0.4286
  147SAPE   O1216180   1.988   5.406  10.801  0.0487  0.1222  0.1791
  147SAPE   O1116181   1.804   5.350  10.636  0.0738 -0.5909 -0.6898
  147SAPE    C116182   1.712   5.246  10.679  0.3418 -0.2206  0.3681
  147SAPE    HA16183   1.759   5.182  10.756 -0.0192  0.6375  1.3243
  147SAPE    HB16184   1.625   5.302  10.719 -0.4799  2.2160 -4.1099
  147SAPE    C216185   1.660   5.153  10.563 -0.2459  0.4422  0.1382
  147SAPE    HS16186   1.755   5.107  10.529 -0.3019 -0.8185  1.5645
  147SAPE   O2116187   1.582   5.223  10.464 -0.1625 -0.9243  1.1411
  147SAPE   C2116188   1.615   5.182  10.343  0.4536  0.1253  0.5621
  147SAPE   O2216189   1.703   5.103  10.315 -0.3034  0.0002 -0.0953
  147SAPE   C2216190   1.515   5.242  10.243  1.0339 -0.1168 -0.4185
  147SAPE   H2R16191   1.532   5.351  10.246  0.0422  0.0611 -1.2099
  147SAPE   H2S16192   1.537   5.200  10.143  1.2545  0.6512 -0.6925
  147SAPE    C316193   1.571   5.039  10.621  0.3769 -0.3054 -0.0383
  147SAPE    HX16194   1.475   5.093  10.637 -1.0463 -2.9287  0.7830
  147SAPE    HY16195   1.604   4.993  10.716 -0.3523  1.8972  1.3503
  147SAPE   O3116196   1.546   4.942  10.519 -0.4085  0.2453 -0.6707
  147SAPE   C3116197   1.637   4.839  10.503  0.6461 -0.6861 -0.6118
  147SAPE   O3216198   1.734   4.817  10.574  0.7099  0.7195  0.2835
  147SAPE   C3216199   1.605   4.752  10.371  0.5153  0.0466 -0.3756
  147SAPE   H2X16200   1.574   4.829  10.297  1.3970 -0.5000 -1.3355
  147SAPE   H2Y16201   1.529   4.677  10.401  1.5848 -0.7291  0.4860
  147SAPE   C2316202   1.375   5.194  10.278  0.1591  0.7426  0.5930
  147SAPE   H3R16203   1.351   5.197  10.386  1.4863  2.4517  0.8888
  147SAPE   H3S16204   1.366   5.085  10.261  1.2912  0.7142  0.0828
  147SAPE   C2416205   1.255   5.255  10.200 -0.6556  0.6098  0.4777
  147SAPE   H4R16206   1.158   5.206  10.226 -0.9918  0.7037 -0.5668
  147SAPE   H4S16207   1.274   5.243  10.092 -0.2563 -0.5623  0.6675
  147SAPE   C2516208   1.249   5.405  10.229 -1.0077 -0.5440  0.7275
  147SAPE   H5R16209   1.257   5.431  10.335 -1.6019  0.4425  0.5448
  147SAPE   C2616210   1.234   5.505  10.138 -0.3053 -0.0491  0.1454
  147SAPE   H6R16211   1.229   5.607  10.180 -3.4887  0.1736 -0.4823
  147SAPE   C2716212   1.211   5.501   9.984 -0.1403  0.6493  0.0046
  147SAPE   H7R16213   1.167   5.600   9.960 -0.2059  0.0130 -2.8529
  147SAPE   H7S16214   1.142   5.417   9.959 -0.2714  0.8643 -0.3496
  147SAPE   C2816215   1.336   5.474   9.903  0.6137  0.7479 -0.2758
  147SAPE   H8R16216   1.431   5.498   9.953  0.7815  2.1999 -1.2127
  147SAPE   C2916217   1.347   5.438   9.773 -0.3872 -0.1467  0.6610
  147SAPE   H9R16218   1.451   5.435   9.738 -0.6451 -1.8149 -0.0623
  147SAPE  C21016219   1.229   5.418   9.678 -0.2162  1.0138 -0.0337
  147SAPE  H10R16220   1.196   5.515   9.635  2.5723  1.2615 -1.8212
  147SAPE  H10S16221   1.141   5.369   9.726  0.9452 -2.2605 -1.0132
  147SAPE  C21116222   1.289   5.328   9.564  0.0978 -0.4669 -0.8677
  147SAPE  H11R16223   1.334   5.234   9.599 -0.0384 -0.4903 -0.7563
  147SAPE  C21216224   1.280   5.344   9.431 -0.7376 -0.2997  0.2692
  147SAPE  H12R16225   1.318   5.260   9.370  2.4248 -0.9830  2.9153
  147SAPE  C21316226   1.227   5.459   9.345  0.0142  0.4735 -0.2917
  147SAPE  H13R16227   1.302   5.472   9.263 -1.3164 -0.6776 -1.7487
  147SAPE  H13S16228   1.236   5.544   9.416 -0.2352 -0.3567  0.7569
  147SAPE  C21416229   1.088   5.449   9.284  0.7482 -0.2977  0.3410
  147SAPE  H14R16230   1.018   5.524   9.323  1.0955  0.4524 -0.4303
  147SAPE  C21516231   1.054   5.360   9.193  0.0085 -0.1196 -0.4622
  147SAPE  H15R16232   0.950   5.353   9.157 -0.2771 -2.0802  0.6626
  147SAPE  C21616233   1.146   5.259   9.133  0.3911 -0.0172 -0.7845
  147SAPE  H16R16234   1.167   5.181   9.209 -1.7171 -0.3586 -0.4914
  147SAPE  H16S16235   1.243   5.308   9.110  0.9943  0.3845  2.1966
  147SAPE  C21716236   1.099   5.196   9.001 -0.0832  0.3502  0.8928
  147SAPE  H17R16237   1.013   5.130   9.024  0.0978 -0.4757 -0.6824
  147SAPE  H17S16238   1.178   5.127   8.966 -0.4500 -0.2996  1.3373
  147SAPE  C21816239   1.097   5.301   8.894  0.3343  0.3165 -0.5626
  147SAPE  H18R16240   1.202   5.335   8.879  0.9578 -1.0495  0.5469
  147SAPE  H18S16241   1.030   5.381   8.932 -2.2810 -1.3764 -1.3443
  147SAPE  C21916242   1.036   5.261   8.758 -0.2771  0.1158 -0.3650
  147SAPE  H19R16243   0.941   5.208   8.782 -0.7219  1.5367  1.1643
  147SAPE  H19S16244   1.104   5.189   8.708  1.4287  0.2530  1.6149
  147SAPE  C22016245   0.998   5.371   8.659  0.2668  0.1233  0.2102
  147SAPE  H20R16246   1.083   5.414   8.601  1.7869 -1.3598  1.2269
  147SAPE  H20S16247   0.955   5.461   8.707  0.8132  0.8607 -0.6508
  147SAPE  H20T16248   0.921   5.330   8.591 -0.2582  0.2006  0.7437
  147SAPE   C3316249   1.729   4.674  10.318 -0.6678 -0.3000 -0.3820
  147SAPE   H3X16250   1.770   4.607  10.397  1.1492 -0.2317 -1.2056
  147SAPE   H3Y16251   1.799   4.753  10.284 -0.2290  0.1819  1.5295
  147SAPE   C3416252   1.683   4.586  10.206  0.2168 -0.3871  0.0088
  147SAPE   H4X16253   1.573   4.572  10.196  0.4619 -1.0800 -2.2898
  147SAPE   H4Y16254   1.730   4.486  10.216 -1.1607 -1.4472 -2.9114
  147SAPE   C3516255   1.736   4.623  10.065 -0.0077 -0.0194 -0.4968
  147SAPE   H5X16256   1.846   4.614  10.071  0.3085  2.4653 -1.3555
  147SAPE   H5Y16257   1.713   4.731  10.046 -1.4110 -0.9168 -5.2954
  147SAPE   C3616258   1.674   4.541   9.949 -0.1142 -0.1370 -0.0598
  147SAPE   H6X16259   1.566   4.518   9.961  0.1211 -1.2630 -0.0604
  147SAPE   H6Y16260   1.726   4.443   9.952  0.1378 -0.0316 -0.8478
  147SAPE   C3716261   1.687   4.608   9.809 -0.0504 -0.0271  0.0594
  147SAPE   H7X16262   1.796   4.624   9.796 -0.1355  0.4531 -0.0931
  147SAPE   H7Y16263   1.650   4.713   9.815 -1.3412 -0.4838  0.2298
  147SAPE   C3816264   1.639   4.533   9.690 -0.0185  0.3535 -0.0813
  147SAPE   H8X16265   1.534   4.504   9.711 -0.2440  1.5196  0.4450
  147SAPE   H8Y16266   1.701   4.440   9.689  0.4292  0.5725 -2.8947
  147SAPE   C3916267   1.655   4.598   9.550  0.1062  0.0108  0.0700
  147SAPE   H9X16268   1.755   4.643   9.536  0.2519 -0.2152  0.3607
  147SAPE   H9Y16269   1.577   4.677   9.552  0.1600  0.1123 -1.3859
  147SAPE  C31016270   1.636   4.485   9.445 -0.8385  0.1178 -0.1160
  147SAPE  H10X16271   1.542   4.432   9.469 -2.1865  1.8505 -1.3037
  147SAPE  H10Y16272   1.724   4.419   9.460 -1.8541 -1.1514  0.3948
  147SAPE  C31116273   1.620   4.533   9.301 -0.6898 -0.6465 -0.8797
  147SAPE  H11X16274   1.538   4.606   9.287  0.1546  0.5534  0.1972
  147SAPE  H11Y16275   1.604   4.447   9.232  1.6552 -2.3224  0.5116
  147SAPE  C31216276   1.739   4.616   9.246 -0.4665  0.0785 -0.6135
  147SAPE  H12X16277   1.829   4.552   9.261 -1.9849 -1.7650  1.1967
  147SAPE  H12Y16278   1.750   4.709   9.306  0.2132 -0.3046 -0.1201
  147SAPE  C31316279   1.732   4.651   9.095  0.3420  0.8607 -0.2220
  147SAPE  H13X16280   1.709   4.556   9.043  2.0646  0.1031  0.3132
  147SAPE  H13Y16281   1.831   4.683   9.054  0.3370  1.9087  0.5255
  147SAPE  C31416282   1.620   4.762   9.074  0.1186 -0.0936  0.5812
  147SAPE  H14X16283   1.639   4.840   9.150 -1.6005  0.5444  0.3818
  147SAPE  H14Y16284   1.517   4.723   9.087 -1.2349  2.8992 -0.3096
  147SAPE  C31516285   1.631   4.823   8.931  0.6107  0.2546 -0.0475
  147SAPE  H15X16286   1.611   4.738   8.862 -1.0007 -0.6869  1.4974
  147SAPE  H15Y16287   1.735   4.857   8.913  0.1035  0.4037 -3.4417
  147SAPE  C31616288   1.528   4.931   8.896 -0.1735  0.3160  0.2638
  147SAPE  H16X16289   1.539   5.012   8.971  1.4883  1.5546 -1.2370
  147SAPE  H16Y16290   1.425   4.892   8.914  0.2248 -0.2604  1.3735
  147SAPE  C31716291   1.536   4.986   8.756 -0.1014 -0.3357  0.1879
  147SAPE  H17X16292   1.524   4.907   8.679  0.0180 -0.3875  0.2218
  147SAPE  H17Y16293   1.636   5.028   8.730  0.8110 -1.2779  2.0100
  147SAPE  C31816294   1.425   5.086   8.715 -0.9649  0.0357 -0.5862
  147SAPE  H18X16295   1.330   5.032   8.699 -1.5508  1.2962 -1.5802
  147SAPE  H18Y16296   1.444   5.143   8.621  1.4072 -2.2484 -1.6115
  147SAPE  H18Z16297   1.417   5.159   8.798  0.7135  0.6267 -0.8914
  148SAPE     N16298   3.118   4.935  10.887  0.0675  0.2969 -0.3878
  148SAPE   HN116299   3.129   4.953  10.989 -1.8706  1.1515 -0.2846
  148SAPE   HN216300   3.137   4.837  10.860  1.0085 -0.5066  2.7306
  148SAPE   HN316301   3.176   5.003  10.834  0.5394  0.2882  0.1128
  148SAPE   C1216302   2.983   4.975  10.841  0.0796  0.7730 -0.1554
  148SAPE  H12A16303   2.911   4.954  10.922  1.7033 -1.0637  0.9102
  148SAPE  H12B16304   2.962   4.913  10.751 -0.5579  0.5174  0.1653
  148SAPE   C1116305   2.989   5.111  10.778 -0.7251  0.8719 -0.5018
  148SAPE  H11A16306   3.002   5.187  10.858  1.3752  1.6123 -1.4730
  148SAPE  H11B16307   2.898   5.126  10.717 -0.2126 -1.3401 -1.9482
  148SAPE     P16308   3.099   5.219  10.570  0.2294  0.3283  0.1821
  148SAPE   O1316309   3.052   5.356  10.610 -0.8041 -0.3424 -0.4483
  148SAPE   O1416310   3.224   5.212  10.495 -0.2375  0.0322 -0.5231
  148SAPE   O1216311   3.112   5.130  10.703  0.0280  0.3758 -0.3150
  148SAPE   O1116312   2.988   5.139  10.489  0.2795 -0.3598 -0.1349
  148SAPE    C116313   2.972   4.999  10.488 -0.2173  0.0523  0.1821
  148SAPE    HA16314   3.058   4.940  10.527 -0.5440 -0.7035 -0.2241
  148SAPE    HB16315   2.880   4.979  10.547 -3.0496 -0.2353 -3.9016
  148SAPE    C216316   2.933   4.943  10.351 -0.6335 -0.4107 -0.1593
  148SAPE    HS16317   2.879   4.848  10.367 -4.2902  1.7532  1.7558
  148SAPE   O2116318   3.056   4.941  10.273 -0.3574  0.1436  0.2557
  148SAPE   C2116319   3.063   4.837  10.192 -0.2344 -0.2874 -0.1233
  148SAPE   O2216320   2.990   4.741  10.194  0.2449 -0.0380  0.1639
  148SAPE   C2216321   3.177   4.852  10.085 -0.5497  0.0180  0.7729
  148SAPE   H2R16322   3.177   4.952  10.036 -2.4470 -0.4826 -0.3471
  148SAPE   H2S16323   3.278   4.838  10.130  0.1102  0.1295 -0.6047
  148SAPE    C316324   2.824   5.033  10.279 -0.0273  0.0149 -0.2729
  148SAPE    HX16325   2.863   5.137  10.276 -0.7636  0.3026 -0.0513
  148SAPE    HY16326   2.733   5.029  10.342 -1.2584  1.2508 -1.8695
  148SAPE   O3116327   2.797   5.000  10.139  0.5178  0.0612 -0.7661
  148SAPE   C3116328   2.732   4.885  10.120 -0.4197 -0.9586  0.0977
  148SAPE   O3216329   2.672   4.821  10.200 -0.5462  0.0224  0.1216
  148SAPE   C3216330   2.748   4.857   9.968  0.4401 -0.6425  0.7659
  148SAPE   H2X16331   2.849   4.897   9.943  0.5700  0.0078  2.2225
  148SAPE   H2Y16332   2.659   4.905   9.920  1.6215  0.7143 -0.1844
  148SAPE   C2316333   3.158   4.749   9.967  0.4503 -0.2569  0.1415
  148SAPE   H3R16334   3.065   4.768   9.908  0.8240  1.9320  0.1667
  148SAPE   H3S16335   3.153   4.644  10.002  0.9673 -0.5373 -0.6104
  148SAPE   C2416336   3.273   4.759   9.865  0.2072  0.3403  0.0584
  148SAPE   H4R16337   3.267   4.659   9.818 -0.4251 -0.4749  1.7807
  148SAPE   H4S16338   3.367   4.750   9.923  2.0563 -0.6115 -2.8603
  148SAPE   C2516339   3.271   4.869   9.764 -0.6619 -0.0434  0.5219
  148SAPE   H5R16340   3.270   4.973   9.800  2.0880  1.0679 -2.1000
  148SAPE   C2616341   3.277   4.864   9.624  0.1101  0.1405 -0.2351
  148SAPE   H6R16342   3.265   4.955   9.563 -0.2671 -0.2686 -0.7771
  148SAPE   C2716343   3.285   4.745   9.533 -0.0080 -0.1634 -0.0326
  148SAPE   H7R16344   3.193   4.752   9.470  0.5827  0.7863 -0.8145
  148SAPE   H7S16345   3.285   4.649   9.589 -1.5797 -0.2252 -0.0679
  148SAPE   C2816346   3.406   4.736   9.440  0.3591  0.4986  0.9630
  148SAPE   H8R16347   3.492   4.674   9.471  2.0271  2.1350 -0.1684
  148SAPE   C2916348   3.416   4.793   9.317  0.2463 -0.4651 -0.4311
  148SAPE   H9R16349   3.509   4.783   9.258  0.5655  2.2937 -0.4906
  148SAPE  C21016350   3.312   4.878   9.245 -0.1611 -0.0255  0.2188
  148SAPE  H10R16351   3.357   4.950   9.174 -1.5816  1.9208  1.2200
  148SAPE  H10S16352   3.251   4.928   9.323 -0.3028  1.1165 -0.6039
  148SAPE  C21116353   3.226   4.781   9.164  0.2979  0.0333 -0.4307
  148SAPE  H11R16354   3.196   4.687   9.214 -1.4979  0.4222 -0.7191
  148SAPE  C21216355   3.179   4.803   9.038 -0.4952 -0.0872  0.2926
  148SAPE  H12R16356   3.130   4.719   8.987 -0.5877  0.7765 -1.1052
  148SAPE  C21316357   3.200   4.923   8.951 -0.1104  0.8104  0.3664
  148SAPE  H13R16358   3.272   4.874   8.882  1.4611  2.8649  0.4334
  148SAPE  H13S16359   3.244   5.013   9.000 -0.3989  0.6295  0.9612
  148SAPE  C21416360   3.074   4.952   8.881  0.4416 -0.2566  0.0043
  148SAPE  H14R16361   2.989   4.967   8.949  0.5082 -1.9511  0.4971
  148SAPE  C21516362   3.050   4.954   8.748 -0.1476  0.2957 -0.3896
  148SAPE  H15R16363   2.949   4.987   8.719 -0.0412  3.5981  2.2615
  148SAPE  C21616364   3.155   4.916   8.647 -0.5215 -0.6845 -0.1976
  148SAPE  H16R16365   3.129   4.821   8.596 -1.8698 -0.4019 -0.0777
  148SAPE  H16S16366   3.258   4.903   8.687 -0.4951  1.4634  0.5655
  148SAPE  C21716367   3.174   5.015   8.533  0.5085  0.3132 -0.5431
  148SAPE  H17R16368   3.250   4.974   8.464 -0.5927 -1.7153 -0.6344
  148SAPE  H17S16369   3.218   5.111   8.568 -0.8726  0.5766  0.5672
  148SAPE  C21816370   3.047   5.049   8.451  0.4334  0.2099  0.3802
  148SAPE  H18R16371   2.995   5.130   8.506 -3.2468 -0.5656 -1.6512
  148SAPE  H18S16372   2.974   4.967   8.462 -0.4088  1.2713  4.3372
  148SAPE  C21916373   3.071   5.083   8.305  0.5746  0.9051  0.6589
  148SAPE  H19R16374   3.066   4.985   8.253 -1.5478  1.6112 -0.5698
  148SAPE  H19S16375   3.168   5.137   8.294  0.6247  1.2207  2.4171
  148SAPE  C22016376   2.958   5.168   8.241 -0.5104 -0.9023 -0.3561
  148SAPE  H20R16377   2.858   5.123   8.260 -0.2516 -0.9428  1.0265
  148SAPE  H20S16378   2.977   5.172   8.132  2.0463 -0.9400  0.0317
  148SAPE  H20T16379   2.952   5.269   8.288  0.6860 -1.7204  1.6753
  148SAPE   C3316380   2.752   4.707   9.946 -0.4532  0.2106  0.1134
  148SAPE   H3X16381   2.689   4.636  10.003  0.3488 -0.9350 -0.4093
  148SAPE   H3Y16382   2.851   4.661   9.967  0.1645  1.5038  0.1984
  148SAPE   C3416383   2.733   4.678   9.790  0.0936  0.9752 -0.0130
  148SAPE   H4X16384   2.628   4.691   9.756 -0.2095  0.7998  0.8325
  148SAPE   H4Y16385   2.742   4.568   9.780 -2.8747  0.7847 -1.8058
  148SAPE   C3516386   2.834   4.750   9.699  0.8729  0.2573  0.1738
  148SAPE   H5X16387   2.939   4.721   9.723 -0.1202 -2.7257  1.3145
  148SAPE   H5Y16388   2.833   4.861   9.708  0.7855  0.2958 -0.2559
  148SAPE   C3616389   2.829   4.719   9.549 -0.2391 -0.6145 -0.2264
  148SAPE   H6X16390   2.817   4.609   9.542  0.0983 -0.7891  1.5732
  148SAPE   H6Y16391   2.926   4.746   9.502 -0.2955 -0.5307 -0.2965
  148SAPE   C3716392   2.710   4.782   9.471 -0.0329  0.0802 -0.3541
  148SAPE   H7X16393   2.725   4.892   9.466 -0.3728  0.0886 -1.2993
  148SAPE   H7Y16394   2.611   4.772   9.522 -0.1696  0.4842 -0.5317
  148SAPE   C3816395   2.701   4.718   9.334  0.6233  0.9979  0.3034
  148SAPE   H8X16396   2.623   4.639   9.338 -0.6326  2.2273  1.5132
  148SAPE   H8Y16397   2.799   4.671   9.310 -0.7448 -2.6951  1.2372
  148SAPE   C3916398   2.641   4.818   9.239 -0.6025 -0.3788 -0.1826
  148SAPE   H9X16399   2.701   4.912   9.243 -0.4184 -0.5428  1.3959
  148SAPE   H9Y16400   2.537   4.844   9.265 -0.4823 -0.7460  0.7075
  148SAPE  C31016401   2.636   4.764   9.096 -0.2394  0.2963  0.3505
  148SAPE  H10X16402   2.588   4.667   9.121  1.1941  0.3226  3.6255
  148SAPE  H10Y16403   2.739   4.744   9.060 -0.6629  0.1657 -0.8287
  148SAPE  C31116404   2.560   4.858   9.000 -0.1928 -0.2729  0.3396
  148SAPE  H11X16405   2.632   4.939   8.976  0.0331 -0.9766 -1.4807
  148SAPE  H11Y16406   2.471   4.904   9.049 -1.6229  0.2829 -2.5709
  148SAPE  C31216407   2.508   4.786   8.878 -0.5864  0.1205 -0.1253
  148SAPE  H12X16408   2.475   4.868   8.811  0.4142  0.5179 -0.1470
  148SAPE  H12Y16409   2.419   4.724   8.902 -0.9035  0.0173 -1.4796
  148SAPE  C31316410   2.613   4.698   8.810  0.6062 -0.0330 -0.7681
  148SAPE  H13X16411   2.627   4.609   8.875  0.4188  1.9385  2.1420
  148SAPE  H13Y16412   2.710   4.752   8.805 -1.0835  3.7012  2.0578
  148SAPE  C31416413   2.558   4.644   8.672 -0.1122 -0.4943  0.4222
  148SAPE  H14X16414   2.454   4.608   8.689  0.3346 -1.8324  0.4261
  148SAPE  H14Y16415   2.623   4.557   8.648  2.3425  0.9697  1.4402
  148SAPE  C31516416   2.564   4.749   8.561 -0.3074 -0.2940  0.5989
  148SAPE  H15X16417   2.671   4.777   8.555 -0.3896 -0.2466 -1.3108
  148SAPE  H15Y16418   2.491   4.823   8.599 -3.4824 -4.0161  2.3793
  148SAPE  C31616419   2.523   4.711   8.410 -0.3088 -0.0124 -0.7556
  148SAPE  H16X16420   2.412   4.705   8.413 -0.4277  1.3381 -1.5225
  148SAPE  H16Y16421   2.572   4.614   8.387 -0.1854  0.1917 -1.3774
  148SAPE  C31716422   2.567   4.802   8.291  0.0334 -0.9183 -0.0660
  148SAPE  H17X16423   2.540   4.903   8.328  0.8294 -1.0007  0.7826
  148SAPE  H17Y16424   2.508   4.780   8.199 -1.0281  0.0053  0.3709
  148SAPE  C31816425   2.715   4.803   8.264 -0.7628 -0.1917  0.0065
  148SAPE  H18X16426   2.731   4.873   8.179 -0.5318 -0.7464 -0.4097
  148SAPE  H18Y16427   2.760   4.705   8.238  1.0487  0.3635  0.8189
  148SAPE  H18Z16428   2.770   4.846   8.352 -0.1426  1.6609 -1.2118
  149SAPE     N16429   5.821   3.176  11.129 -0.1446 -0.8153  0.2985
  149SAPE   HN116430   5.841   3.241  11.050  0.3883 -0.4830  0.7036
  149SAPE   HN216431   5.736   3.118  11.110 -0.1206 -1.2363  1.4145
  149SAPE   HN316432   5.803   3.240  11.209  1.0567  1.4060 -1.1252
  149SAPE   C1216433   5.939   3.083  11.144 -0.0142 -0.0260 -0.4494
  149SAPE  H12A16434   5.918   2.983  11.189  1.7144 -0.4629 -0.5579
  149SAPE  H12B16435   5.997   3.138  11.221 -3.0973  1.0965  1.2504
  149SAPE   C1116436   6.010   3.068  11.012  0.0736  0.0502 -0.2628
  149SAPE  H11A16437   6.089   2.993  11.034  1.3972  1.3036 -0.5692
  149SAPE  H11B16438   6.058   3.167  10.993  2.3599 -0.8104  0.7258
  149SAPE     P16439   5.882   2.897  10.856 -0.0549  0.0343  0.1242
  149SAPE   O1316440   5.800   2.824  10.954 -0.3992 -0.2686  0.7653
  149SAPE   O1416441   5.831   2.902  10.718 -0.0162 -0.6607 -0.3191
  149SAPE   O1216442   5.909   3.042  10.914  0.0806  0.1152 -0.7004
  149SAPE   O1116443   6.030   2.821  10.848 -0.4497 -0.2948 -0.4923
  149SAPE    C116444   6.114   2.870  10.736  0.2399  0.0451 -0.4892
  149SAPE    HA16445   6.051   2.918  10.658 -1.6327 -1.3162  0.1140
  149SAPE    HB16446   6.192   2.940  10.772 -0.2084  0.4656 -0.3290
  149SAPE    C216447   6.195   2.758  10.669  0.1016 -0.6805  0.6639
  149SAPE    HS16448   6.238   2.696  10.751 -0.0985  0.5695  1.7442
  149SAPE   O2116449   6.298   2.822  10.591  0.2357  0.7363  0.2819
  149SAPE   C2116450   6.400   2.737  10.566 -0.6648  0.6605 -0.5746
  149SAPE   O2216451   6.427   2.630  10.619  0.3165  0.1407  0.0283
  149SAPE   C2216452   6.482   2.795  10.450 -0.2741 -0.1185  0.6543
  149SAPE   H2R16453   6.432   2.885  10.409 -0.2276 -0.8929 -1.1949
  149SAPE   H2S16454   6.583   2.825  10.486 -0.3490  0.5508  0.3161
  149SAPE    C316455   6.105   2.669  10.581  0.3510 -0.1733  0.2840
  149SAPE    HX16456   6.074   2.725  10.490  1.5473  3.1144  1.7637
  149SAPE    HY16457   6.013   2.660  10.643  0.6018  2.0159  1.0434
  149SAPE   O3116458   6.165   2.544  10.547 -0.0692 -0.3234  0.2027
  149SAPE   C3116459   6.125   2.428  10.601 -0.1467 -0.4966 -0.8711
  149SAPE   O3216460   6.040   2.413  10.691 -0.5413  0.3933 -0.3873
  149SAPE   C3216461   6.221   2.328  10.545  0.1146 -0.6274 -0.0991
  149SAPE   H2X16462   6.225   2.238  10.609  1.6298  0.4509  1.3930
  149SAPE   H2Y16463   6.325   2.365  10.556 -0.0768 -0.5051  1.5362
  149SAPE   C2316464   6.507   2.688  10.336 -0.2800 -0.5018 -0.1574
  149SAPE   H3R16465   6.554   2.596  10.376  0.6490 -0.4108 -0.9854
  149SAPE   H3S16466   6.575   2.729  10.258  1.6085 -0.6169  1.3852
  149SAPE   C2416467   6.376   2.657  10.250 -0.1541  0.6496 -0.1154
  149SAPE   H4R16468   6.329   2.757  10.236 -0.7063  0.0643 -3.1339
  149SAPE   H4S16469   6.311   2.589  10.309 -0.0783 -1.2889 -2.1052
  149SAPE   C2516470   6.402   2.579  10.124  0.1581 -0.0783  0.8691
  149SAPE   H5R16471   6.449   2.482  10.143  1.5788  0.8199  2.1137
  149SAPE   C2616472   6.390   2.632   9.997 -1.1082 -0.0253 -0.1844
  149SAPE   H6R16473   6.404   2.561   9.914 -1.6033 -0.0358 -0.2675
  149SAPE   C2716474   6.356   2.776   9.962 -0.2037 -0.1421  0.5808
  149SAPE   H7R16475   6.422   2.812   9.881 -1.6006  0.6411 -0.2639
  149SAPE   H7S16476   6.369   2.844  10.048  3.3087  1.9886 -1.3857
  149SAPE   C2816477   6.215   2.788   9.912  0.1458 -0.6071  0.2706
  149SAPE   H8R16478   6.141   2.805   9.992 -1.4425 -3.0998 -0.5466
  149SAPE   C2916479   6.172   2.773   9.782  0.1303 -0.3008 -0.1211
  149SAPE   H9R16480   6.068   2.797   9.753  0.2025 -0.1914 -0.2943
  149SAPE  C21016481   6.263   2.738   9.664 -0.0331 -0.4581 -0.4969
  149SAPE  H10R16482   6.224   2.651   9.607 -2.8129  0.6828 -0.4896
  149SAPE  H10S16483   6.361   2.707   9.706  0.1496  0.4495 -0.2165
  149SAPE  C21116484   6.303   2.852   9.569  0.5350  0.3293 -0.3356
  149SAPE  H11R16485   6.362   2.923   9.629 -0.9654  0.4179  1.1143
  149SAPE  C21216486   6.275   2.867   9.442  0.4021 -0.3267  0.1334
  149SAPE  H12R16487   6.320   2.947   9.381 -0.3891  1.1762  1.4192
  149SAPE  C21316488   6.192   2.770   9.362  0.0729  0.3483 -0.9577
  149SAPE  H13R16489   6.136   2.706   9.434  0.7415  1.5267  0.6654
  149SAPE  H13S16490   6.266   2.715   9.300  1.6898  0.6033  0.6770
  149SAPE  C21416491   6.084   2.836   9.275 -0.0343  0.1507  0.2540
  149SAPE  H14R16492   6.020   2.907   9.329 -0.5676 -0.5704  0.5894
  149SAPE  C21516493   6.057   2.817   9.145  0.5950  0.1419  0.2326
  149SAPE  H15R16494   5.980   2.875   9.094 -0.0072 -1.7158 -1.0812
  149SAPE  C21616495   6.136   2.725   9.052  0.0956  0.2386 -0.5928
  149SAPE  H16R16496   6.062   2.671   8.990 -1.0283  0.4290  0.5540
  149SAPE  H16S16497   6.197   2.652   9.110 -0.4167 -0.8076 -1.3368
  149SAPE  C21716498   6.236   2.797   8.963 -0.0733  0.6416  0.4468
  149SAPE  H17R16499   6.304   2.849   9.033  0.2299  0.3314  0.3905
  149SAPE  H17S16500   6.180   2.871   8.903  1.6442  1.4718 -0.2159
  149SAPE  C21816501   6.311   2.700   8.863  0.1503 -0.5397  0.6746
  149SAPE  H18R16502   6.243   2.655   8.787  0.4687 -0.3734  0.2877
  149SAPE  H18S16503   6.351   2.609   8.914 -1.5421 -0.1638  2.8487
  149SAPE  C21916504   6.427   2.769   8.784 -0.6603 -0.2256  0.4227
  149SAPE  H19R16505   6.501   2.806   8.858 -0.0965  0.9760 -0.7055
  149SAPE  H19S16506   6.407   2.859   8.723  0.6763  1.2645  2.0987
  149SAPE  C22016507   6.488   2.673   8.686  0.3770  0.4291  0.5236
  149SAPE  H20R16508   6.405   2.640   8.621 -1.2141 -0.9808  3.0968
  149SAPE  H20S16509   6.535   2.578   8.721 -2.3633 -1.7929 -1.4116
  149SAPE  H20T16510   6.561   2.722   8.618  0.8065  0.5490  1.0601
  149SAPE   C3316511   6.182   2.291  10.396 -0.1243 -0.2363 -0.2146
  149SAPE   H3X16512   6.229   2.368  10.331 -1.5281 -0.2289 -1.2893
  149SAPE   H3Y16513   6.071   2.287  10.390 -0.0790 -1.2522 -0.4403
  149SAPE   C3416514   6.251   2.164  10.352 -0.6115 -0.3513 -0.1746
  149SAPE   H4X16515   6.236   2.086  10.429  0.2419  0.2311  0.6060
  149SAPE   H4Y16516   6.361   2.184  10.356 -0.7084  0.1114  0.2801
  149SAPE   C3516517   6.206   2.115  10.216  0.0136  0.2300  0.9818
  149SAPE   H5X16518   6.095   2.111  10.219  0.0220 -1.8634  0.1452
  149SAPE   H5Y16519   6.235   2.008  10.207  2.3026  0.9788 -2.4898
  149SAPE   C3616520   6.252   2.198  10.090 -0.3698  0.1103 -0.9721
  149SAPE   H6X16521   6.362   2.208  10.097 -0.4653  1.6875 -1.2954
  149SAPE   H6Y16522   6.219   2.304  10.098  0.6067  0.4523 -1.3012
  149SAPE   C3716523   6.225   2.132   9.957  0.0285 -0.1966  0.0551
  149SAPE   H7X16524   6.114   2.139   9.955  0.0561  1.0103 -3.3834
  149SAPE   H7Y16525   6.258   2.026   9.954 -0.4425 -0.3322 -0.5252
  149SAPE   C3816526   6.292   2.218   9.851  0.4879 -0.4704  1.6202
  149SAPE   H8X16527   6.403   2.224   9.858  0.5166  2.7051  0.4095
  149SAPE   H8Y16528   6.273   2.327   9.856  0.4926 -0.4966  2.3001
  149SAPE   C3916529   6.248   2.172   9.712 -0.9155  0.0991  0.1356
  149SAPE   H9X16530   6.140   2.197   9.711 -0.9832 -0.1892  0.1083
  149SAPE   H9Y16531   6.252   2.061   9.710 -1.2494  0.0913 -0.1768
  149SAPE  C31016532   6.336   2.247   9.610 -0.1114 -0.0502  0.2041
  149SAPE  H10X16533   6.438   2.204   9.623 -0.4411 -0.4847  1.5513
  149SAPE  H10Y16534   6.329   2.356   9.629 -0.8485 -0.3457  1.8069
  149SAPE  C31116535   6.296   2.202   9.464  0.3851  0.1033  0.5078
  149SAPE  H11X16536   6.199   2.249   9.436  0.1572 -0.8759 -0.4089
  149SAPE  H11Y16537   6.287   2.092   9.450 -0.7993  0.2154  0.2800
  149SAPE  C31216538   6.379   2.268   9.355 -0.2275  0.2744  0.0287
  149SAPE  H12X16539   6.484   2.240   9.380 -0.6175 -1.4040 -0.1285
  149SAPE  H12Y16540   6.380   2.379   9.349  2.0546  0.3020  0.0615
  149SAPE  C31316541   6.345   2.211   9.217 -0.3802  0.2916 -0.0975
  149SAPE  H13X16542   6.324   2.102   9.220  4.1332 -0.8019  4.0369
  149SAPE  H13Y16543   6.436   2.235   9.157 -1.1881  2.9137 -0.4079
  149SAPE  C31416544   6.227   2.293   9.155  0.5838  1.1688  0.8697
  149SAPE  H14X16545   6.261   2.398   9.152  2.0258  0.7381 -1.9109
  149SAPE  H14Y16546   6.145   2.292   9.229  0.5140 -0.1500  0.8038
  149SAPE  C31516547   6.169   2.238   9.022 -0.2195  0.2213 -0.4711
  149SAPE  H15X16548   6.073   2.292   9.007 -0.2358  0.5019  0.5721
  149SAPE  H15Y16549   6.145   2.130   9.035 -1.6063  0.4284 -1.0872
  149SAPE  C31616550   6.258   2.275   8.904  0.2268 -0.1590  0.1368
  149SAPE  H16X16551   6.350   2.214   8.910 -0.6028 -1.2703  3.8335
  149SAPE  H16Y16552   6.292   2.380   8.903  1.8777 -0.6772 -0.1472
  149SAPE  C31716553   6.184   2.243   8.772 -0.4217  0.1961 -0.5039
  149SAPE  H17X16554   6.095   2.308   8.757 -1.0901  0.0712  2.4112
  149SAPE  H17Y16555   6.156   2.135   8.765 -0.8836  0.2045  0.9120
  149SAPE  C31816556   6.272   2.270   8.647 -0.1273  0.0952  0.0104
  149SAPE  H18X16557   6.329   2.365   8.660 -1.2503  1.4233 -3.6215
  149SAPE  H18Y16558   6.214   2.279   8.553 -1.3156 -0.4928  0.6732
  149SAPE  H18Z16559   6.349   2.192   8.626 -0.4588  0.1419 -1.4762
  150SAPE     N16560   6.311   0.872  10.992  0.5988 -0.3438 -0.2839
  150SAPE   HN116561   6.232   0.851  11.056 -3.0355  3.1224 -3.1268
  150SAPE   HN216562   6.349   0.780  10.963 -0.7467 -0.6101 -1.3346
  150SAPE   HN316563   6.381   0.937  11.033  0.6774  0.0953 -1.1010
  150SAPE   C1216564   6.240   0.934  10.877 -0.3938 -0.4945 -0.8577
  150SAPE  H12A16565   6.193   1.026  10.918  2.9886  0.5796  1.0786
  150SAPE  H12B16566   6.162   0.861  10.848  0.1953 -1.0950 -0.9814
  150SAPE   C1116567   6.342   0.963  10.769 -0.0283 -0.0427 -0.0779
  150SAPE  H11A16568   6.300   0.977  10.667 -1.5597 -1.3201  0.3495
  150SAPE  H11B16569   6.404   0.872  10.756 -0.5638 -0.4281  0.0398
  150SAPE     P16570   6.556   1.089  10.863 -0.1071  0.0023 -0.3954
  150SAPE   O1316571   6.613   1.220  10.826 -0.3749 -0.4502 -0.1838
  150SAPE   O1416572   6.531   1.063  11.013 -0.1933  0.7774  0.2806
  150SAPE   O1216573   6.417   1.078  10.794 -0.3611  0.3836  0.5187
  150SAPE   O1116574   6.649   0.971  10.810 -0.5083  0.5078  0.4622
  150SAPE    C116575   6.781   0.997  10.752  0.2797  0.0982  0.1645
  150SAPE    HA16576   6.824   1.093  10.787 -1.0662  0.9244 -0.3505
  150SAPE    HB16577   6.844   0.909  10.777 -0.1066 -0.1732  0.1935
  150SAPE    C216578   6.770   1.006  10.595  0.3489  0.0652 -0.2075
  150SAPE    HS16579   6.682   1.071  10.574  0.2168 -0.4101 -1.1652
  150SAPE   O2116580   6.755   0.873  10.536 -0.0572 -0.2625  0.0725
  150SAPE   C2116581   6.689   0.860  10.418  0.0047  0.6989 -0.3190
  150SAPE   O2216582   6.635   0.953  10.360 -0.0164 -0.3154 -0.0436
  150SAPE   C2216583   6.675   0.712  10.363  0.6263  0.1663 -0.3282
  150SAPE   H2R16584   6.766   0.659  10.399  1.4205  0.2111 -2.1714
  150SAPE   H2S16585   6.582   0.665  10.402  1.6425 -0.1486  1.9019
  150SAPE    C316586   6.893   1.065  10.523  0.2322  0.1933  0.1049
  150SAPE    HX16587   6.979   1.008  10.563  0.2662 -1.0930 -1.6736
  150SAPE    HY16588   6.898   1.167  10.569  0.0851 -0.1857  0.9777
  150SAPE   O3116589   6.899   1.072  10.377  0.2418  0.3953 -0.1751
  150SAPE   C3116590   6.829   1.180  10.330  0.7680 -0.2409 -0.8023
  150SAPE   O3216591   6.772   1.267  10.398  0.0257  0.1278  0.3251
  150SAPE   C3216592   6.820   1.174  10.173 -0.4957  0.4637 -0.0652
  150SAPE   H2X16593   6.762   1.086  10.139  1.2313 -0.4026 -0.8988
  150SAPE   H2Y16594   6.926   1.162  10.141  0.2188  0.6304  2.0163
  150SAPE   C2316595   6.674   0.708  10.207 -0.1614  0.1952 -0.5343
  150SAPE   H3R16596   6.591   0.773  10.173 -1.8808 -0.9016  1.3456
  150SAPE   H3S16597   6.644   0.603  10.189  2.4759 -0.8136  0.4293
  150SAPE   C2416598   6.814   0.729  10.148  0.9006 -0.1720 -0.2034
  150SAPE   H4R16599   6.862   0.813  10.202 -0.5530  0.2883  0.4098
  150SAPE   H4S16600   6.810   0.756  10.040  1.4934  1.0501  0.0614
  150SAPE   C2516601   6.907   0.614  10.161 -0.0798 -0.7616  0.3615
  150SAPE   H5R16602   6.950   0.610  10.262  0.2126 -1.2223  0.2262
  150SAPE   C2616603   6.943   0.517  10.070 -0.7689  0.1100  0.3836
  150SAPE   H6R16604   7.031   0.456  10.096  0.3446  1.0207 -1.1096
  150SAPE   C2716605   6.894   0.512   9.928 -0.1883 -0.3501  0.1011
  150SAPE   H7R16606   6.802   0.573   9.918  1.6961  2.4683 -1.4393
  150SAPE   H7S16607   6.864   0.406   9.913 -0.2311 -0.4758  1.0063
  150SAPE   C2816608   6.996   0.564   9.829  0.9945 -0.8591  0.0069
  150SAPE   H8R16609   7.087   0.613   9.865  0.8782  0.5702 -1.5084
  150SAPE   C2916610   6.976   0.568   9.699 -0.4408  0.0375 -0.0193
  150SAPE   H9R16611   7.060   0.619   9.649 -0.1053  0.8999  1.3500
  150SAPE  C21016612   6.850   0.524   9.627 -0.0434  0.0171  0.0638
  150SAPE  H10R16613   6.764   0.555   9.691  0.1331  1.5710 -0.3995
  150SAPE  H10S16614   6.842   0.413   9.630 -1.3708  0.1236  1.0337
  150SAPE  C21116615   6.835   0.564   9.484  0.0168  0.0618  0.5339
  150SAPE  H11R16616   6.866   0.662   9.445 -1.1426  0.3271  0.2248
  150SAPE  C21216617   6.789   0.481   9.384 -0.5137 -0.9329 -0.3536
  150SAPE  H12R16618   6.792   0.529   9.284  0.5290  1.9327  0.9374
  150SAPE  C21316619   6.744   0.339   9.399 -0.1823 -1.0007 -0.3020
  150SAPE  H13R16620   6.636   0.332   9.375 -0.6191 -1.6918  1.7202
  150SAPE  H13S16621   6.735   0.309   9.505  1.3116 -0.7760 -0.0874
  150SAPE  C21416622   6.820   0.229   9.324 -0.0276 -0.4241 -0.2338
  150SAPE  H14R16623   6.919   0.212   9.368 -0.8058 -1.9639  1.0429
  150SAPE  C21516624   6.788   0.159   9.215 -0.1756 -0.2995 -0.0299
  150SAPE  H15R16625   6.855   0.074   9.197  0.5460  0.0455  0.9456
  150SAPE  C21616626   6.657   0.174   9.132  0.4331 -0.1865 -0.1099
  150SAPE  H16R16627   6.605   0.271   9.147  1.3093  0.3900 -0.6631
  150SAPE  H16S16628   6.592   0.089   9.161  0.7782 -0.1771  0.6996
  150SAPE  C21716629   6.686   0.160   8.985  0.0164  0.7502  0.0883
  150SAPE  H17R16630   6.588   0.136   8.939 -0.8344  2.1061  1.0985
  150SAPE  H17S16631   6.747   0.070   8.962 -0.1078  1.4730 -3.6164
  150SAPE  C21816632   6.741   0.291   8.926  0.3968  0.7973 -0.0275
  150SAPE  H18R16633   6.816   0.333   8.998  2.2022 -0.6594 -0.9768
  150SAPE  H18S16634   6.653   0.358   8.917 -2.1726 -2.2806  0.4227
  150SAPE  C21916635   6.810   0.283   8.788  0.0556 -0.0866 -0.5736
  150SAPE  H19R16636   6.901   0.224   8.811 -0.4963  0.0486  2.3461
  150SAPE  H19S16637   6.841   0.381   8.746  2.9705  0.1529  1.8109
  150SAPE  C22016638   6.729   0.218   8.679 -0.7772  0.7997 -0.3174
  150SAPE  H20R16639   6.790   0.191   8.589 -1.4644  0.7075 -0.7620
  150SAPE  H20S16640   6.648   0.288   8.652 -0.2058  1.4827 -0.2963
  150SAPE  H20T16641   6.681   0.124   8.715  1.9513 -0.6876 -0.2274
  150SAPE   C3316642   6.751   1.292  10.105  0.2856 -0.2042 -0.3213
  150SAPE   H3X16643   6.664   1.323  10.166  0.9174 -1.4465  1.2588
  150SAPE   H3Y16644   6.727   1.260  10.001 -2.1044 -1.9023  0.6663
  150SAPE   C3416645   6.849   1.413  10.092 -0.4126  0.0611  0.3515
  150SAPE   H4X16646   6.942   1.391  10.034  0.1496  2.8794  0.0549
  150SAPE   H4Y16647   6.879   1.447  10.194 -0.4595  0.9981  0.0608
  150SAPE   C3516648   6.784   1.525  10.021 -0.0954  0.1763 -0.8150
  150SAPE   H5X16649   6.839   1.618  10.048  1.4765 -1.2745  1.2474
  150SAPE   H5Y16650   6.684   1.535  10.068  0.1314 -1.2408  0.0336
  150SAPE   C3616651   6.783   1.505   9.870 -0.2425 -0.3741 -0.3943
  150SAPE   H6X16652   6.688   1.552   9.837  0.8995  0.6115 -2.4592
  150SAPE   H6Y16653   6.784   1.405   9.822  1.2143  0.0680 -1.3298
  150SAPE   C3716654   6.888   1.593   9.800 -0.1972 -1.3741 -0.1988
  150SAPE   H7X16655   6.983   1.558   9.845  0.8037  0.7738 -0.5531
  150SAPE   H7Y16656   6.880   1.699   9.831  1.5487 -0.6499 -2.0116
  150SAPE   C3816657   6.896   1.601   9.651  0.4848  0.2844  0.3596
  150SAPE   H8X16658   6.987   1.659   9.623  0.7986  0.5883  1.8990
  150SAPE   H8Y16659   6.803   1.646   9.612 -1.1299 -3.6400 -0.7635
  150SAPE   C3916660   6.885   1.468   9.576  0.3280  0.0778  0.5959
  150SAPE   H9X16661   6.782   1.432   9.597 -1.1064  1.8853 -2.5449
  150SAPE   H9Y16662   6.963   1.396   9.607  0.5134 -0.7951 -1.6801
  150SAPE  C31016663   6.894   1.476   9.420 -0.1969  0.2901 -0.9103
  150SAPE  H10X16664   6.898   1.371   9.384  1.1806 -0.3232  0.8756
  150SAPE  H10Y16665   6.994   1.521   9.402 -0.4804  0.4836 -2.1050
  150SAPE  C31116666   6.783   1.552   9.348  0.1238  0.0097  0.1407
  150SAPE  H11X16667   6.769   1.654   9.389  0.0079  0.5471 -1.1798
  150SAPE  H11Y16668   6.688   1.494   9.358 -0.3731  0.4194 -1.8134
  150SAPE  C31216669   6.818   1.574   9.201 -0.2058 -0.1314 -1.1876
  150SAPE  H12X16670   6.845   1.481   9.147 -2.3337 -1.3482 -0.2604
  150SAPE  H12Y16671   6.904   1.645   9.195  2.2722 -2.6616  1.3250
  150SAPE  C31316672   6.703   1.635   9.133 -0.3243 -0.4809  0.2293
  150SAPE  H13X16673   6.659   1.712   9.199  0.3537 -0.0562  0.1929
  150SAPE  H13Y16674   6.628   1.554   9.116  0.7054 -1.2938 -0.5799
  150SAPE  C31416675   6.727   1.709   8.994 -0.2889 -0.8231  0.0216
  150SAPE  H14X16676   6.752   1.634   8.916 -0.1098 -4.8990  3.5900
  150SAPE  H14Y16677   6.808   1.784   9.004 -0.4186 -0.5634 -0.8186
  150SAPE  C31516678   6.618   1.799   8.940  0.2751  0.6000  0.5030
  150SAPE  H15X16679   6.663   1.856   8.855 -0.3008  2.2960  1.2873
  150SAPE  H15Y16680   6.577   1.864   9.020 -1.2674  0.5704 -0.2216
  150SAPE  C31616681   6.495   1.726   8.878 -0.8621  0.4158  0.0288
  150SAPE  H16X16682   6.453   1.678   8.969  1.1026 -0.6670  0.4109
  150SAPE  H16Y16683   6.530   1.647   8.808  0.4877  3.2554 -2.7523
  150SAPE  C31716684   6.408   1.831   8.810  0.1414  0.2268  0.2926
  150SAPE  H17X16685   6.471   1.868   8.726 -1.0781 -0.2821 -0.8816
  150SAPE  H17Y16686   6.377   1.914   8.877 -1.5049 -0.0878 -0.0464
  150SAPE  C31816687   6.283   1.787   8.740  0.5416  0.0853  0.4517
  150SAPE  H18X16688   6.210   1.871   8.740 -0.9774 -1.1616 -1.4280
  150SAPE  H18Y16689   6.234   1.699   8.786  0.8596 -1.3236 -1.7322
  150SAPE  H18Z16690   6.289   1.762   8.632 -1.0268  0.1566  0.3326
  151SAPE     N16691   4.637   4.559  10.377 -0.3134  0.5419  0.1731
  151SAPE   HN116692   4.542   4.571  10.417 -0.0968 -0.1942  0.9299
  151SAPE   HN216693   4.706   4.610  10.436  1.5657 -0.0358 -1.4247
  151SAPE   HN316694   4.639   4.590  10.278 -1.2322  1.4399  0.4136
  151SAPE   C1216695   4.656   4.411  10.361  0.1556  0.7891 -0.2203
  151SAPE  H12A16696   4.594   4.376  10.276  0.4259  1.3468 -0.6526
  151SAPE  H12B16697   4.631   4.374  10.463  0.1344  0.0167 -0.5010
  151SAPE   C1116698   4.807   4.386  10.325 -0.0585  0.3442 -0.0637
  151SAPE  H11A16699   4.816   4.391  10.214 -0.8533  3.1210 -0.0974
  151SAPE  H11B16700   4.841   4.284  10.353  0.7864  0.3294 -1.0903
  151SAPE     P16701   5.049   4.471  10.383  0.3906  0.2746 -0.2532
  151SAPE   O1316702   5.108   4.604  10.413  0.3877 -0.5949 -0.1166
  151SAPE   O1416703   5.100   4.356  10.464 -0.1140 -0.5286  0.2695
  151SAPE   O1216704   4.894   4.477  10.388 -0.2592  0.1776 -0.5010
  151SAPE   O1116705   5.082   4.435  10.228  0.4223  0.2850  0.6015
  151SAPE    C116706   5.214   4.384  10.213  0.1358 -0.3712  0.5285
  151SAPE    HA16707   5.288   4.453  10.260 -1.2348  0.4984  1.5105
  151SAPE    HB16708   5.228   4.279  10.244 -0.9882 -0.6481  0.1628
  151SAPE    C216709   5.252   4.393  10.060 -0.3704  0.0123 -0.7964
  151SAPE    HS16710   5.355   4.353  10.044 -0.8180 -1.3190 -0.5209
  151SAPE   O2116711   5.237   4.526  10.000 -0.3409 -0.1954  0.0087
  151SAPE   C2116712   5.331   4.605  10.036 -0.4946  0.7102  0.1410
  151SAPE   O2216713   5.433   4.576  10.099 -0.3174  0.5144 -0.3631
  151SAPE   C2216714   5.294   4.747   9.991  0.1426 -0.0534 -0.0004
  151SAPE   H2R16715   5.205   4.780  10.048 -0.9091 -0.9732 -1.0529
  151SAPE   H2S16716   5.372   4.815  10.032  1.7219 -2.0898  0.5440
  151SAPE    C316717   5.156   4.295   9.982  0.3746 -0.2688  0.5300
  151SAPE    HX16718   5.050   4.321  10.002 -0.3348 -1.7809 -0.9722
  151SAPE    HY16719   5.167   4.192  10.023 -3.1494 -0.9760  0.0085
  151SAPE   O3116720   5.192   4.299   9.841 -0.8636  0.3361 -0.3673
  151SAPE   C3116721   5.120   4.395   9.769 -0.0844 -0.0841 -0.3324
  151SAPE   O3216722   5.036   4.470   9.820 -0.4265  0.6263  0.0059
  151SAPE   C3216723   5.192   4.412   9.641  0.7985 -0.1896 -0.2175
  151SAPE   H2X16724   5.236   4.314   9.612  0.7017 -0.2969 -0.0048
  151SAPE   H2Y16725   5.261   4.499   9.634 -0.6600  0.9772 -0.5216
  151SAPE   C2316726   5.292   4.757   9.836 -0.7388 -0.4869  0.3185
  151SAPE   H3R16727   5.190   4.722   9.808  0.7872 -4.0796 -1.3262
  151SAPE   H3S16728   5.357   4.685   9.783 -0.3271  0.3869 -0.3850
  151SAPE   C2416729   5.304   4.893   9.769  0.0600 -0.5630 -0.5064
  151SAPE   H4R16730   5.231   4.968   9.806  0.3089 -0.0857 -0.9757
  151SAPE   H4S16731   5.289   4.869   9.661  0.9436 -0.3697 -0.6757
  151SAPE   C2516732   5.433   4.961   9.785 -0.6718  0.1956 -0.0801
  151SAPE   H5R16733   5.459   4.975   9.891 -0.8918 -0.0486  0.0075
  151SAPE   C2616734   5.525   5.002   9.692 -0.3793  0.1287 -0.4731
  151SAPE   H6R16735   5.620   5.034   9.737 -1.3902 -0.0343  1.9306
  151SAPE   C2716736   5.503   4.982   9.542  0.0370 -0.1280  0.4932
  151SAPE   H7R16737   5.413   5.043   9.520  0.6121  1.2134  1.6921
  151SAPE   H7S16738   5.484   4.877   9.512  1.1315 -0.4585  0.9041
  151SAPE   C2816739   5.620   5.021   9.453 -0.1866  0.6530  0.3832
  151SAPE   H8R16740   5.712   5.044   9.508 -0.3372 -0.0642  0.9427
  151SAPE   C2916741   5.608   5.061   9.326  0.1087  0.4296  0.4376
  151SAPE   H9R16742   5.698   5.070   9.264 -0.5078 -2.3192 -1.0363
  151SAPE  C21016743   5.475   5.060   9.249 -1.1190 -0.2238  0.4948
  151SAPE  H10R16744   5.443   5.165   9.233  0.2985  0.3562  1.3239
  151SAPE  H10S16745   5.398   5.010   9.313 -2.7539  0.2214 -1.0453
  151SAPE  C21116746   5.485   4.973   9.125 -0.9585 -0.0704 -0.0306
  151SAPE  H11R16747   5.489   4.867   9.154 -1.3281 -0.2405 -0.5964
  151SAPE  C21216748   5.500   5.014   8.992  0.5489 -0.2847  0.3186
  151SAPE  H12R16749   5.523   4.942   8.912 -1.1672  0.3533 -0.7936
  151SAPE  C21316750   5.493   5.160   8.949 -0.6052 -0.0013  0.2064
  151SAPE  H13R16751   5.548   5.171   8.853 -1.1474 -3.3009 -0.5913
  151SAPE  H13S16752   5.555   5.223   9.017  1.7902 -1.0160 -0.9222
  151SAPE  C21416753   5.365   5.239   8.947  0.5640  0.8382 -0.0746
  151SAPE  H14R16754   5.325   5.256   9.048 -0.5889 -0.4175 -0.2970
  151SAPE  C21516755   5.299   5.289   8.840  0.2520 -0.6017 -0.3072
  151SAPE  H15R16756   5.212   5.353   8.860  1.6848  1.1182  0.7298
  151SAPE  C21616757   5.345   5.260   8.698  0.5680 -0.0324 -0.1972
  151SAPE  H16R16758   5.250   5.277   8.642  0.4249 -0.9986 -0.2618
  151SAPE  H16S16759   5.359   5.153   8.672  2.4742  0.7936 -2.9571
  151SAPE  C21716760   5.461   5.349   8.651  0.7058 -0.8016  0.7626
  151SAPE  H17R16761   5.553   5.291   8.675 -0.0415 -2.2999  0.1797
  151SAPE  H17S16762   5.472   5.445   8.705  2.5292 -1.5899  1.9069
  151SAPE  C21816763   5.463   5.362   8.496 -0.1825  0.0336 -0.0263
  151SAPE  H18R16764   5.466   5.260   8.451 -3.2930  0.0295 -0.4168
  151SAPE  H18S16765   5.550   5.427   8.476 -0.3245  0.9512  2.0703
  151SAPE  C21916766   5.344   5.426   8.420  0.5296 -0.1104 -0.1826
  151SAPE  H19R16767   5.323   5.524   8.469  0.8838  0.1039 -0.4654
  151SAPE  H19S16768   5.255   5.361   8.434 -0.4268  0.6176 -2.4395
  151SAPE  C22016769   5.378   5.456   8.275 -0.1081  0.1263  0.2678
  151SAPE  H20R16770   5.478   5.504   8.273  0.0750 -0.2420  0.4032
  151SAPE  H20S16771   5.309   5.528   8.226 -0.2765  0.1032  0.4654
  151SAPE  H20T16772   5.377   5.359   8.221  0.0259 -0.8794  1.9963
  151SAPE   C3316773   5.081   4.442   9.534  0.4895  0.3418  0.1193
  151SAPE   H3X16774   4.990   4.379   9.539 -2.0327  3.7754  0.4892
  151SAPE   H3Y16775   5.114   4.426   9.429 -3.8691  0.2016 -1.4115
  151SAPE   C3416776   5.026   4.588   9.529  0.0798  0.0365 -0.5731
  151SAPE   H4X16777   5.000   4.606   9.635  2.4268 -1.8912  0.4483
  151SAPE   H4Y16778   4.941   4.600   9.459 -0.9117  1.6227  0.8528
  151SAPE   C3516779   5.136   4.686   9.478  0.3675 -0.7186  0.7102
  151SAPE   H5X16780   5.241   4.654   9.494  1.1196  1.7972  1.1524
  151SAPE   H5Y16781   5.123   4.781   9.533 -0.0224  0.3794 -1.1778
  151SAPE   C3616782   5.129   4.729   9.326  0.3758 -0.0706  0.7040
  151SAPE   H6X16783   5.194   4.818   9.314  2.4044 -1.2852  2.1348
  151SAPE   H6Y16784   5.026   4.764   9.302  0.7045 -0.1114 -0.8613
  151SAPE   C3716785   5.167   4.611   9.234  0.1225 -0.0529  0.4998
  151SAPE   H7X16786   5.085   4.536   9.227  2.6253 -2.8996 -0.7037
  151SAPE   H7Y16787   5.251   4.556   9.283  0.8064  2.0780  1.8474
  151SAPE   C3816788   5.207   4.660   9.091  0.1770  0.0380 -0.1519
  151SAPE   H8X16789   5.226   4.562   9.040 -2.3614  0.3296 -1.8822
  151SAPE   H8Y16790   5.305   4.711   9.098  1.1687 -1.9591  1.5960
  151SAPE   C3916791   5.110   4.758   9.017  0.1565 -0.6608  0.2480
  151SAPE   H9X16792   5.115   4.863   9.053  2.5780 -0.4215 -0.5651
  151SAPE   H9Y16793   5.005   4.723   9.022 -0.3000  0.6163 -0.2787
  151SAPE  C31016794   5.134   4.766   8.865 -0.0648 -0.1407 -0.1777
  151SAPE  H10X16795   5.046   4.826   8.831  1.0415  0.7263 -1.6523
  151SAPE  H10Y16796   5.118   4.665   8.821 -1.3939  0.6685 -1.6799
  151SAPE  C31116797   5.266   4.846   8.828 -0.3320  0.5165 -0.4517
  151SAPE  H11X16798   5.345   4.800   8.891 -0.4236  3.7619  2.3445
  151SAPE  H11Y16799   5.266   4.949   8.871  2.7817  1.1624 -1.7258
  151SAPE  C31216800   5.303   4.858   8.675 -0.1764 -0.0859 -1.2503
  151SAPE  H12X16801   5.318   4.757   8.629  1.7395 -0.3408 -0.1764
  151SAPE  H12Y16802   5.402   4.907   8.675 -0.7925  1.1867 -0.6464
  151SAPE  C31316803   5.194   4.929   8.599  0.0259  0.4676  0.1974
  151SAPE  H13X16804   5.188   5.029   8.647 -0.0788  0.0406  1.0936
  151SAPE  H13Y16805   5.096   4.882   8.618 -0.2669  1.0990  0.2800
  151SAPE  C31416806   5.208   4.924   8.443  0.2222 -0.4806 -0.1536
  151SAPE  H14X16807   5.205   4.820   8.406  0.1811  0.4708 -3.1216
  151SAPE  H14Y16808   5.298   4.969   8.394 -0.2922 -0.2343 -0.8818
  151SAPE  C31516809   5.082   4.987   8.379 -0.2089 -0.2740 -0.0153
  151SAPE  H15X16810   5.083   5.097   8.397 -3.0441 -0.2040  0.1521
  151SAPE  H15Y16811   4.991   4.942   8.422  0.6800 -0.5512  1.6607
  151SAPE  C31616812   5.080   4.979   8.230 -0.0366 -0.1204 -0.3052
  151SAPE  H16X16813   5.058   4.876   8.196 -2.0434  0.4826 -0.9614
  151SAPE  H16Y16814   5.182   5.001   8.191 -0.3287  2.4644  0.1995
  151SAPE  C31716815   4.979   5.068   8.152 -0.4488  0.4705  0.0825
  151SAPE  H17X16816   5.007   5.174   8.172 -1.4102  0.5890  0.8742
  151SAPE  H17Y16817   4.878   5.061   8.197  0.1348 -2.5387  1.0986
  151SAPE  C31816818   4.979   5.027   8.000  0.3026 -0.2299  0.0039
  151SAPE  H18X16819   4.962   5.114   7.933 -0.0209 -0.4298 -0.1773
  151SAPE  H18Y16820   4.899   4.952   7.987 -0.5236  0.6955 -0.4067
  151SAPE  H18Z16821   5.081   4.984   7.991 -0.0272 -1.7266  2.6255
  152SAPE     N16822   5.613   3.694  10.644  0.0955  0.1336  0.2919
  152SAPE   HN116823   5.677   3.655  10.717  1.1789  1.4524  0.1022
  152SAPE   HN216824   5.559   3.613  10.608  0.7737  0.8359 -2.5223
  152SAPE   HN316825   5.678   3.732  10.572  3.3977  1.3135  3.5266
  152SAPE   C1216826   5.538   3.812  10.703 -0.2910  0.0597 -0.0987
  152SAPE  H12A16827   5.604   3.837  10.788 -0.0409  0.0789 -0.2961
  152SAPE  H12B16828   5.442   3.765  10.733 -0.4206  1.0427  1.1070
  152SAPE   C1116829   5.521   3.926  10.600 -0.3224  0.5310 -0.5076
  152SAPE  H11A16830   5.611   3.987  10.578 -0.7736  1.4100  0.0467
  152SAPE  H11B16831   5.453   4.003  10.643 -1.8536  0.0446 -1.9567
  152SAPE     P16832   5.409   3.987  10.375 -0.3718 -0.0417  0.2558
  152SAPE   O1316833   5.337   3.909  10.277 -0.5699 -0.2239 -0.0052
  152SAPE   O1416834   5.338   4.096  10.442 -0.8246 -0.4640  0.6978
  152SAPE   O1216835   5.467   3.878  10.477  0.0639 -0.1471  0.0526
  152SAPE   O1116836   5.534   4.052  10.306 -0.0373  0.6851 -0.0164
  152SAPE    C116837   5.664   3.985  10.281 -0.0980 -0.1955 -0.1513
  152SAPE    HA16838   5.739   4.018  10.355  1.2237 -0.9958 -1.1026
  152SAPE    HB16839   5.655   3.874  10.283  1.6408 -0.3537  2.1350
  152SAPE    C216840   5.720   4.030  10.145 -0.6164 -0.1244  0.0367
  152SAPE    HS16841   5.736   4.139  10.145  3.5346 -0.4319 -3.8586
  152SAPE   O2116842   5.624   3.997  10.045  0.3170  0.6711  0.5145
  152SAPE   C2116843   5.537   4.092  10.013  0.1712 -0.9915 -0.2131
  152SAPE   O2216844   5.535   4.206  10.050 -0.0754  0.0827  0.0621
  152SAPE   C2216845   5.433   4.027   9.921  0.1615 -0.1065 -0.6605
  152SAPE   H2R16846   5.391   3.941   9.979 -4.4071  3.1388  1.4649
  152SAPE   H2S16847   5.349   4.096   9.899  0.9774  2.1099  2.5416
  152SAPE    C316848   5.856   3.955  10.115 -0.9332 -1.0174 -0.1003
  152SAPE    HX16849   5.842   3.848  10.138  0.4772 -1.4776 -1.2113
  152SAPE    HY16850   5.934   3.998  10.182 -2.4084  0.0679  0.9991
  152SAPE   O3116851   5.905   3.962   9.981 -0.9635 -0.3700 -0.0815
  152SAPE   C3116852   5.941   4.079   9.937  0.1091 -1.2127  0.1349
  152SAPE   O3216853   5.936   4.187   9.995  0.2380 -0.0162 -0.3050
  152SAPE   C3216854   5.995   4.066   9.794  0.5828  0.1121  0.8936
  152SAPE   H2X16855   5.937   3.990   9.739  0.9871  0.3803  0.0797
  152SAPE   H2Y16856   6.100   4.028   9.797  0.6304  0.2307  0.7674
  152SAPE   C2316857   5.491   3.983   9.791  0.2300  0.5690 -0.4290
  152SAPE   H3R16858   5.414   3.920   9.742  0.1863  0.1710  0.1411
  152SAPE   H3S16859   5.584   3.924   9.803  0.5244  1.0231 -0.4544
  152SAPE   C2416860   5.520   4.098   9.693 -0.0923 -0.3009 -0.3193
  152SAPE   H4R16861   5.593   4.164   9.744 -1.8103  2.0444 -0.7263
  152SAPE   H4S16862   5.430   4.163   9.684 -0.6945 -0.8780  1.1799
  152SAPE   C2516863   5.571   4.042   9.563 -0.3938 -0.6625 -1.0899
  152SAPE   H5R16864   5.642   3.962   9.588 -1.2957 -0.8405  1.0627
  152SAPE   C2616865   5.531   4.065   9.441 -0.3697  0.8030  0.6755
  152SAPE   H6R16866   5.566   4.003   9.358 -0.4912 -0.1207  1.2958
  152SAPE   C2716867   5.419   4.167   9.408  0.3430 -0.3084  0.4923
  152SAPE   H7R16868   5.437   4.256   9.472  0.4748 -0.6684  0.9705
  152SAPE   H7S16869   5.317   4.131   9.431 -0.3608  0.9698 -0.5476
  152SAPE   C2816870   5.411   4.221   9.272 -0.1450  0.2147  0.1152
  152SAPE   H8R16871   5.430   4.328   9.259  2.5488 -0.3224 -0.9616
  152SAPE   C2916872   5.396   4.149   9.156 -1.2906 -0.5680 -0.6502
  152SAPE   H9R16873   5.404   4.202   9.060 -1.1029 -2.5720 -1.7994
  152SAPE  C21016874   5.377   4.002   9.137  0.2577 -0.0422  0.2106
  152SAPE  H10R16875   5.279   3.994   9.086 -0.3343  3.2688  0.5709
  152SAPE  H10S16876   5.372   3.950   9.235  1.1575 -1.4963 -0.4861
  152SAPE  C21116877   5.490   3.934   9.066  0.2637 -0.0140  0.0144
  152SAPE  H11R16878   5.580   3.903   9.122  1.4030  0.1572 -1.6415
  152SAPE  C21216879   5.492   3.917   8.931 -0.6485 -0.7673  0.4951
  152SAPE  H12R16880   5.577   3.861   8.889  0.8166  0.1912  2.0310
  152SAPE  C21316881   5.391   3.970   8.837  0.4699  0.7602  0.1308
  152SAPE  H13R16882   5.437   3.977   8.736  1.2361 -1.7384  0.2387
  152SAPE  H13S16883   5.369   4.076   8.864 -0.9938  0.2006  1.2777
  152SAPE  C21416884   5.260   3.893   8.827 -0.9291  0.2095 -0.8327
  152SAPE  H14R16885   5.185   3.921   8.902 -1.0133  0.0028 -0.8401
  152SAPE  C21516886   5.214   3.812   8.732 -0.3993  0.8167  0.4995
  152SAPE  H15R16887   5.119   3.764   8.759  0.5142  0.5295  3.5869
  152SAPE  C21616888   5.285   3.768   8.603  0.2696 -0.1806  0.0539
  152SAPE  H16R16889   5.300   3.658   8.595 -0.4376 -0.4909  2.3943
  152SAPE  H16S16890   5.387   3.810   8.591  0.6433 -1.3852 -1.2454
  152SAPE  C21716891   5.217   3.803   8.467 -0.0683 -0.2192 -0.2671
  152SAPE  H17R16892   5.169   3.903   8.459  3.1916  1.4404 -0.8350
  152SAPE  H17S16893   5.132   3.732   8.463 -1.0071  0.9186 -1.8052
  152SAPE  C21816894   5.307   3.763   8.347  0.4739 -0.8474 -0.0719
  152SAPE  H18R16895   5.238   3.722   8.271 -1.1166  1.4553  0.0107
  152SAPE  H18S16896   5.386   3.689   8.372  2.2115  1.7561  2.9073
  152SAPE  C21916897   5.355   3.898   8.293 -0.3438 -0.4280 -0.0937
  152SAPE  H19R16898   5.400   3.958   8.374 -1.5695  0.8041 -0.2901
  152SAPE  H19S16899   5.279   3.976   8.270  0.4261  1.3088  2.7095
  152SAPE  C22016900   5.460   3.890   8.186 -0.2982 -0.3131 -0.3647
  152SAPE  H20R16901   5.553   3.841   8.224 -2.0432 -2.0041  2.0074
  152SAPE  H20S16902   5.492   3.993   8.159 -0.4166 -0.0336  0.5094
  152SAPE  H20T16903   5.439   3.847   8.086  1.9533 -0.8865 -0.6624
  152SAPE   C3316904   5.998   4.200   9.714  0.3768 -0.3820  0.1464
  152SAPE   H3X16905   6.078   4.266   9.754 -0.0676  0.6359 -0.6218
  152SAPE   H3Y16906   5.904   4.256   9.731  1.4845  1.2811  1.0953
  152SAPE   C3416907   6.032   4.196   9.560  0.2534 -0.3914 -0.4053
  152SAPE   H4X16908   6.128   4.142   9.548 -0.5734 -2.1872  0.5572
  152SAPE   H4Y16909   6.042   4.301   9.527  0.1996 -0.2970 -0.1232
  152SAPE   C3516910   5.931   4.120   9.480  0.2940  0.6521 -0.1402
  152SAPE   H5X16911   5.829   4.156   9.505 -1.0857 -2.4073 -0.7822
  152SAPE   H5Y16912   5.944   4.010   9.490  2.9640  0.9298  0.1666
  152SAPE   C3616913   5.948   4.162   9.337 -0.2677 -0.3933 -0.2729
  152SAPE   H6X16914   6.044   4.124   9.295 -0.1633  0.7965 -1.1677
  152SAPE   H6Y16915   5.949   4.272   9.330  1.6765 -0.4039 -0.7603
  152SAPE   C3716916   5.834   4.100   9.250  0.5175 -0.0888  0.4489
  152SAPE   H7X16917   5.739   4.133   9.298  0.5008 -1.1852  1.2126
  152SAPE   H7Y16918   5.853   3.990   9.250 -0.6448 -0.3712  3.0948
  152SAPE   C3816919   5.850   4.135   9.108  0.0877 -0.1311  0.4407
  152SAPE   H8X16920   5.885   4.241   9.102  0.4921 -0.3324 -1.8498
  152SAPE   H8Y16921   5.749   4.129   9.062 -0.1760 -1.1105  1.1307
  152SAPE   C3916922   5.932   4.052   9.012  0.0495  0.0580  0.6723
  152SAPE   H9X16923   5.878   3.956   8.994  3.4646 -1.5137 -2.5693
  152SAPE   H9Y16924   6.036   4.046   9.053  0.2224 -0.8373  0.1364
  152SAPE  C31016925   5.942   4.115   8.873  0.5103 -0.5838 -0.1914
  152SAPE  H10X16926   6.005   4.046   8.813  3.5633  1.8816 -0.1257
  152SAPE  H10Y16927   5.998   4.211   8.872  1.0078 -0.8756 -1.3441
  152SAPE  C31116928   5.804   4.124   8.793 -0.4637  0.3559  0.4298
  152SAPE  H11X16929   5.744   4.214   8.817 -1.2445 -0.2611  0.8090
  152SAPE  H11Y16930   5.747   4.034   8.822 -2.4818  1.5144  0.1876
  152SAPE  C31216931   5.836   4.128   8.641 -0.1561  0.3361 -0.2625
  152SAPE  H12X16932   5.887   4.036   8.606 -0.8935  0.2048 -1.0027
  152SAPE  H12Y16933   5.913   4.207   8.627  1.3440 -0.9285  0.4667
  152SAPE  C31316934   5.703   4.150   8.560 -0.3144  0.3947  0.0522
  152SAPE  H13X16935   5.651   4.242   8.594 -0.1216 -0.2778  2.3175
  152SAPE  H13Y16936   5.632   4.068   8.584 -2.2325  1.9575 -0.0970
  152SAPE  C31416937   5.722   4.155   8.409 -0.0463  0.9949 -0.0308
  152SAPE  H14X16938   5.760   4.055   8.378 -1.2812 -0.0694  1.6589
  152SAPE  H14Y16939   5.810   4.221   8.397  0.4776 -0.0055 -1.9386
  152SAPE  C31516940   5.602   4.208   8.334 -0.6936  0.2347  0.2359
  152SAPE  H15X16941   5.548   4.271   8.407 -4.3546 -2.0834 -0.2275
  152SAPE  H15Y16942   5.535   4.122   8.314 -0.5282  0.5370 -1.8624
  152SAPE  C31616943   5.620   4.290   8.207 -0.3048 -0.1373 -0.1202
  152SAPE  H16X16944   5.705   4.362   8.214  0.1379 -0.5836 -0.7304
  152SAPE  H16Y16945   5.521   4.336   8.189  0.5814  1.0347 -2.4644
  152SAPE  C31716946   5.654   4.214   8.067 -0.2320 -0.7508 -0.2185
  152SAPE  H17X16947   5.567   4.148   8.046 -1.5598  1.7402 -3.3327
  152SAPE  H17Y16948   5.747   4.154   8.079  0.5645  0.3863 -0.5344
  152SAPE  C31816949   5.674   4.313   7.954 -0.4229  0.5577  0.3746
  152SAPE  H18X16950   5.609   4.401   7.975 -0.2228  0.5554  1.0089
  152SAPE  H18Y16951   5.636   4.264   7.861 -2.3968  1.8251  0.4567
  152SAPE  H18Z16952   5.778   4.350   7.944  0.4852 -1.9759 -0.4715
  153SAPE     N16953   4.676   6.056  10.981  0.4511  0.3452  0.2216
  153SAPE   HN116954   4.614   6.059  11.064 -0.9165  2.5881 -0.7987
  153SAPE   HN216955   4.616   6.057  10.897 -0.9510 -0.6233  1.1714
  153SAPE   HN316956   4.722   5.963  10.986  0.2298  0.2689  0.9989
  153SAPE   C1216957   4.772   6.171  10.969  0.4694 -0.0342  0.4149
  153SAPE  H12A16958   4.847   6.165  11.051  0.0937  0.0271  0.7637
  153SAPE  H12B16959   4.704   6.258  10.980 -1.6630 -1.1665 -2.3920
  153SAPE   C1116960   4.837   6.175  10.830  0.3436  0.1852 -0.0393
  153SAPE  H11A16961   4.903   6.087  10.811  0.9467 -0.3283  3.6588
  153SAPE  H11B16962   4.900   6.266  10.834 -0.2176  0.5343  2.9163
  153SAPE     P16963   4.683   6.341  10.683 -0.3227  0.2014  0.1588
  153SAPE   O1316964   4.534   6.329  10.667 -0.2718 -0.2890 -0.3012
  153SAPE   O1416965   4.735   6.437  10.781 -0.1281 -0.1069  0.1035
  153SAPE   O1216966   4.728   6.192  10.736  0.2303 -0.3942 -0.0507
  153SAPE   O1116967   4.754   6.362  10.541 -0.2399 -0.0451 -0.3943
  153SAPE    C116968   4.894   6.332  10.524  0.0676  0.2577 -0.4562
  153SAPE    HA16969   4.920   6.241  10.583 -1.4913  0.3065  0.3616
  153SAPE    HB16970   4.906   6.303  10.417  1.1970 -2.0625  0.2291
  153SAPE    C216971   4.986   6.446  10.564 -0.6694 -0.7280 -0.2890
  153SAPE    HS16972   4.982   6.444  10.675 -0.4970 -0.0813 -0.2687
  153SAPE   O2116973   4.933   6.564  10.505  0.1168 -0.7297 -0.1118
  153SAPE   C2116974   4.964   6.674  10.567  0.2110  0.2300  0.2739
  153SAPE   O2216975   5.016   6.686  10.674  0.3608 -0.0217 -0.1082
  153SAPE   C2216976   4.922   6.786  10.478  0.2368 -0.2135 -0.3264
  153SAPE   H2R16977   4.978   6.778  10.383  2.0317 -0.4318  0.6996
  153SAPE   H2S16978   4.815   6.762  10.457  0.1068  0.3472 -0.3231
  153SAPE    C316979   5.134   6.426  10.513  0.3437  0.2270  0.0365
  153SAPE    HX16980   5.170   6.336  10.567  1.9672  1.0362  0.3579
  153SAPE    HY16981   5.200   6.511  10.541  0.0519  0.9151 -1.2585
  153SAPE   O3116982   5.136   6.400  10.374 -0.2524 -0.0600  0.3232
  153SAPE   C3116983   5.200   6.489  10.297 -0.0795  0.4272 -1.0393
  153SAPE   O3216984   5.243   6.593  10.329 -0.0778 -0.4844  0.0519
  153SAPE   C3216985   5.214   6.436  10.156 -0.2210  0.2567 -0.5352
  153SAPE   H2X16986   5.277   6.345  10.166 -2.6925 -1.7331 -1.9028
  153SAPE   H2Y16987   5.275   6.505  10.095 -0.3835 -0.5505 -1.6642
  153SAPE   C2316988   4.941   6.917  10.554  0.3729  0.3246  0.4142
  153SAPE   H3R16989   5.047   6.925  10.585  0.2491 -0.2508  1.0070
  153SAPE   H3S16990   4.876   6.918  10.644 -0.7005  1.8505 -0.3160
  153SAPE   C2416991   4.915   7.043  10.467  0.3503 -0.1451  0.7353
  153SAPE   H4R16992   4.959   7.030  10.366 -0.8238  3.9961 -0.5158
  153SAPE   H4S16993   4.958   7.139  10.503  0.7358  0.5910 -1.5398
  153SAPE   C2516994   4.765   7.054  10.462 -0.3981 -0.3960 -0.1223
  153SAPE   H5R16995   4.710   7.055  10.557  0.8096  0.0950  0.5882
  153SAPE   C2616996   4.686   7.050  10.353  0.2263  0.3683 -0.6499
  153SAPE   H6R16997   4.577   7.042  10.365 -0.0424 -0.3805 -2.9712
  153SAPE   C2716998   4.727   7.028  10.210 -0.2507  0.8378  0.5090
  153SAPE   H7R16999   4.824   6.974  10.207 -0.2096  0.8754  1.1721
  153SAPE   H7S17000   4.762   7.123  10.165  0.4226 -0.7199 -2.5692
  153SAPE   C2817001   4.630   6.966  10.113  0.7531  0.4062 -0.1020
  153SAPE   H8R17002   4.545   6.906  10.150 -1.0749  1.6857 -2.0272
  153SAPE   C2917003   4.633   6.983   9.981 -0.4425  0.3288 -0.5775
  153SAPE   H9R17004   4.556   6.934   9.921 -0.2208 -0.3991 -0.2892
  153SAPE  C21017005   4.740   7.062   9.912 -0.0294 -0.0487  0.0637
  153SAPE  H10R17006   4.839   7.023   9.944  0.3434 -0.2115 -1.2297
  153SAPE  H10S17007   4.734   7.171   9.932  1.5406  0.3383 -1.3843
  153SAPE  C21117008   4.736   7.032   9.767 -0.1491 -0.1159  0.0144
  153SAPE  H11R17009   4.755   6.928   9.737 -0.5961  0.1040 -1.0607
  153SAPE  C21217010   4.681   7.120   9.676 -0.2476 -0.2471  0.4838
  153SAPE  H12R17011   4.666   7.085   9.573 -1.8654 -0.2555  0.6965
  153SAPE  C21317012   4.620   7.254   9.700  0.2557 -0.2337 -0.1169
  153SAPE  H13R17013   4.691   7.334   9.671 -0.3930  0.3093 -0.2378
  153SAPE  H13S17014   4.621   7.270   9.810  1.5125  4.0768 -0.5795
  153SAPE  C21417015   4.483   7.262   9.634  0.9569 -0.1082  0.2330
  153SAPE  H14R17016   4.396   7.257   9.702  0.9628 -1.8252  0.1418
  153SAPE  C21517017   4.458   7.291   9.509  0.4188 -0.6160  0.5967
  153SAPE  H15R17018   4.355   7.274   9.473  1.2939 -0.8206 -1.9958
  153SAPE  C21617019   4.552   7.326   9.394  0.6742 -0.4134 -0.6906
  153SAPE  H16R17020   4.650   7.351   9.438  0.1485 -1.1718  0.9792
  153SAPE  H16S17021   4.517   7.426   9.361 -1.9684 -1.3616 -1.0465
  153SAPE  C21717022   4.563   7.237   9.270 -0.6171  0.1411  0.4225
  153SAPE  H17R17023   4.462   7.204   9.238 -1.9295  1.8579  2.4800
  153SAPE  H17S17024   4.617   7.145   9.302 -1.5104 -0.0348  1.4892
  153SAPE  C21817025   4.639   7.306   9.154  0.5576 -0.6329 -0.1286
  153SAPE  H18R17026   4.739   7.337   9.191  0.5620 -1.5187  0.6270
  153SAPE  H18S17027   4.586   7.400   9.128 -1.5474 -0.8515  2.8447
  153SAPE  C21917028   4.640   7.217   9.032  0.1746 -0.1762 -0.0231
  153SAPE  H19R17029   4.540   7.201   8.986 -0.2097  0.6740  0.4895
  153SAPE  H19S17030   4.677   7.117   9.064  1.3490  1.0112  2.6628
  153SAPE  C22017031   4.743   7.273   8.925  0.1558  0.2692  0.6696
  153SAPE  H20R17032   4.696   7.369   8.894 -3.3524 -1.7474 -0.9145
  153SAPE  H20S17033   4.749   7.213   8.832  0.9719  1.7038 -0.2394
  153SAPE  H20T17034   4.848   7.290   8.958  0.3503 -0.5757  0.5192
  153SAPE   C3317035   5.083   6.400  10.087 -0.8729  0.9261 -0.5612
  153SAPE   H3X17036   5.043   6.493  10.041 -0.2943  0.3934 -2.2148
  153SAPE   H3Y17037   5.021   6.344  10.160  0.4016  2.2200  1.6023
  153SAPE   C3417038   5.101   6.296   9.968  0.1174  0.3605 -0.0492
  153SAPE   H4X17039   5.000   6.283   9.924  0.2522  2.5099 -1.0787
  153SAPE   H4Y17040   5.131   6.199  10.015  0.3526 -0.5044 -1.8851
  153SAPE   C3517041   5.193   6.349   9.856 -0.3944 -0.2026 -0.9319
  153SAPE   H5X17042   5.297   6.345   9.895 -1.4852 -1.2909  2.1737
  153SAPE   H5Y17043   5.166   6.453   9.828 -0.2462 -0.2399 -1.2177
  153SAPE   C3617044   5.181   6.269   9.723  0.1786  0.4975 -0.7523
  153SAPE   H6X17045   5.076   6.268   9.687  0.0594 -0.1505 -0.3949
  153SAPE   H6Y17046   5.202   6.168   9.764 -2.9885  0.0611  0.0057
  153SAPE   C3717047   5.274   6.317   9.613 -0.9525 -0.0816 -0.2566
  153SAPE   H7X17048   5.375   6.336   9.654 -0.6983  0.9653 -1.3202
  153SAPE   H7Y17049   5.240   6.416   9.576 -0.2433 -0.7800 -2.9841
  153SAPE   C3817050   5.277   6.229   9.485  0.6296 -1.0838 -0.2674
  153SAPE   H8X17051   5.239   6.134   9.530 -1.3935 -0.7383 -1.1660
  153SAPE   H8Y17052   5.375   6.213   9.435  0.7155  1.1328 -0.9185
  153SAPE   C3917053   5.184   6.290   9.380  0.3426  0.1634 -0.2651
  153SAPE   H9X17054   5.206   6.399   9.378  2.7145 -0.2522 -2.2326
  153SAPE   H9Y17055   5.076   6.269   9.396 -0.1490  1.3357 -1.7467
  153SAPE  C31017056   5.238   6.250   9.239 -0.0381 -0.5018  0.1250
  153SAPE  H10X17057   5.226   6.140   9.232 -2.1476 -0.2337 -1.1350
  153SAPE  H10Y17058   5.341   6.290   9.231 -0.3973  0.8318  1.6407
  153SAPE  C31117059   5.159   6.327   9.134 -0.4061 -0.0325  0.0776
  153SAPE  H11X17060   5.205   6.427   9.119 -0.7346  0.2010  0.5986
  153SAPE  H11Y17061   5.054   6.346   9.166 -0.5683 -1.3167  0.3541
  153SAPE  C31217062   5.160   6.244   9.005  0.3221 -0.0759 -1.1681
  153SAPE  H12X17063   5.109   6.153   9.044 -2.5850  2.2027  0.7944
  153SAPE  H12Y17064   5.263   6.229   8.966  0.5381  0.1659 -0.6980
  153SAPE  C31317065   5.069   6.301   8.894 -0.2208  1.0712 -0.9867
  153SAPE  H13X17066   4.965   6.312   8.931  0.6548  0.7976  1.8205
  153SAPE  H13Y17067   5.075   6.226   8.813  0.3165 -2.9078  2.3984
  153SAPE  C31417068   5.114   6.441   8.835  0.3792  0.3924 -0.4958
  153SAPE  H14X17069   5.218   6.422   8.799  0.7971  0.6143  0.5585
  153SAPE  H14Y17070   5.109   6.509   8.922 -2.5286 -0.3530  0.0314
  153SAPE  C31517071   5.018   6.490   8.718 -0.4911 -0.0328 -0.7500
  153SAPE  H15X17072   5.052   6.583   8.669 -1.6329 -0.2159 -1.9427
  153SAPE  H15Y17073   4.914   6.496   8.757 -1.7707 -2.8363 -3.3016
  153SAPE  C31617074   5.006   6.386   8.604  0.3506  0.1884 -0.0346
  153SAPE  H16X17075   4.904   6.397   8.561  0.7941  0.2652 -1.0811
  153SAPE  H16Y17076   4.992   6.282   8.639  1.9130 -0.0592 -0.0666
  153SAPE  C31717077   5.115   6.398   8.495 -0.0960 -0.6688  0.8357
  153SAPE  H17X17078   5.188   6.478   8.521 -1.8500  0.7752  1.4843
  153SAPE  H17Y17079   5.061   6.439   8.407  2.6993  1.4891 -0.0384
  153SAPE  C31817080   5.198   6.276   8.458  0.4747  0.3465  0.2800
  153SAPE  H18X17081   5.127   6.196   8.430 -0.2914  1.1860 -0.2521
  153SAPE  H18Y17082   5.247   6.244   8.553  0.6365  0.1813  0.1411
  153SAPE  H18Z17083   5.273   6.309   8.384  1.1419  1.6485  1.4881
  154SAPE     N17084   1.071   5.765  10.996  0.7934 -0.1129  0.0643
  154SAPE   HN117085   1.065   5.704  11.080 -0.1165  1.1333  0.9372
  154SAPE   HN217086   1.004   5.734  10.923  0.0482  0.3291  0.5477
  154SAPE   HN317087   1.167   5.763  10.957  0.1475 -0.4965 -1.6132
  154SAPE   C1217088   1.045   5.908  11.027  0.0657  0.4137 -0.6571
  154SAPE  H12A17089   1.107   5.941  11.113  0.1784  0.8181 -0.8886
  154SAPE  H12B17090   0.938   5.916  11.053  0.5801 -0.5470  2.1603
  154SAPE   C1117091   1.070   6.003  10.907  0.1385  0.0665 -0.4324
  154SAPE  H11A17092   1.015   5.954  10.823 -0.0218 -2.9799  1.2952
  154SAPE  H11B17093   1.176   6.014  10.875  0.0739  0.6265 -0.4591
  154SAPE     P17094   0.893   6.203  10.871  0.1962  0.4760  0.1356
  154SAPE   O1317095   0.778   6.114  10.893 -0.1474 -0.6164  0.1196
  154SAPE   O1417096   0.879   6.341  10.925 -0.3644  0.2602  0.6519
  154SAPE   O1217097   1.018   6.131  10.937 -0.4955 -0.0363  0.2071
  154SAPE   O1117098   0.919   6.196  10.715  0.0760 -0.4571  0.3610
  154SAPE    C117099   1.044   6.237  10.670  0.0697 -0.0133 -0.5869
  154SAPE    HA17100   1.057   6.347  10.681  2.3541 -0.2571 -0.3584
  154SAPE    HB17101   1.130   6.183  10.715  0.8235  0.2802 -1.6405
  154SAPE    C217102   1.058   6.204  10.511 -0.0304  0.0069  0.2182
  154SAPE    HS17103   1.153   6.251  10.479 -0.6383  0.8993 -0.3084
  154SAPE   O2117104   0.945   6.267  10.455 -0.4097 -0.5320 -0.1165
  154SAPE   C2117105   0.955   6.304  10.330 -0.3596  0.0409  0.1052
  154SAPE   O2217106   1.051   6.299  10.260 -0.2882 -0.1014 -0.1792
  154SAPE   C2217107   0.821   6.374  10.296 -0.6647 -1.2678  0.2905
  154SAPE   H2R17108   0.731   6.321  10.333 -1.2112 -1.0132 -0.6479
  154SAPE   H2S17109   0.821   6.476  10.340  0.6853 -0.1571 -2.1170
  154SAPE    C317110   1.053   6.054  10.481  0.1745 -0.7701 -0.8790
  154SAPE    HX17111   0.954   6.014  10.510 -0.2808  1.6256  1.2038
  154SAPE    HY17112   1.136   6.001  10.531  1.3015  1.6857  0.0266
  154SAPE   O3117113   1.054   6.028  10.342 -0.3346  0.0021 -0.0967
  154SAPE   C3117114   1.171   6.012  10.276 -0.6611 -0.0517 -0.8527
  154SAPE   O3217115   1.281   6.011  10.333 -0.0324 -0.0698  0.1138
  154SAPE   C3217116   1.156   5.982  10.125  0.5215  0.1284 -0.1336
  154SAPE   H2X17117   1.054   6.017  10.101 -1.3858 -1.8603  3.9842
  154SAPE   H2Y17118   1.155   5.872  10.110  2.0219  0.2555 -1.4289
  154SAPE   C2317119   0.822   6.406  10.142  0.2741 -0.2243 -0.2679
  154SAPE   H3R17120   0.846   6.321  10.074  2.0144  0.4364 -0.5400
  154SAPE   H3S17121   0.892   6.490  10.122  1.1052 -0.4257  1.5693
  154SAPE   C2417122   0.685   6.457  10.084 -0.3300  0.1741 -1.0423
  154SAPE   H4R17123   0.607   6.384  10.113 -1.5143  2.0775  0.8721
  154SAPE   H4S17124   0.688   6.442   9.974 -1.8703  2.3759 -1.4550
  154SAPE   C2517125   0.643   6.598  10.125 -0.2800  0.2242  0.0004
  154SAPE   H5R17126   0.600   6.602  10.226 -0.8520 -2.3254 -0.0665
  154SAPE   C2617127   0.658   6.716  10.060  0.7636 -0.0104  0.3293
  154SAPE   H6R17128   0.642   6.812  10.112 -0.2035 -0.8393  1.6249
  154SAPE   C2717129   0.725   6.737   9.921 -0.6487 -0.2492  0.1440
  154SAPE   H7R17130   0.737   6.847   9.925 -1.3848 -0.1190 -0.7263
  154SAPE   H7S17131   0.644   6.717   9.847 -0.4068 -0.4192 -0.0768
  154SAPE   C2817132   0.851   6.664   9.892 -0.1777 -0.0445 -0.2941
  154SAPE   H8R17133   0.931   6.675   9.966  0.3937  0.0258 -0.9121
  154SAPE   C2917134   0.877   6.594   9.781  0.2679  0.0698  0.0544
  154SAPE   H9R17135   0.971   6.542   9.762  1.5405  1.7442  1.4105
  154SAPE  C21017136   0.786   6.585   9.662 -0.4969  0.1189 -0.4472
  154SAPE  H10R17137   0.735   6.683   9.651 -0.9200  0.1741  1.5445
  154SAPE  H10S17138   0.709   6.511   9.693  0.5770 -0.1422  1.7975
  154SAPE  C21117139   0.835   6.545   9.530  0.5397 -0.0268  0.1467
  154SAPE  H11R17140   0.841   6.629   9.460 -2.1719 -0.2937 -0.5076
  154SAPE  C21217141   0.861   6.411   9.492  0.4131 -0.6223 -0.1794
  154SAPE  H12R17142   0.899   6.401   9.389  2.8899 -0.5091  0.6637
  154SAPE  C21317143   0.831   6.300   9.585 -0.4469  0.2980 -0.5883
  154SAPE  H13R17144   0.722   6.284   9.576 -0.3073  0.2130 -2.5430
  154SAPE  H13S17145   0.859   6.324   9.690  1.5364  0.8764 -1.1957
  154SAPE  C21417146   0.898   6.163   9.556  0.0725 -0.3727 -0.2576
  154SAPE  H14R17147   0.951   6.117   9.641 -0.2911  0.9215  0.7016
  154SAPE  C21517148   0.879   6.095   9.444 -0.4897 -0.1789  0.2448
  154SAPE  H15R17149   0.924   5.996   9.430 -2.6569 -1.2568  0.3720
  154SAPE  C21617150   0.799   6.138   9.324  0.3423  0.3534  0.6629
  154SAPE  H16R17151   0.743   6.230   9.352  0.7938  0.3422  1.6216
  154SAPE  H16S17152   0.724   6.061   9.296 -0.6209  0.8292  1.8721
  154SAPE  C21717153   0.902   6.166   9.208  0.4683  0.0733  0.4492
  154SAPE  H17R17154   0.994   6.211   9.252  1.1245  0.1253 -0.9319
  154SAPE  H17S17155   0.856   6.245   9.146  0.3142 -0.7114 -0.4560
  154SAPE  C21817156   0.926   6.037   9.132 -0.4518  0.0796  0.4279
  154SAPE  H18R17157   0.831   5.994   9.092 -0.6543  1.0630 -0.1773
  154SAPE  H18S17158   0.960   5.956   9.200  1.5874 -1.4041 -2.1801
  154SAPE  C21917159   1.036   6.058   9.028 -0.0870  0.1657  0.2686
  154SAPE  H19R17160   1.047   5.954   8.991  0.7403 -0.2289  1.5704
  154SAPE  H19S17161   1.133   6.086   9.074 -0.4886 -0.0338  1.2624
  154SAPE  C22017162   1.009   6.163   8.918 -0.3973  0.2947 -0.0162
  154SAPE  H20R17163   1.074   6.138   8.831  3.5646  0.3902  2.6311
  154SAPE  H20S17164   1.038   6.267   8.944  1.3824  0.0557 -0.8911
  154SAPE  H20T17165   0.902   6.152   8.892  0.3725 -3.6704 -2.4298
  154SAPE   C3317166   1.272   6.046  10.040 -0.5628 -0.0194  0.3296
  154SAPE   H3X17167   1.366   6.017  10.092 -0.0790 -0.5421 -0.8002
  154SAPE   H3Y17168   1.278   6.156  10.057  1.0524 -0.4185  2.8110
  154SAPE   C3417169   1.269   6.023   9.888 -0.5927 -0.1322  0.1633
  154SAPE   H4X17170   1.371   6.042   9.848 -0.1363  0.9496  1.7757
  154SAPE   H4Y17171   1.201   6.098   9.842 -0.3097 -0.8454 -1.5070
  154SAPE   C3517172   1.219   5.885   9.844  0.3486  0.1390 -0.0168
  154SAPE   H5X17173   1.114   5.860   9.819  0.4194  1.2231 -1.5462
  154SAPE   H5Y17174   1.251   5.808   9.918 -0.7268 -0.3456 -0.0422
  154SAPE   C3617175   1.295   5.834   9.716  0.3337 -0.0279  0.2009
  154SAPE   H6X17176   1.312   5.724   9.722 -0.8360 -0.3183 -1.3235
  154SAPE   H6Y17177   1.395   5.882   9.712  1.3564 -2.0698  0.0407
  154SAPE   C3717178   1.225   5.865   9.583  0.8653 -0.9616 -0.0797
  154SAPE   H7X17179   1.157   5.952   9.595 -0.9075 -2.2632 -0.2390
  154SAPE   H7Y17180   1.157   5.780   9.562 -0.9884  0.7190 -1.1342
  154SAPE   C3817181   1.318   5.888   9.460  0.0694 -0.0892 -0.4437
  154SAPE   H8X17182   1.400   5.815   9.480 -0.6031 -1.1268 -1.3508
  154SAPE   H8Y17183   1.374   5.984   9.457  1.5252 -0.5216  4.3875
  154SAPE   C3917184   1.249   5.865   9.323  0.4484 -0.5343 -0.0163
  154SAPE   H9X17185   1.175   5.947   9.309  1.8818  0.8025 -0.0306
  154SAPE   H9Y17186   1.197   5.768   9.341 -2.4345  1.1619  1.5122
  154SAPE  C31017187   1.340   5.842   9.202 -0.6564 -0.0451 -0.5232
  154SAPE  H10X17188   1.425   5.778   9.237 -0.4013 -0.0357 -1.1084
  154SAPE  H10Y17189   1.374   5.940   9.161  1.2392 -0.9989 -1.3698
  154SAPE  C31117190   1.277   5.755   9.089 -0.3460  0.1657 -0.2370
  154SAPE  H11X17191   1.194   5.809   9.039 -1.8340 -0.1307  1.7921
  154SAPE  H11Y17192   1.237   5.661   9.132 -0.5253 -1.4710 -3.7048
  154SAPE  C31217193   1.381   5.712   8.987  0.2553  1.0061  0.5228
  154SAPE  H12X17194   1.455   5.641   9.032 -0.3557 -0.4253 -0.6353
  154SAPE  H12Y17195   1.432   5.795   8.935  1.3836  0.4071  0.6165
  154SAPE  C31317196   1.323   5.627   8.879  0.0568  0.0712 -0.4589
  154SAPE  H13X17197   1.257   5.692   8.818  0.6727  1.9830  0.8099
  154SAPE  H13Y17198   1.258   5.548   8.922  1.8412 -1.2581 -0.0678
  154SAPE  C31417199   1.420   5.556   8.780 -0.5117  0.4953 -0.5704
  154SAPE  H14X17200   1.363   5.478   8.726 -0.8743 -0.4139  1.0589
  154SAPE  H14Y17201   1.492   5.503   8.846 -1.1041  2.3467  1.7116
  154SAPE  C31517202   1.505   5.657   8.693  0.0562  0.6616  0.3955
  154SAPE  H15X17203   1.577   5.714   8.754  0.5082  0.8133 -0.2638
  154SAPE  H15Y17204   1.437   5.733   8.648  1.5567  1.6561 -0.2822
  154SAPE  C31617205   1.586   5.594   8.573 -0.0103 -0.6603 -0.8308
  154SAPE  H16X17206   1.654   5.675   8.538 -0.2940 -0.1041 -0.1196
  154SAPE  H16Y17207   1.516   5.565   8.493  0.5994  1.4186 -2.2029
  154SAPE  C31717208   1.663   5.469   8.615 -0.2851 -0.4290  0.8403
  154SAPE  H17X17209   1.594   5.382   8.621 -1.2643  0.1455 -1.1208
  154SAPE  H17Y17210   1.719   5.492   8.708 -0.9670 -0.0353  1.1570
  154SAPE  C31817211   1.766   5.432   8.502 -0.6522  0.1295  0.0949
  154SAPE  H18X17212   1.821   5.526   8.478 -2.0664  0.4976 -2.0111
  154SAPE  H18Y17213   1.713   5.412   8.407 -0.8973  1.3616 -0.0441
  154SAPE  H18Z17214   1.839   5.357   8.540 -0.7560  0.2258  0.4863
  155SAPE     N17215   5.881   6.711  10.701  0.3473  0.4590  0.2340
  155SAPE   HN117216   5.828   6.717  10.790  0.5301  1.8896  0.2717
  155SAPE   HN217217   5.936   6.798  10.684 -2.1282  1.8197 -1.3116
  155SAPE   HN317218   5.809   6.720  10.627  1.5883  2.2947 -0.8477
  155SAPE   C1217219   5.966   6.583  10.692  0.0764  0.3169 -0.0311
  155SAPE  H12A17220   6.031   6.590  10.602 -0.4315 -2.1711 -0.6850
  155SAPE  H12B17221   5.890   6.502  10.682 -1.7543  1.9254  0.2257
  155SAPE   C1117222   6.048   6.563  10.820 -0.0844 -0.8356 -0.3962
  155SAPE  H11A17223   6.073   6.455  10.817  0.9570 -0.5827 -1.3644
  155SAPE  H11B17224   5.985   6.570  10.911 -0.1792 -0.9628 -0.4515
  155SAPE     P17225   6.165   6.801  10.877  0.9471  0.0051 -0.1699
  155SAPE   O1317226   6.075   6.804  10.997  0.0988 -0.3834 -0.0788
  155SAPE   O1417227   6.300   6.846  10.893 -0.1594 -0.6794  0.0507
  155SAPE   O1217228   6.170   6.646  10.831 -0.2368  0.2437 -0.3796
  155SAPE   O1117229   6.094   6.872  10.755 -0.0898 -0.1927  0.3128
  155SAPE    C117230   6.178   6.882  10.642  0.2978 -0.1907 -0.3429
  155SAPE    HA17231   6.268   6.943  10.665 -1.1416  1.5918  0.8960
  155SAPE    HB17232   6.210   6.785  10.598  0.7993  0.0710 -0.5587
  155SAPE    C217233   6.109   6.970  10.531  0.6401  0.1646 -0.2835
  155SAPE    HS17234   6.128   7.078  10.553 -0.0296  0.3914 -0.7958
  155SAPE   O2117235   5.971   6.936  10.531 -0.0042 -0.9832  0.4525
  155SAPE   C2117236   5.882   7.022  10.474  0.2079  0.0463  0.2601
  155SAPE   O2217237   5.905   7.134  10.436 -0.1596  0.2487  0.3926
  155SAPE   C2217238   5.746   6.959  10.446  0.5146  0.2731 -0.6955
  155SAPE   H2R17239   5.750   6.848  10.451 -0.5071  0.2545  0.2236
  155SAPE   H2S17240   5.678   6.999  10.525 -1.0746 -1.5427 -1.0633
  155SAPE    C317241   6.170   6.943  10.385 -0.3354  0.0953 -0.3749
  155SAPE    HX17242   6.137   6.845  10.344 -1.3120  0.5323 -0.6416
  155SAPE    HY17243   6.281   6.936  10.387 -0.3427  0.0404  0.2877
  155SAPE   O3117244   6.122   7.041  10.294 -0.3883 -0.3697 -0.3127
  155SAPE   C3117245   6.186   7.159  10.288  0.7496  1.0060 -0.9148
  155SAPE   O3217246   6.291   7.177  10.351  0.1425 -0.2574 -0.3612
  155SAPE   C3217247   6.104   7.254  10.209  0.0614 -0.7521 -0.5862
  155SAPE   H2X17248   6.093   7.350  10.265  0.7283  0.2665 -2.1102
  155SAPE   H2Y17249   6.006   7.216  10.173 -1.4464  1.6991  0.6582
  155SAPE   C2317250   5.689   6.982  10.304 -0.1069  0.4108 -0.1603
  155SAPE   H3R17251   5.694   7.090  10.279  0.9748  0.0166 -1.8075
  155SAPE   H3S17252   5.582   6.955  10.316 -0.4187  1.5773 -0.2464
  155SAPE   C2417253   5.736   6.877  10.196 -0.3781 -0.7407 -0.8792
  155SAPE   H4R17254   5.695   6.913  10.100  3.2581  1.8902 -1.6436
  155SAPE   H4S17255   5.679   6.784  10.219  0.6619 -0.8873  1.4103
  155SAPE   C2517256   5.879   6.841  10.182 -0.5798 -0.2712  0.7329
  155SAPE   H5R17257   5.931   6.794  10.267  0.7980 -2.4078 -1.1592
  155SAPE   C2617258   5.964   6.857  10.082 -0.6610 -0.0862 -0.0547
  155SAPE   H6R17259   6.069   6.826  10.096 -1.0226 -0.0325  3.6544
  155SAPE   C2717260   5.933   6.916   9.947  0.2548  0.2593  0.4393
  155SAPE   H7R17261   5.930   7.027   9.953 -3.6935  0.4707 -1.9201
  155SAPE   H7S17262   5.825   6.894   9.931 -0.2923  2.4312  0.7667
  155SAPE   C2817263   6.017   6.864   9.832  0.6754 -0.3226 -0.1055
  155SAPE   H8R17264   6.103   6.796   9.847  1.1362 -0.2800 -2.1861
  155SAPE   C2917265   5.983   6.893   9.702  0.1074 -0.8226 -0.4380
  155SAPE   H9R17266   6.046   6.839   9.630  0.9722  0.3545 -0.5936
  155SAPE  C21017267   5.878   6.996   9.654 -0.0175 -0.2481 -0.1172
  155SAPE  H10R17268   5.942   7.070   9.602 -0.8110 -1.0797 -2.4191
  155SAPE  H10S17269   5.835   7.047   9.742 -1.0739  0.0062 -0.7670
  155SAPE  C21117270   5.764   6.953   9.567  0.0281 -0.4464 -0.5123
  155SAPE  H11R17271   5.671   6.930   9.621  0.6331  1.7551  1.6081
  155SAPE  C21217272   5.776   6.942   9.435  0.2734 -0.0655 -0.4678
  155SAPE  H12R17273   5.691   6.911   9.373 -0.0328  0.4914 -0.3361
  155SAPE  C21317274   5.906   6.986   9.366  1.0095  0.3402 -0.2340
  155SAPE  H13R17275   5.999   6.936   9.399  0.0383 -1.7857 -0.5686
  155SAPE  H13S17276   5.907   7.095   9.390  0.3816  0.2323  0.3405
  155SAPE  C21417277   5.889   6.982   9.219 -0.0091 -0.4129 -0.0313
  155SAPE  H14R17278   5.916   6.884   9.175 -1.2216 -1.8807  2.2980
  155SAPE  C21517279   5.835   7.072   9.133  0.5593 -0.0693 -0.4282
  155SAPE  H15R17280   5.829   7.048   9.026 -0.1651  0.4060 -0.5009
  155SAPE  C21617281   5.777   7.207   9.165  0.0187  0.2034  0.2101
  155SAPE  H16R17282   5.755   7.224   9.273 -0.5132  1.4608 -0.0838
  155SAPE  H16S17283   5.681   7.208   9.110  0.4482 -1.7442 -0.6478
  155SAPE  C21717284   5.884   7.304   9.107  0.2720 -0.1627 -0.9732
  155SAPE  H17R17285   5.978   7.297   9.164 -0.3251 -0.1826  0.0367
  155SAPE  H17S17286   5.854   7.411   9.119  0.5355 -0.2228  0.3327
  155SAPE  C21817287   5.919   7.306   8.952  0.2353 -0.5649  0.3363
  155SAPE  H18R17288   5.820   7.328   8.906 -0.0675  2.7927  2.2610
  155SAPE  H18S17289   5.958   7.207   8.922  1.2917 -0.1503  0.3068
  155SAPE  C21917290   6.014   7.428   8.916 -0.2089 -1.3997 -0.5546
  155SAPE  H19R17291   6.104   7.429   8.981 -1.0625  0.1615  0.6741
  155SAPE  H19S17292   5.959   7.522   8.939  0.4941 -1.0899 -0.1198
  155SAPE  C22017293   6.059   7.431   8.775 -0.2832  0.0408 -0.2672
  155SAPE  H20R17294   6.139   7.358   8.750  0.6789  1.2244 -0.7121
  155SAPE  H20S17295   6.086   7.533   8.743 -2.6197  1.1442  0.9678
  155SAPE  H20T17296   5.971   7.400   8.714 -0.9414  1.0062  0.1628
  155SAPE   C3317297   6.181   7.311  10.091 -0.1349  0.0580  0.9456
  155SAPE   H3X17298   6.272   7.366  10.124 -0.4496  0.3013  1.4181
  155SAPE   H3Y17299   6.117   7.397  10.064  1.2378 -0.0848 -3.5426
  155SAPE   C3417300   6.205   7.216   9.974 -0.0250 -0.3469  0.7367
  155SAPE   H4X17301   6.111   7.162   9.949 -1.1407  1.9626 -0.3991
  155SAPE   H4Y17302   6.284   7.143   9.997  0.0536 -1.1176 -1.6759
  155SAPE   C3517303   6.252   7.289   9.841  0.8599 -0.1180  0.3012
  155SAPE   H5X17304   6.180   7.370   9.817  0.1630 -0.5122  1.0175
  155SAPE   H5Y17305   6.246   7.219   9.755 -2.0812 -0.8375  0.9735
  155SAPE   C3617306   6.399   7.342   9.840  0.5699  0.1149 -0.1957
  155SAPE   H6X17307   6.483   7.270   9.848  2.7506  2.3682 -1.3992
  155SAPE   H6Y17308   6.409   7.391   9.939 -0.1166 -1.9331  0.9345
  155SAPE   C3717309   6.431   7.446   9.729 -0.8025  0.5105  0.0070
  155SAPE   H7X17310   6.516   7.516   9.744  1.2036 -1.7598 -0.1226
  155SAPE   H7Y17311   6.335   7.501   9.720 -1.4702 -0.1413  2.4785
  155SAPE   C3817312   6.457   7.388   9.586 -0.0100  0.6730 -0.4170
  155SAPE   H8X17313   6.372   7.320   9.563 -0.1439  0.8213 -0.3633
  155SAPE   H8Y17314   6.552   7.331   9.582  0.6799  1.5549  1.7759
  155SAPE   C3917315   6.455   7.501   9.485  0.0188  0.5568 -0.4505
  155SAPE   H9X17316   6.549   7.560   9.478 -0.7400  1.7388 -0.9163
  155SAPE   H9Y17317   6.367   7.567   9.499  0.3706  1.1354 -0.9377
  155SAPE  C31017318   6.436   7.429   9.349 -0.3738  1.0464 -0.1250
  155SAPE  H10X17319   6.330   7.396   9.339 -0.2785  1.1086 -1.6387
  155SAPE  H10Y17320   6.495   7.336   9.340 -1.8434 -0.0492  1.0767
  155SAPE  C31117321   6.474   7.510   9.222  0.9949 -0.0304  0.1078
  155SAPE  H11X17322   6.579   7.544   9.233  0.9868  0.5492 -1.3162
  155SAPE  H11Y17323   6.406   7.597   9.211  0.5466 -0.3789  0.1094
  155SAPE  C31217324   6.462   7.419   9.102  0.3075  0.3751 -0.1446
  155SAPE  H12X17325   6.352   7.402   9.089  0.5862 -0.3262 -1.9748
  155SAPE  H12Y17326   6.518   7.323   9.097  0.3174  0.4156 -1.0949
  155SAPE  C31317327   6.501   7.491   8.982 -0.1291 -0.0648 -0.1888
  155SAPE  H13X17328   6.611   7.499   8.975 -0.1719  2.4311  0.7273
  155SAPE  H13Y17329   6.462   7.596   8.980 -1.5914 -0.5714 -2.2664
  155SAPE  C31417330   6.455   7.434   8.848 -0.3255 -0.3909 -0.7087
  155SAPE  H14X17331   6.349   7.458   8.825 -1.2944 -3.0140  0.5838
  155SAPE  H14Y17332   6.469   7.324   8.857  0.2076 -0.2470  0.3903
  155SAPE  C31517333   6.535   7.475   8.723  0.7103  0.8495  0.4209
  155SAPE  H15X17334   6.511   7.423   8.629  2.9474 -0.7607  0.6637
  155SAPE  H15Y17335   6.643   7.453   8.737  0.9242  1.7819  0.2977
  155SAPE  C31617336   6.532   7.622   8.704 -0.5394  0.3317  0.6488
  155SAPE  H16X17337   6.583   7.644   8.607 -0.6344  1.5719  0.8592
  155SAPE  H16Y17338   6.593   7.679   8.778 -1.2624  0.8064  0.8890
  155SAPE  C31717339   6.394   7.694   8.710 -0.5079  0.5824  0.2530
  155SAPE  H17X17340   6.344   7.688   8.809  1.5374  0.0605  1.3199
  155SAPE  H17Y17341   6.328   7.642   8.638  1.3102 -0.0667 -1.0204
  155SAPE  C31817342   6.394   7.845   8.681 -1.0165  0.1114  0.5136
  155SAPE  H18X17343   6.448   7.905   8.758 -1.5426  0.1918  0.8256
  155SAPE  H18Y17344   6.287   7.871   8.665 -1.4882 -1.3763  1.1006
  155SAPE  H18Z17345   6.443   7.855   8.582 -0.7110  0.2422  0.6754
  156SAPE     N17346   4.597   5.083  10.754  0.2429 -0.3372 -0.7021
  156SAPE   HN117347   4.695   5.111  10.734 -0.2993  1.5788 -0.9359
  156SAPE   HN217348   4.541   5.157  10.707  0.6324 -0.3213 -1.1465
  156SAPE   HN317349   4.596   5.108  10.855 -0.5808  0.0315 -0.7954
  156SAPE   C1217350   4.573   4.940  10.723 -0.7309 -0.2263 -0.6241
  156SAPE  H12A17351   4.476   4.916  10.771 -0.5018  0.1080  0.0212
  156SAPE  H12B17352   4.651   4.879  10.773 -1.2638  0.3424  0.9729
  156SAPE   C1117353   4.579   4.910  10.575  0.5013  0.5771  0.1302
  156SAPE  H11A17354   4.491   4.959  10.530  0.9600  0.5054 -0.8609
  156SAPE  H11B17355   4.559   4.802  10.557  0.3697  0.8312 -1.2993
  156SAPE     P17356   4.811   4.856  10.456  0.6376  0.4647 -0.1059
  156SAPE   O1317357   4.947   4.921  10.468  0.2805 -0.6355  0.3674
  156SAPE   O1417358   4.784   4.724  10.522  0.2546 -1.0262 -0.5388
  156SAPE   O1217359   4.697   4.958  10.511  0.6796 -0.3882  0.2028
  156SAPE   O1117360   4.780   4.840  10.305 -0.4445  0.0261 -0.3493
  156SAPE    C117361   4.753   4.955  10.228  0.6853 -0.3296 -0.1672
  156SAPE    HA17362   4.817   5.040  10.259 -1.7140  1.2860  0.6668
  156SAPE    HB17363   4.768   4.938  10.119  2.4189  2.1129 -0.3844
  156SAPE    C217364   4.608   5.013  10.232  0.5218  0.9603  0.1097
  156SAPE    HS17365   4.606   5.079  10.321 -3.1424 -2.3922  2.9134
  156SAPE   O2117366   4.510   4.906  10.259 -0.1683 -0.2574  0.1480
  156SAPE   C2117367   4.387   4.952  10.268  1.1119  0.6434  0.0873
  156SAPE   O2217368   4.357   5.067  10.277  0.1329 -0.8030 -0.2398
  156SAPE   C2217369   4.294   4.830  10.266 -0.0370  0.2946 -0.4360
  156SAPE   H2R17370   4.350   4.749  10.215  0.4234  1.1389 -1.2957
  156SAPE   H2S17371   4.260   4.804  10.369  0.8022  0.3017 -0.1467
  156SAPE    C317372   4.574   5.099  10.105  0.3272  0.1580  0.2152
  156SAPE    HX17373   4.471   5.140  10.095 -0.2932 -1.3223  0.2655
  156SAPE    HY17374   4.593   5.031  10.019 -0.3912 -0.7926  0.7857
  156SAPE   O3117375   4.672   5.197  10.075  0.3047  0.1149 -0.0111
  156SAPE   C3117376   4.655   5.298  10.157 -0.1389  0.0347  0.3907
  156SAPE   O3217377   4.552   5.319  10.222 -0.0317 -0.0849  0.3423
  156SAPE   C3217378   4.782   5.375  10.169 -0.8230  0.2655  0.1027
  156SAPE   H2X17379   4.836   5.342  10.260  0.6494  1.6523 -0.2224
  156SAPE   H2Y17380   4.754   5.482  10.181 -2.9319  0.4854 -4.7235
  156SAPE   C2317381   4.165   4.857  10.178  0.0107  0.1143  0.7647
  156SAPE   H3R17382   4.130   4.959  10.203  0.1861 -0.0940  1.9337
  156SAPE   H3S17383   4.095   4.784  10.224  0.4181  0.2661  1.6573
  156SAPE   C2417384   4.185   4.810  10.025  0.8527 -0.2463 -0.3644
  156SAPE   H4R17385   4.083   4.818   9.982  1.0325 -1.0423 -0.9693
  156SAPE   H4S17386   4.215   4.703  10.017  1.5016 -0.3036  1.9822
  156SAPE   C2517387   4.278   4.896   9.942 -0.0130 -0.2636  0.1654
  156SAPE   H5R17388   4.266   5.005   9.955  2.7219  0.9240 -4.9343
  156SAPE   C2617389   4.374   4.860   9.858 -0.3646  0.0452  0.0414
  156SAPE   H6R17390   4.436   4.938   9.811 -2.2261  0.3223 -2.1150
  156SAPE   C2717391   4.412   4.718   9.830  0.6165 -0.0831  0.0383
  156SAPE   H7R17392   4.369   4.645   9.901  0.1216  0.4886  0.3326
  156SAPE   H7S17393   4.523   4.708   9.831  0.5674 -0.8528  2.4465
  156SAPE   C2817394   4.358   4.672   9.698  0.5775 -0.2489 -0.3081
  156SAPE   H8R17395   4.327   4.752   9.629  1.6997  0.8041  0.3860
  156SAPE   C2917396   4.370   4.548   9.653 -0.5002 -0.3036 -0.1402
  156SAPE   H9R17397   4.315   4.519   9.563 -1.7710  0.7440  0.2746
  156SAPE  C21017398   4.436   4.428   9.728 -0.2397  0.0527  0.5172
  156SAPE  H10R17399   4.431   4.332   9.673  0.8014 -0.6947  1.6734
  156SAPE  H10S17400   4.387   4.395   9.823  0.4150 -0.6431  0.6148
  156SAPE  C21117401   4.581   4.459   9.761  0.2597  0.5109  0.2783
  156SAPE  H11R17402   4.603   4.503   9.860  0.1678  0.6330  0.2440
  156SAPE  C21217403   4.688   4.448   9.676  0.2903 -0.1637 -0.4792
  156SAPE  H12R17404   4.774   4.506   9.713  0.5878 -1.6297  1.3010
  156SAPE  C21317405   4.669   4.399   9.535 -0.8154 -0.1649  0.3743
  156SAPE  H13R17406   4.580   4.336   9.512 -0.7803  0.5052 -1.8950
  156SAPE  H13S17407   4.755   4.331   9.515 -1.9040 -1.9342  1.4505
  156SAPE  C21417408   4.680   4.498   9.428 -0.5656 -0.4864  0.2242
  156SAPE  H14R17409   4.664   4.601   9.463 -0.4333 -0.2606 -0.3733
  156SAPE  C21517410   4.716   4.477   9.296  0.4498  0.4925 -0.2090
  156SAPE  H15R17411   4.720   4.569   9.236  1.6318  0.4892 -0.1680
  156SAPE  C21617412   4.749   4.345   9.236  0.0691  0.3095  0.1783
  156SAPE  H16R17413   4.695   4.269   9.297  2.7075  0.2962  2.6940
  156SAPE  H16S17414   4.858   4.327   9.232  0.2212  1.3294 -2.9467
  156SAPE  C21717415   4.713   4.333   9.082 -0.2165 -0.4192 -0.4813
  156SAPE  H17R17416   4.609   4.372   9.073 -0.0482  0.3932  0.8128
  156SAPE  H17S17417   4.714   4.225   9.058 -0.1449 -0.7514  0.9306
  156SAPE  C21817418   4.812   4.406   8.986 -0.6113  0.3671  0.5125
  156SAPE  H18R17419   4.815   4.514   9.010  1.9140  0.8896 -1.6850
  156SAPE  H18S17420   4.768   4.393   8.885 -0.7200  0.7884  0.5049
  156SAPE  C21917421   4.963   4.356   8.979  0.5578  0.0992 -0.0246
  156SAPE  H19R17422   5.012   4.376   9.077  0.6455 -0.6874  0.1024
  156SAPE  H19S17423   5.019   4.411   8.901 -1.3840  0.9036 -0.9030
  156SAPE  C22017424   4.976   4.212   8.942  0.1422  0.8270  0.1222
  156SAPE  H20R17425   4.895   4.154   8.992  0.2375  0.4215 -0.1923
  156SAPE  H20S17426   5.074   4.172   8.977  0.6381  0.0768 -1.9762
  156SAPE  H20T17427   4.965   4.194   8.833 -2.8949 -0.8466  0.5795
  156SAPE   C3317428   4.864   5.375  10.034 -0.2271 -0.2088  0.1769
  156SAPE   H3X17429   4.886   5.270  10.008  2.8481 -0.0246  1.5719
  156SAPE   H3Y17430   4.959   5.425  10.062 -0.0206 -0.1703 -0.5733
  156SAPE   C3417431   4.804   5.460   9.925 -0.5587 -0.1381  0.3471
  156SAPE   H4X17432   4.811   5.568   9.947 -0.0753 -0.0765 -0.0934
  156SAPE   H4Y17433   4.698   5.427   9.922 -0.8306  0.7895 -1.2486
  156SAPE   C3517434   4.865   5.433   9.788 -0.1344 -0.3906  0.7989
  156SAPE   H5X17435   4.853   5.326   9.762 -0.0482 -0.0687 -0.6611
  156SAPE   H5Y17436   4.973   5.452   9.769 -0.4115  0.1453 -0.2850
  156SAPE   C3617437   4.780   5.516   9.681  0.1349  0.0698  0.0561
  156SAPE   H6X17438   4.790   5.622   9.713 -3.0267  0.9793 -1.5312
  156SAPE   H6Y17439   4.675   5.481   9.687  0.3166 -0.4379  0.3889
  156SAPE   C3717440   4.827   5.510   9.540 -0.2827  0.3261  0.2045
  156SAPE   H7X17441   4.859   5.405   9.522  0.3771  0.5515  0.0225
  156SAPE   H7Y17442   4.918   5.570   9.516  0.1744 -0.7780 -0.9558
  156SAPE   C3817443   4.722   5.567   9.441 -0.4525 -0.0427 -0.4150
  156SAPE   H8X17444   4.710   5.672   9.475  1.1183  0.0464 -0.0385
  156SAPE   H8Y17445   4.628   5.514   9.468  0.0102 -0.5680  0.2090
  156SAPE   C3917446   4.758   5.550   9.291 -0.8237 -0.0444 -0.6656
  156SAPE   H9X17447   4.762   5.440   9.275 -0.0251 -0.6228  2.6836
  156SAPE   H9Y17448   4.854   5.599   9.266 -0.4338 -1.2605 -1.6180
  156SAPE  C31017449   4.646   5.602   9.205  0.0158  0.2326  0.2164
  156SAPE  H10X17450   4.652   5.712   9.203  1.1149  0.1726 -0.2148
  156SAPE  H10Y17451   4.550   5.574   9.254  0.7364  0.7487  1.9856
  156SAPE  C31117452   4.642   5.556   9.055 -0.9598 -0.2571  0.4291
  156SAPE  H11X17453   4.566   5.616   9.000 -2.2052 -0.1862  2.1326
  156SAPE  H11Y17454   4.620   5.447   9.058 -1.4331 -0.1429  1.4402
  156SAPE  C31217455   4.775   5.550   8.976 -0.1064  0.1856 -0.1973
  156SAPE  H12X17456   4.843   5.496   9.046 -0.4305  0.5386  0.4040
  156SAPE  H12Y17457   4.825   5.649   8.973  1.1628 -0.4012  0.3378
  156SAPE  C31317458   4.767   5.479   8.839 -0.9134 -0.3528  0.1727
  156SAPE  H13X17459   4.692   5.523   8.769 -2.3781 -0.0538  1.8728
  156SAPE  H13Y17460   4.726   5.376   8.848 -0.5867 -0.7622 -2.1767
  156SAPE  C31417461   4.909   5.458   8.778 -0.3948  1.0508  0.0270
  156SAPE  H14X17462   4.977   5.412   8.852 -0.6631 -0.6869 -0.7477
  156SAPE  H14Y17463   4.956   5.556   8.755 -0.5381  1.2574  0.5964
  156SAPE  C31517464   4.900   5.360   8.659 -0.1096  0.7628  0.8519
  156SAPE  H15X17465   4.856   5.259   8.677 -1.2955  0.4278 -2.9566
  156SAPE  H15Y17466   5.001   5.332   8.624 -0.4187 -0.4759  0.8702
  156SAPE  C31617467   4.829   5.418   8.535  0.2858 -0.0621  0.6413
  156SAPE  H16X17468   4.873   5.515   8.504 -0.6513 -0.4762 -2.2580
  156SAPE  H16Y17469   4.724   5.440   8.567  0.8308  0.8491  1.8918
  156SAPE  C31717470   4.810   5.319   8.418 -0.0186  0.0514  0.1905
  156SAPE  H17X17471   4.907   5.281   8.381  0.2339  2.1220 -1.5158
  156SAPE  H17Y17472   4.752   5.372   8.339 -3.4918 -0.7282  2.0085
  156SAPE  C31817473   4.711   5.204   8.462  0.7869 -0.2014 -0.3515
  156SAPE  H18X17474   4.743   5.141   8.548 -2.0462  1.5018  2.1371
  156SAPE  H18Y17475   4.695   5.144   8.370  0.2276  0.4573 -0.6884
  156SAPE  H18Z17476   4.616   5.240   8.506  0.1705 -1.1737 -0.8619
  157SAPE     N17477   4.801   3.320  10.748 -0.3295  0.3073  0.3877
  157SAPE   HN117478   4.844   3.226  10.734  1.3979  0.9258  1.1502
  157SAPE   HN217479   4.869   3.389  10.788  0.5743 -0.0468 -0.4828
  157SAPE   HN317480   4.730   3.303  10.822 -1.3079 -0.6516 -0.7176
  157SAPE   C1217481   4.738   3.367  10.619  0.4511 -0.3706 -0.1059
  157SAPE  H12A17482   4.815   3.358  10.540 -0.4385  2.0577 -1.3624
  157SAPE  H12B17483   4.718   3.475  10.633  1.1815 -0.0038 -1.6376
  157SAPE   C1117484   4.601   3.296  10.593 -0.2368  0.4708  0.3128
  157SAPE  H11A17485   4.544   3.345  10.511  1.3542 -0.8831 -1.7127
  157SAPE  H11B17486   4.544   3.305  10.687 -1.6889 -0.2368 -0.4638
  157SAPE     P17487   4.511   3.059  10.575 -0.0332  0.0501  0.2800
  157SAPE   O1317488   4.535   2.999  10.704  0.0162  0.2804 -0.2767
  157SAPE   O1417489   4.379   3.120  10.558 -0.3810 -0.0236  0.7011
  157SAPE   O1217490   4.629   3.161  10.554 -0.7518 -0.1251  0.1640
  157SAPE   O1117491   4.534   2.961  10.451 -0.4396  0.4758  0.8337
  157SAPE    C117492   4.646   2.956  10.367  0.3557  0.2131 -0.5814
  157SAPE    HA17493   4.672   3.062  10.347 -2.8840  0.9657 -1.3258
  157SAPE    HB17494   4.725   2.893  10.415  1.7833  1.4260 -1.2762
  157SAPE    C217495   4.624   2.890  10.235  0.2528  0.2926 -0.2125
  157SAPE    HS17496   4.715   2.871  10.175 -0.6612 -0.2883 -1.4621
  157SAPE   O2117497   4.535   2.967  10.153 -0.8845  0.0323 -0.1424
  157SAPE   C2117498   4.530   2.942  10.024 -0.0627  0.2417 -1.0802
  157SAPE   O2217499   4.616   2.879   9.962 -0.5623  0.1578 -0.9529
  157SAPE   C2217500   4.403   3.022   9.973  0.3556  0.5749 -0.4468
  157SAPE   H2R17501   4.332   2.936   9.970 -0.7999  1.4753  0.3241
  157SAPE   H2S17502   4.387   3.103  10.047 -0.0973 -1.3323  1.6286
  157SAPE    C317503   4.563   2.751  10.263 -0.2902 -0.0586  0.3336
  157SAPE    HX17504   4.461   2.763  10.307 -0.1222  1.4491  0.3687
  157SAPE    HY17505   4.614   2.694  10.343 -0.7167 -0.0620  0.6053
  157SAPE   O3117506   4.552   2.676  10.136  0.3195  0.1819 -0.0862
  157SAPE   C3117507   4.661   2.605  10.116 -0.2422 -0.0215 -0.5485
  157SAPE   O3217508   4.765   2.609  10.179 -0.4838 -0.4032 -0.6079
  157SAPE   C3217509   4.633   2.512  10.003  1.0545  0.6173 -0.4418
  157SAPE   H2X17510   4.597   2.573   9.918  2.1206 -0.3214 -1.6064
  157SAPE   H2Y17511   4.546   2.448  10.030  0.6381  0.4594 -2.0392
  157SAPE   C2317512   4.425   3.067   9.832 -0.3926  0.3191 -0.3102
  157SAPE   H3R17513   4.329   3.109   9.795 -1.0145 -0.0740  0.8046
  157SAPE   H3S17514   4.446   2.979   9.768  0.2755  0.4194 -0.2312
  157SAPE   C2417515   4.538   3.170   9.822 -0.3588 -0.0441 -0.6246
  157SAPE   H4R17516   4.638   3.137   9.859 -0.5042  0.9356  0.6837
  157SAPE   H4S17517   4.519   3.263   9.880  1.8376  0.8418 -1.2046
  157SAPE   C2517518   4.552   3.209   9.681  0.3633  0.4294  0.1667
  157SAPE   H5R17519   4.469   3.266   9.636 -0.5192 -0.6508  0.3937
  157SAPE   C2617520   4.652   3.167   9.592  0.9383  0.0561  0.3500
  157SAPE   H6R17521   4.662   3.216   9.494 -0.4819  0.7415  0.5254
  157SAPE   C2717522   4.763   3.070   9.623 -0.7063 -1.0550  0.2048
  157SAPE   H7R17523   4.773   3.065   9.734  0.3903 -0.8441  0.1293
  157SAPE   H7S17524   4.859   3.115   9.589 -2.4459  1.4932 -1.7062
  157SAPE   C2817525   4.749   2.929   9.569  0.5531 -0.9257  0.0149
  157SAPE   H8R17526   4.680   2.866   9.627 -0.0146  1.0719  1.6266
  157SAPE   C2917527   4.798   2.871   9.453  0.2913 -0.2190 -0.8556
  157SAPE   H9R17528   4.753   2.775   9.425  1.8095 -2.1235  2.6664
  157SAPE  C21017529   4.888   2.948   9.364 -0.0945  0.5248 -0.3553
  157SAPE  H10R17530   4.981   2.975   9.418 -1.5778  0.6841  2.2531
  157SAPE  H10S17531   4.840   3.045   9.340 -2.2508 -0.1285  1.0385
  157SAPE  C21117532   4.922   2.857   9.240 -0.3584 -0.0071 -0.5683
  157SAPE  H11R17533   4.986   2.769   9.257 -2.3644 -1.2421  0.9800
  157SAPE  C21217534   4.897   2.878   9.108 -0.1550 -0.0292 -0.4547
  157SAPE  H12R17535   4.927   2.807   9.029  0.3729 -1.9028  1.3347
  157SAPE  C21317536   4.820   2.998   9.049  0.3196 -0.2297  0.3300
  157SAPE  H13R17537   4.890   3.061   8.989  0.2641 -0.2256  0.2681
  157SAPE  H13S17538   4.776   3.067   9.124 -0.7703 -0.9161  0.3392
  157SAPE  C21417539   4.717   2.928   8.964  0.7284 -0.2271  0.0736
  157SAPE  H14R17540   4.621   2.917   9.017  0.7826 -4.0370 -0.3684
  157SAPE  C21517541   4.715   2.897   8.836 -0.3584  0.1564  0.0414
  157SAPE  H15R17542   4.627   2.846   8.794  0.4821 -1.3377  0.0171
  157SAPE  C21617543   4.828   2.894   8.739 -0.0234  0.2387  0.8117
  157SAPE  H16R17544   4.849   2.786   8.720  1.1974  1.0150 -2.9922
  157SAPE  H16S17545   4.916   2.945   8.785  0.3450  1.2702 -0.9463
  157SAPE  C21717546   4.792   2.942   8.598 -0.2021 -0.3133 -0.3339
  157SAPE  H17R17547   4.718   2.868   8.560 -1.3466 -0.1449  1.4522
  157SAPE  H17S17548   4.888   2.938   8.543 -0.1301  1.8063 -0.4220
  157SAPE  C21817549   4.731   3.085   8.576 -0.5946  0.6359 -0.1106
  157SAPE  H18R17550   4.731   3.106   8.467 -1.7885 -0.9442 -0.4494
  157SAPE  H18S17551   4.799   3.161   8.621 -1.5936  0.2760  2.1687
  157SAPE  C21917552   4.585   3.114   8.628  0.5626  0.4572  0.5331
  157SAPE  H19R17553   4.593   3.122   8.738  0.8987 -1.8347  0.7429
  157SAPE  H19S17554   4.516   3.029   8.609  1.1007 -0.2378  1.5548
  157SAPE  C22017555   4.510   3.240   8.581  0.3193  0.5526 -0.5717
  157SAPE  H20R17556   4.405   3.252   8.615  0.6530 -0.0405  0.7262
  157SAPE  H20S17557   4.516   3.240   8.470 -1.2445  0.3264 -0.6727
  157SAPE  H20T17558   4.570   3.322   8.625  0.0287 -0.0119  0.9403
  157SAPE   C3317559   4.747   2.425   9.954 -0.1339 -0.0407  0.2053
  157SAPE   H3X17560   4.705   2.351   9.883 -2.0564 -1.5720  2.7530
  157SAPE   H3Y17561   4.782   2.368  10.043  0.5048 -2.0861 -1.2703
  157SAPE   C3417562   4.873   2.492   9.896 -0.3986 -0.5029  0.3702
  157SAPE   H4X17563   4.947   2.414   9.866  1.3145  0.6008  1.5783
  157SAPE   H4Y17564   4.930   2.552   9.969 -0.1036  0.5277 -0.6815
  157SAPE   C3517565   4.846   2.576   9.770  0.2303  0.1483  0.3513
  157SAPE   H5X17566   4.788   2.666   9.797 -2.8434 -0.8572 -2.1673
  157SAPE   H5Y17567   4.784   2.514   9.701  0.6839  0.2450 -0.1562
  157SAPE   C3617568   4.965   2.623   9.690  0.0939 -0.0252  0.1325
  157SAPE   H6X17569   5.057   2.587   9.740 -0.4513 -0.4069  0.8806
  157SAPE   H6Y17570   4.959   2.734   9.693 -0.4081 -0.0328 -0.3581
  157SAPE   C3717571   4.967   2.569   9.548 -0.0387 -0.0454  0.0098
  157SAPE   H7X17572   4.868   2.587   9.500 -1.8405 -0.0810  3.3818
  157SAPE   H7Y17573   4.960   2.459   9.561  3.0170 -0.2128  1.1051
  157SAPE   C3817574   5.079   2.607   9.456 -0.2876 -0.3664 -0.3374
  157SAPE   H8X17575   5.169   2.566   9.507  1.6560  1.4914 -2.1136
  157SAPE   H8Y17576   5.090   2.716   9.438  0.0203 -0.5487 -1.3103
  157SAPE   C3917577   5.068   2.526   9.323  0.2443  0.2690 -0.2847
  157SAPE   H9X17578   4.976   2.564   9.274 -1.0429 -0.4064  1.4852
  157SAPE   H9Y17579   5.047   2.423   9.360  1.1139  1.0991  2.8147
  157SAPE  C31017580   5.203   2.532   9.249 -0.6374  0.4749  0.0593
  157SAPE  H10X17581   5.285   2.502   9.318 -0.1739  1.9772  0.2033
  157SAPE  H10Y17582   5.201   2.643   9.236 -0.9787  0.9277  3.0675
  157SAPE  C31117583   5.195   2.458   9.113  0.2616 -0.3227  0.6206
  157SAPE  H11X17584   5.170   2.351   9.127 -0.0167 -0.3864 -0.2629
  157SAPE  H11Y17585   5.289   2.473   9.055 -0.5346 -1.8574 -1.2059
  157SAPE  C31217586   5.080   2.515   9.028  0.1834 -0.2588 -0.3742
  157SAPE  H12X17587   5.082   2.625   9.014 -1.9259 -0.4272 -2.7082
  157SAPE  H12Y17588   4.977   2.488   9.060  0.4383  0.1668  0.8432
  157SAPE  C31317589   5.100   2.460   8.881  1.1055  0.0439  0.1685
  157SAPE  H13X17590   5.078   2.351   8.889  0.9068  0.0052 -0.8187
  157SAPE  H13Y17591   5.203   2.478   8.844  1.1555  0.6584  0.5949
  157SAPE  C31417592   4.994   2.517   8.782  0.2059  0.0876 -0.4996
  157SAPE  H14X17593   5.044   2.601   8.730  2.0005 -0.9599 -0.5709
  157SAPE  H14Y17594   4.907   2.546   8.844  0.1514 -1.0541 -0.0233
  157SAPE  C31517595   4.950   2.409   8.674  0.5150 -0.4996 -0.3009
  157SAPE  H15X17596   4.888   2.325   8.711 -0.2320 -0.2156 -0.8672
  157SAPE  H15Y17597   5.043   2.368   8.629 -1.1705 -1.2995 -3.3997
  157SAPE  C31617598   4.871   2.469   8.562 -0.2270  0.0629 -0.0349
  157SAPE  H16X17599   4.873   2.395   8.479  1.2185 -0.8990  0.8059
  157SAPE  H16Y17600   4.916   2.561   8.520 -1.6915  0.7776 -0.1343
  157SAPE  C31717601   4.724   2.513   8.601  0.5555  0.4848 -0.2488
  157SAPE  H17X17602   4.670   2.542   8.509 -0.7138 -0.6979  0.0960
  157SAPE  H17Y17603   4.734   2.607   8.661  0.6018  1.2362 -1.4097
  157SAPE  C31817604   4.627   2.413   8.668 -1.4537 -0.4072 -0.3315
  157SAPE  H18X17605   4.540   2.460   8.718 -0.7894  1.5448 -0.9463
  157SAPE  H18Y17606   4.681   2.344   8.737  0.3550  0.8280 -0.4528
  157SAPE  H18Z17607   4.590   2.340   8.594  1.9320 -2.0103 -0.6275
  158SAPE     N17608   5.336   4.735  10.487  0.3102  0.3254 -0.0940
  158SAPE   HN117609   5.238   4.700  10.481  0.1451  0.1207  2.6459
  158SAPE   HN217610   5.361   4.730  10.588 -1.6846 -0.7184  0.3961
  158SAPE   HN317611   5.353   4.833  10.458  1.8138 -0.2059 -1.1067
  158SAPE   C1217612   5.443   4.648  10.427 -0.4909 -0.3823  0.1421
  158SAPE  H12A17613   5.402   4.594  10.339  0.8695  0.0787 -0.8090
  158SAPE  H12B17614   5.475   4.568  10.496  2.5138 -0.2531 -0.9609
  158SAPE   C1117615   5.566   4.724  10.380  0.8205  0.1976  0.1669
  158SAPE  H11A17616   5.558   4.786  10.287  2.0794  0.0173 -0.0725
  158SAPE  H11B17617   5.639   4.645  10.353  2.6678  2.6388 -2.5498
  158SAPE     P17618   5.699   4.928  10.485  0.5801  0.2395 -0.0820
  158SAPE   O1317619   5.607   5.033  10.434  0.3036 -0.3362 -0.6214
  158SAPE   O1417620   5.768   4.950  10.611 -0.5196 -0.0097 -0.1459
  158SAPE   O1217621   5.608   4.798  10.490  0.2939  0.2509 -0.3647
  158SAPE   O1117622   5.805   4.892  10.373  0.2593 -0.4215 -0.4334
  158SAPE    C117623   5.903   4.987  10.332 -0.4299  0.2450 -0.6798
  158SAPE    HA17624   5.891   5.091  10.369 -2.0742  0.2656 -1.1907
  158SAPE    HB17625   6.002   4.946  10.362 -0.7162  0.6949  0.9735
  158SAPE    C217626   5.904   5.007  10.174 -0.4522 -0.3423  0.6160
  158SAPE    HS17627   5.814   5.067  10.148 -0.8492 -1.8655 -1.7488
  158SAPE   O2117628   5.888   4.877  10.119 -0.0167  0.6262  0.0224
  158SAPE   C2117629   5.835   4.885   9.996  0.7242 -0.0393 -0.2694
  158SAPE   O2217630   5.786   4.985   9.942 -0.0595  0.2145 -0.4511
  158SAPE   C2217631   5.853   4.752   9.927  0.4375  0.4561  0.3527
  158SAPE   H2R17632   5.953   4.712   9.955 -0.6184 -1.9978  0.8744
  158SAPE   H2S17633   5.771   4.686   9.962 -1.0683  1.4535 -1.1783
  158SAPE    C317634   6.033   5.089  10.132 -0.2711 -0.0229 -0.1332
  158SAPE    HX17635   6.113   5.014  10.151 -0.8779 -0.5523  0.3807
  158SAPE    HY17636   6.032   5.176  10.201 -0.9452  1.2078 -1.6265
  158SAPE   O3117637   6.028   5.144   9.997 -0.2037  0.1349  0.1555
  158SAPE   C3117638   6.119   5.097   9.914  0.1433  0.7086  0.4524
  158SAPE   O3217639   6.210   5.021   9.939  0.5868 -0.3033 -0.1825
  158SAPE   C3217640   6.092   5.161   9.776  0.4101  0.3770  0.0980
  158SAPE   H2X17641   6.136   5.263   9.779  1.4438 -0.0743  1.5331
  158SAPE   H2Y17642   5.981   5.163   9.771  0.4779  0.8806 -2.0946
  158SAPE   C2317643   5.839   4.755   9.770  0.5927 -0.0691 -1.0050
  158SAPE   H3R17644   5.913   4.830   9.735 -1.0363  0.4355 -3.6723
  158SAPE   H3S17645   5.737   4.797   9.756  0.8167  1.0975  0.5581
  158SAPE   C2417646   5.862   4.616   9.707 -0.4166  0.1645 -0.6390
  158SAPE   H4R17647   5.956   4.578   9.752 -1.9754 -2.0621  0.9588
  158SAPE   H4S17648   5.866   4.605   9.596 -2.7479  0.8696 -0.8557
  158SAPE   C2517649   5.752   4.519   9.762 -0.5009 -0.3504 -0.2996
  158SAPE   H5R17650   5.761   4.512   9.872  0.0367  1.2426 -0.2150
  158SAPE   C2617651   5.645   4.463   9.706  0.0661 -0.2179  0.2949
  158SAPE   H6R17652   5.592   4.384   9.762 -1.3950 -0.8999 -1.8876
  158SAPE   C2717653   5.602   4.485   9.563  0.1040 -0.5084  0.4039
  158SAPE   H7R17654   5.612   4.595   9.547 -2.4183 -0.1369  0.9754
  158SAPE   H7S17655   5.493   4.464   9.558  0.2617 -1.3253  0.2239
  158SAPE   C2817656   5.665   4.405   9.451 -0.2152  0.2225  0.6832
  158SAPE   H8R17657   5.693   4.302   9.476 -0.3374  0.0663  0.1910
  158SAPE   C2917658   5.680   4.446   9.323  0.4553 -0.1675 -0.8667
  158SAPE   H9R17659   5.709   4.375   9.245  2.4813  1.1857 -1.4174
  158SAPE  C21017660   5.631   4.577   9.273 -0.6629 -0.1394  0.0709
  158SAPE  H10R17661   5.607   4.645   9.357  0.3083 -1.2407  1.2642
  158SAPE  H10S17662   5.539   4.550   9.217  0.4861  0.5462 -2.3267
  158SAPE  C21117663   5.723   4.655   9.179  0.2220  0.7526  0.7459
  158SAPE  H11R17664   5.797   4.724   9.222  0.1154  1.7818 -0.6488
  158SAPE  C21217665   5.713   4.666   9.043 -0.4162  0.0453 -0.4240
  158SAPE  H12R17666   5.789   4.731   8.996 -0.3983  0.3379  0.0018
  158SAPE  C21317667   5.603   4.608   8.954 -0.1619 -0.0734 -0.6548
  158SAPE  H13R17668   5.611   4.659   8.856  2.6319  0.5049 -0.2090
  158SAPE  H13S17669   5.511   4.648   9.002  0.6502  0.4442  0.5451
  158SAPE  C21417670   5.608   4.462   8.937 -0.1245  0.3884  0.8220
  158SAPE  H14R17671   5.707   4.422   8.963  0.3505  1.7824  1.2434
  158SAPE  C21517672   5.515   4.371   8.880 -1.0679 -0.4165 -0.6156
  158SAPE  H15R17673   5.550   4.267   8.875  1.9400  0.2525  2.5764
  158SAPE  C21617674   5.376   4.404   8.831 -0.0743 -0.0859  0.2844
  158SAPE  H16R17675   5.349   4.503   8.875  0.9868  1.1256 -1.6674
  158SAPE  H16S17676   5.314   4.324   8.878  1.2229 -1.7313 -0.7113
  158SAPE  C21717677   5.372   4.396   8.677  0.7118  0.3221 -0.4548
  158SAPE  H17R17678   5.266   4.410   8.647  0.3080 -0.7688  0.3828
  158SAPE  H17S17679   5.393   4.296   8.633 -2.4868 -0.3708 -0.6488
  158SAPE  C21817680   5.451   4.502   8.614 -0.2994 -0.2487  0.5784
  158SAPE  H18R17681   5.556   4.468   8.598 -0.0736  0.1371  1.1772
  158SAPE  H18S17682   5.462   4.602   8.662  1.0107 -0.1738  0.1722
  158SAPE  C21917683   5.401   4.526   8.468  1.0550 -0.1994 -0.0898
  158SAPE  H19R17684   5.300   4.569   8.480  1.5562  0.3607  2.8230
  158SAPE  H19S17685   5.397   4.424   8.425  1.8883 -0.3442  0.1528
  158SAPE  C22017686   5.485   4.619   8.377  0.1939 -0.1390  0.6358
  158SAPE  H20R17687   5.586   4.577   8.357 -0.4175 -1.2597 -0.2054
  158SAPE  H20S17688   5.520   4.710   8.430  0.2371  0.8114 -0.9784
  158SAPE  H20T17689   5.432   4.633   8.281  1.6450 -0.1220 -0.1928
  158SAPE   C3317690   6.144   5.072   9.667 -0.2196  0.0910  0.4248
  158SAPE   H3X17691   6.137   4.965   9.695  0.6660 -0.0968 -0.0347
  158SAPE   H3Y17692   6.251   5.101   9.660 -0.2423  0.3206  1.0019
  158SAPE   C3417693   6.072   5.101   9.538  0.1090 -0.7357  0.4136
  158SAPE   H4X17694   6.082   5.208   9.511  0.6068 -0.9016 -0.0695
  158SAPE   H4Y17695   5.963   5.085   9.555 -0.2208 -1.2210 -1.8174
  158SAPE   C3517696   6.107   5.009   9.425 -0.8793 -0.5121 -0.3166
  158SAPE   H5X17697   6.083   4.905   9.456  1.6860 -1.5544 -1.5399
  158SAPE   H5Y17698   6.213   5.019   9.394 -1.1478  2.6461 -0.5512
  158SAPE   C3617699   6.026   5.044   9.300 -0.2163 -0.1265  0.7340
  158SAPE   H6X17700   6.067   5.142   9.268 -1.6606 -0.0943 -1.1914
  158SAPE   H6Y17701   5.919   5.043   9.328 -0.1590 -3.9822  1.3635
  158SAPE   C3717702   6.057   4.953   9.182 -0.1653  0.0193  0.6912
  158SAPE   H7X17703   6.007   4.856   9.203  0.8324 -0.4226  1.0986
  158SAPE   H7Y17704   6.167   4.935   9.189  0.2569  2.4205  1.2243
  158SAPE   C3817705   6.028   5.012   9.052  0.4572 -0.1754  0.2539
  158SAPE   H8X17706   6.053   4.930   8.981  1.3276 -0.1185  0.4822
  158SAPE   H8Y17707   6.096   5.098   9.035  0.6999 -0.4034  0.0654
  158SAPE   C3917708   5.886   5.074   9.028 -0.1092  0.3337  0.1961
  158SAPE   H9X17709   5.872   5.157   9.100 -0.1900 -0.3826  1.0231
  158SAPE   H9Y17710   5.803   5.000   9.035  0.0699 -0.0146 -1.0558
  158SAPE  C31017711   5.866   5.136   8.892 -0.5461  0.1334  0.4529
  158SAPE  H10X17712   5.936   5.219   8.870  1.4217 -1.3467  0.8064
  158SAPE  H10Y17713   5.765   5.182   8.892 -0.8268 -0.3274  2.9154
  158SAPE  C31117714   5.848   5.030   8.781  0.0428 -0.2907  0.0749
  158SAPE  H11X17715   5.794   4.940   8.817  0.6625 -0.7749 -0.2061
  158SAPE  H11Y17716   5.948   4.984   8.765 -0.1956 -0.0308 -2.6260
  158SAPE  C31217717   5.799   5.083   8.646  0.1338 -0.2340 -1.0088
  158SAPE  H12X17718   5.857   5.175   8.625 -0.9214  0.4405 -1.0544
  158SAPE  H12Y17719   5.690   5.106   8.652 -0.2007 -2.0811  1.4776
  158SAPE  C31317720   5.819   4.970   8.546 -0.0289 -0.5288 -0.1412
  158SAPE  H13X17721   5.801   4.882   8.612 -1.2244 -0.0652  0.1811
  158SAPE  H13Y17722   5.923   4.981   8.512  0.2839 -0.9217  0.6549
  158SAPE  C31417723   5.718   4.968   8.436 -0.0933  0.0429 -0.1150
  158SAPE  H14X17724   5.618   4.986   8.483  0.1497  0.6307  0.1783
  158SAPE  H14Y17725   5.714   4.866   8.391 -0.9937 -0.8437  1.8213
  158SAPE  C31517726   5.733   5.076   8.333  0.0459 -0.6076 -0.5333
  158SAPE  H15X17727   5.835   5.072   8.289 -0.0142 -0.8551 -0.6526
  158SAPE  H15Y17728   5.717   5.176   8.379 -2.5589  0.3378 -3.1676
  158SAPE  C31617729   5.628   5.057   8.225  0.1776 -0.3238  0.5015
  158SAPE  H16X17730   5.530   5.035   8.272 -0.0184 -0.0548  0.2234
  158SAPE  H16Y17731   5.665   4.978   8.156 -2.6479  0.5557 -2.2790
  158SAPE  C31717732   5.617   5.190   8.146 -0.4861  0.8046 -0.0110
  158SAPE  H17X17733   5.717   5.204   8.099 -0.6228 -0.0334 -0.5900
  158SAPE  H17Y17734   5.588   5.268   8.218  0.2936 -0.8333  2.1945
  158SAPE  C31817735   5.505   5.169   8.040  0.3457 -0.6211  0.1405
  158SAPE  H18X17736   5.516   5.070   7.992  1.3311 -0.3547 -0.2068
  158SAPE  H18Y17737   5.497   5.250   7.964 -2.3454 -1.7255 -0.8689
  158SAPE  H18Z17738   5.411   5.167   8.100 -0.6313 -0.0010 -1.3255
  159SAPE     N17739   4.065   0.898   6.271 -0.4053  0.2904  0.0385
  159SAPE   HN117740   4.013   0.960   6.336 -2.4298 -0.9706 -0.3063
  159SAPE   HN217741   4.007   0.880   6.186 -1.2425 -1.5936  0.9617
  159SAPE   HN317742   4.089   0.805   6.310  0.4826 -0.9421 -3.1234
  159SAPE   C1217743   4.191   0.980   6.235  0.1071  0.2155 -0.0920
  159SAPE  H12A17744   4.151   1.080   6.207  0.7189 -0.1817 -2.6032
  159SAPE  H12B17745   4.236   0.935   6.144 -0.8956 -0.6116 -0.2061
  159SAPE   C1117746   4.281   0.986   6.357 -0.3393 -0.7130 -0.2329
  159SAPE  H11A17747   4.318   0.882   6.372  0.6870 -0.5100 -1.2041
  159SAPE  H11B17748   4.232   1.029   6.447  0.5554  0.7505 -0.4061
  159SAPE     P17749   4.522   1.084   6.384  0.1218 -0.0456  0.4264
  159SAPE   O1317750   4.593   0.959   6.343 -0.2091  0.0174 -0.8533
  159SAPE   O1417751   4.589   1.210   6.356  0.3232  0.8851 -0.5101
  159SAPE   O1217752   4.380   1.085   6.319 -0.1191 -0.1568 -0.1847
  159SAPE   O1117753   4.492   1.073   6.539  0.1741  0.0225 -0.1576
  159SAPE    C117754   4.432   1.181   6.613  0.8367  0.1483 -0.0385
  159SAPE    HA17755   4.366   1.246   6.551  0.2319 -0.2800  0.1473
  159SAPE    HB17756   4.368   1.143   6.695  0.3965  0.2636 -0.3219
  159SAPE    C217757   4.541   1.270   6.673 -0.1995 -0.1337 -0.0289
  159SAPE    HS17758   4.593   1.323   6.590 -1.0115  1.0217  0.1911
  159SAPE   O2117759   4.636   1.200   6.754 -0.1872  0.3911  0.1427
  159SAPE   C2117760   4.753   1.246   6.739  0.3004  0.4302 -0.5395
  159SAPE   O2217761   4.802   1.320   6.655 -0.5526  0.6096  0.2942
  159SAPE   C2217762   4.843   1.174   6.840  0.1188 -0.3389 -0.8266
  159SAPE   H2R17763   4.806   1.070   6.848 -1.7083  0.3381  0.0869
  159SAPE   H2S17764   4.940   1.163   6.786 -0.3002 -1.8230 -1.3047
  159SAPE    C317765   4.463   1.378   6.745 -0.0377  0.6139  0.1500
  159SAPE    HX17766   4.423   1.329   6.836  1.1458 -1.9754 -0.6328
  159SAPE    HY17767   4.375   1.412   6.686 -1.2701 -1.6128  0.6023
  159SAPE   O3117768   4.532   1.497   6.795 -0.2131  0.2662  0.2315
  159SAPE   C3117769   4.558   1.592   6.708 -0.3457  0.1656 -0.9162
  159SAPE   O3217770   4.514   1.605   6.596  0.7798  0.0553  0.7720
  159SAPE   C3217771   4.659   1.684   6.771  0.0628 -0.4747 -0.0868
  159SAPE   H2X17772   4.650   1.681   6.882  1.5368  0.2932  0.0730
  159SAPE   H2Y17773   4.661   1.790   6.738  1.7267 -0.5076 -0.1326
  159SAPE   C2317774   4.864   1.237   6.978  0.2291 -0.2096 -0.4756
  159SAPE   H3R17775   4.899   1.342   6.968 -2.9287  1.5579  3.9098
  159SAPE   H3S17776   4.941   1.183   7.037  2.3262 -0.9807 -3.6666
  159SAPE   C2417777   4.743   1.242   7.072  0.6003  0.8088 -0.3150
  159SAPE   H4R17778   4.664   1.304   7.024  0.5249  0.0711 -1.1661
  159SAPE   H4S17779   4.757   1.298   7.167  1.3493 -0.4191  0.3212
  159SAPE   C2517780   4.670   1.110   7.097  0.2569 -0.0403 -0.3744
  159SAPE   H5R17781   4.625   1.073   7.004  0.7386 -0.8246 -0.3095
  159SAPE   C2617782   4.659   1.040   7.209  0.7080  0.3713 -0.3330
  159SAPE   H6R17783   4.606   0.944   7.219  0.6875  0.6203  2.7673
  159SAPE   C2717784   4.719   1.081   7.338 -0.7713 -0.1441 -0.2078
  159SAPE   H7R17785   4.820   1.120   7.312  0.5015 -1.8593  1.8226
  159SAPE   H7S17786   4.745   0.988   7.394 -0.0589  1.3182  2.0197
  159SAPE   C2817787   4.621   1.160   7.424 -0.0925 -0.0468 -0.2849
  159SAPE   H8R17788   4.596   1.259   7.382  1.9468  0.1515 -1.1486
  159SAPE   C2917789   4.566   1.120   7.535  0.5900  0.3752  0.9348
  159SAPE   H9R17790   4.493   1.188   7.580  0.2049 -0.4269  1.5538
  159SAPE  C21017791   4.587   0.988   7.609  0.2037 -1.1353 -0.1916
  159SAPE  H10R17792   4.640   0.916   7.544 -0.7847 -1.9644 -0.0912
  159SAPE  H10S17793   4.484   0.951   7.628  0.0081 -0.1633  0.7986
  159SAPE  C21117794   4.666   1.017   7.735  0.0248  0.1006 -0.0135
  159SAPE  H11R17795   4.774   1.029   7.720  0.5099 -0.5048  2.5415
  159SAPE  C21217796   4.628   1.023   7.862  0.7908 -0.2149 -0.5159
  159SAPE  H12R17797   4.697   1.031   7.947  0.1089  0.7409 -0.0354
  159SAPE  C21317798   4.483   1.014   7.914 -0.3827  0.1768  0.4022
  159SAPE  H13R17799   4.485   0.998   8.024 -0.9833 -1.3988  0.2083
  159SAPE  H13S17800   4.445   0.925   7.859  1.6864  1.0657 -2.8140
  159SAPE  C21417801   4.399   1.131   7.879 -0.7466  0.0775  0.0772
  159SAPE  H14R17802   4.369   1.143   7.774  0.2110  1.7118 -0.0428
  159SAPE  C21517803   4.361   1.222   7.972 -0.4942  0.4214  0.2284
  159SAPE  H15R17804   4.308   1.312   7.936  0.7091  1.5939  1.3088
  159SAPE  C21617805   4.402   1.229   8.117  0.8694  0.2603 -0.1736
  159SAPE  H16R17806   4.416   1.331   8.159  3.1082 -0.5144  1.0868
  159SAPE  H16S17807   4.496   1.177   8.146  1.1656  1.3780  0.9626
  159SAPE  C21717808   4.295   1.170   8.221  0.3544  0.5147 -0.1804
  159SAPE  H17R17809   4.268   1.066   8.193  5.1002 -0.6715 -1.2146
  159SAPE  H17S17810   4.215   1.248   8.220  2.9547  3.3620 -1.4482
  159SAPE  C21817811   4.343   1.169   8.365 -1.0434 -0.3669  0.3449
  159SAPE  H18R17812   4.267   1.157   8.445  0.2502  0.0476  1.7046
  159SAPE  H18S17813   4.391   1.268   8.383  2.3763 -2.0403  1.2769
  159SAPE  C21917814   4.444   1.054   8.401 -0.6025  0.6435  0.0270
  159SAPE  H19R17815   4.527   1.099   8.459 -0.2307 -0.1421  0.1139
  159SAPE  H19S17816   4.490   1.019   8.306 -2.4368 -1.7565 -0.0670
  159SAPE  C22017817   4.379   0.930   8.473  0.0134 -0.0036  0.1829
  159SAPE  H20R17818   4.356   0.958   8.578  0.3620  1.7832 -0.1830
  159SAPE  H20S17819   4.445   0.841   8.479 -1.0701 -0.8174  0.2910
  159SAPE  H20T17820   4.286   0.891   8.429  2.5441 -2.6676 -3.3750
  159SAPE   C3317821   4.803   1.625   6.757  0.2526  0.2563  0.5981
  159SAPE   H3X17822   4.808   1.620   6.646 -0.1398 -0.7129  0.6108
  159SAPE   H3Y17823   4.806   1.526   6.807 -0.7610 -0.5872 -0.9261
  159SAPE   C3417824   4.921   1.718   6.803  0.1394 -0.4453  0.6638
  159SAPE   H4X17825   4.935   1.808   6.739  2.7989 -1.1072  0.2289
  159SAPE   H4Y17826   5.012   1.660   6.777  0.9908  1.0454  0.2315
  159SAPE   C3517827   4.921   1.749   6.948  0.0404  0.2307  0.1641
  159SAPE   H5X17828   4.844   1.822   6.979  1.0787 -0.1930  4.2448
  159SAPE   H5Y17829   5.020   1.797   6.961 -0.0329  0.7879 -1.1894
  159SAPE   C3617830   4.914   1.620   7.032  0.1320  0.5922 -0.1845
  159SAPE   H6X17831   5.009   1.565   7.016 -0.2104 -0.4569  1.1437
  159SAPE   H6Y17832   4.835   1.549   6.999  2.2039 -1.1951 -1.6398
  159SAPE   C3717833   4.911   1.658   7.180 -0.0576 -0.2075  0.1994
  159SAPE   H7X17834   4.823   1.722   7.201  0.1239 -0.5258  2.0918
  159SAPE   H7Y17835   5.006   1.708   7.208 -0.2700  1.0936 -1.2732
  159SAPE   C3817836   4.891   1.543   7.278  0.1735 -0.2001 -0.3697
  159SAPE   H8X17837   4.977   1.473   7.276 -0.9239 -1.5954 -0.1121
  159SAPE   H8Y17838   4.804   1.493   7.231 -1.4396  1.2340  0.9380
  159SAPE   C3917839   4.871   1.596   7.414  0.1093  0.0352  0.3414
  159SAPE   H9X17840   4.774   1.651   7.407  0.2180  0.7483  3.2544
  159SAPE   H9Y17841   4.948   1.664   7.455 -0.7976 -0.0169  2.2563
  159SAPE  C31017842   4.861   1.486   7.519 -0.5249  0.2680 -0.0779
  159SAPE  H10X17843   4.941   1.410   7.501 -0.8176 -0.1149  0.2394
  159SAPE  H10Y17844   4.769   1.426   7.503  0.7919 -1.3869 -2.0829
  159SAPE  C31117845   4.871   1.539   7.662  0.1741 -0.2315 -0.4211
  159SAPE  H11X17846   4.780   1.601   7.674 -1.4353 -1.8767 -3.0976
  159SAPE  H11Y17847   4.963   1.594   7.692 -0.5205 -0.1429  1.6770
  159SAPE  C31217848   4.841   1.412   7.752  0.1603  0.1623  0.5105
  159SAPE  H12X17849   4.925   1.341   7.735 -0.5304 -0.4844 -0.2632
  159SAPE  H12Y17850   4.744   1.373   7.714  0.4614  1.5240 -1.8864
  159SAPE  C31317851   4.823   1.439   7.900  0.0304 -0.3411 -0.1150
  159SAPE  H13X17852   4.746   1.519   7.903 -0.4006 -0.7603  0.1780
  159SAPE  H13Y17853   4.920   1.476   7.938  0.2026 -1.2812  0.3994
  159SAPE  C31417854   4.771   1.318   7.981 -0.5785 -0.3307 -0.6972
  159SAPE  H14X17855   4.799   1.213   7.957 -0.0198 -0.7713  1.6919
  159SAPE  H14Y17856   4.662   1.331   7.961 -0.6545  2.0959  0.9061
  159SAPE  C31517857   4.783   1.332   8.136 -0.0355 -0.0243  0.0493
  159SAPE  H15X17858   4.892   1.327   8.157 -0.0806 -0.8410  0.1271
  159SAPE  H15Y17859   4.726   1.247   8.179  0.4776  0.1370  1.0718
  159SAPE  C31617860   4.742   1.462   8.192 -0.2603 -0.1787 -0.2393
  159SAPE  H16X17861   4.634   1.486   8.179 -0.4082  0.6729  2.0493
  159SAPE  H16Y17862   4.804   1.544   8.150 -0.9635  0.9411  0.8295
  159SAPE  C31717863   4.762   1.469   8.348  0.1219  0.0240  0.9277
  159SAPE  H17X17864   4.713   1.566   8.369 -1.5337 -0.7270  0.6774
  159SAPE  H17Y17865   4.870   1.474   8.372  0.7875 -2.1822 -1.1417
  159SAPE  C31817866   4.696   1.357   8.424 -0.0348  0.3799  0.2439
  159SAPE  H18X17867   4.710   1.384   8.531  1.8332  1.6334 -0.2678
  159SAPE  H18Y17868   4.732   1.256   8.397 -0.8143  0.1781 -0.0577
  159SAPE  H18Z17869   4.586   1.356   8.409 -0.5461 -0.6803  3.3626
  160SAPE     N17870   3.561   2.208   6.483  0.1530  0.2294 -0.2777
  160SAPE   HN117871   3.479   2.145   6.470  0.4850  0.0605 -1.6767
  160SAPE   HN217872   3.535   2.306   6.506 -2.3093 -0.7598  1.6854
  160SAPE   HN317873   3.602   2.199   6.388 -0.1247 -2.2520 -0.2304
  160SAPE   C1217874   3.652   2.156   6.593  0.2183  0.4139 -0.2704
  160SAPE  H12A17875   3.602   2.186   6.687 -3.4742 -2.2388 -1.1708
  160SAPE  H12B17876   3.751   2.199   6.568  1.1521 -2.0895 -1.1973
  160SAPE   C1117877   3.677   2.000   6.592 -0.4438 -0.4023  0.1154
  160SAPE  H11A17878   3.584   1.940   6.601 -0.9707  0.0657 -1.7838
  160SAPE  H11B17879   3.740   1.975   6.681  0.7790  0.5371 -0.4583
  160SAPE     P17880   3.844   1.875   6.440 -0.1122 -0.2513  0.1059
  160SAPE   O1317881   3.776   1.747   6.442  0.2600  0.0156  0.2261
  160SAPE   O1417882   3.930   1.912   6.323  0.3951  0.3245 -0.2008
  160SAPE   O1217883   3.729   1.985   6.453  0.0215  0.7257 -0.1985
  160SAPE   O1117884   3.941   1.891   6.566 -0.1394 -0.4693  0.5309
  160SAPE    C117885   4.040   1.794   6.585  0.9637  0.3246  0.2432
  160SAPE    HA17886   4.010   1.695   6.546  3.6224 -0.8234  0.8986
  160SAPE    HB17887   4.137   1.829   6.543  1.0046 -1.0414 -0.8661
  160SAPE    C217888   4.065   1.760   6.738 -0.0789 -0.6299  0.7558
  160SAPE    HS17889   3.966   1.719   6.768 -1.6099  2.0214 -0.2832
  160SAPE   O2117890   4.104   1.878   6.810  0.1288 -0.0469  0.2532
  160SAPE   C2117891   4.060   1.878   6.932  0.6570  0.0022 -0.6007
  160SAPE   O2217892   4.001   1.791   6.991  0.1933  0.5175  0.1217
  160SAPE   C2217893   4.134   1.993   7.000 -0.3400  0.1132 -0.1408
  160SAPE   H2R17894   4.238   2.000   6.961 -0.2669 -0.2665 -0.0254
  160SAPE   H2S17895   4.070   2.079   6.970  0.1716  1.0691  1.3870
  160SAPE    C317896   4.168   1.642   6.756 -0.0778  0.1187 -0.5671
  160SAPE    HX17897   4.260   1.669   6.700 -0.4843  1.3301 -0.6775
  160SAPE    HY17898   4.135   1.551   6.701  1.6441 -0.8453 -0.0718
  160SAPE   O3117899   4.192   1.603   6.896  0.4764  0.2262  0.2726
  160SAPE   C3117900   4.298   1.651   6.953  0.2957 -0.3599 -0.1725
  160SAPE   O3217901   4.361   1.744   6.901  0.5682  0.3624  0.0689
  160SAPE   C3217902   4.313   1.590   7.096 -0.0497  0.6947 -0.2367
  160SAPE   H2X17903   4.253   1.496   7.096  0.9939 -0.0332 -2.3287
  160SAPE   H2Y17904   4.272   1.669   7.162 -0.0101 -1.0399  1.9849
  160SAPE   C2317905   4.135   1.964   7.156 -1.2288 -0.6417  0.2230
  160SAPE   H3R17906   4.208   1.887   7.190  0.6322  1.2568  0.7996
  160SAPE   H3S17907   4.039   1.922   7.192 -0.3962 -1.3025  1.8244
  160SAPE   C2417908   4.174   2.084   7.250 -0.4319  0.3770 -0.5582
  160SAPE   H4R17909   4.275   2.116   7.216 -0.1465 -0.4748 -0.5171
  160SAPE   H4S17910   4.184   2.037   7.350  2.4934 -0.6013 -1.2224
  160SAPE   C2517911   4.079   2.196   7.263  0.3659  0.3149 -0.1574
  160SAPE   H5R17912   4.036   2.243   7.173 -1.6578 -0.3242  0.4243
  160SAPE   C2617913   4.024   2.240   7.379  0.2821 -0.4455 -0.8822
  160SAPE   H6R17914   3.962   2.331   7.383  0.9295 -0.0616  1.8319
  160SAPE   C2717915   4.046   2.173   7.513  0.3690  0.0244 -0.3602
  160SAPE   H7R17916   4.042   2.254   7.588  3.5417  1.1346 -1.2289
  160SAPE   H7S17917   4.150   2.134   7.518  0.2889 -0.0119  1.6732
  160SAPE   C2817918   3.949   2.062   7.546  0.2316  0.5833 -0.1685
  160SAPE   H8R17919   3.849   2.061   7.499 -1.1657 -0.4186  2.6409
  160SAPE   C2917920   3.966   1.961   7.635 -0.6259 -0.7303 -0.3531
  160SAPE   H9R17921   3.889   1.885   7.657  0.5971 -2.2611 -1.1657
  160SAPE  C21017922   4.077   1.934   7.735 -0.3496  0.7227  0.4235
  160SAPE  H10R17923   4.153   2.015   7.736 -1.0724  1.4444 -0.6386
  160SAPE  H10S17924   4.135   1.854   7.683  0.5296  1.8191 -0.3454
  160SAPE  C21117925   4.042   1.903   7.877  0.3613  0.1687  0.1097
  160SAPE  H11R17926   4.040   1.793   7.887  1.1447  0.1467  0.1223
  160SAPE  C21217927   4.032   1.994   7.980  0.5284  0.1625  0.2461
  160SAPE  H12R17928   4.016   1.957   8.082 -3.1903 -0.2473 -0.3605
  160SAPE  C21317929   4.060   2.145   7.965 -0.0910 -0.3060  0.6663
  160SAPE  H13R17930   3.996   2.202   8.035  1.7944  0.1058  2.1481
  160SAPE  H13S17931   4.043   2.176   7.860  2.3639 -2.8537 -0.6459
  160SAPE  C21417932   4.210   2.175   7.994 -0.0673  0.0888  1.0961
  160SAPE  H14R17933   4.281   2.154   7.913  1.7161  0.7008  2.4457
  160SAPE  C21517934   4.266   2.218   8.100 -0.9388  0.5999 -1.0408
  160SAPE  H15R17935   4.374   2.240   8.100 -0.7760  0.0833  1.6131
  160SAPE  C21617936   4.192   2.260   8.222  0.2072 -0.0266  0.0853
  160SAPE  H16R17937   4.154   2.172   8.278 -2.0101 -0.0066 -1.2442
  160SAPE  H16S17938   4.089   2.291   8.192 -0.3719 -1.1760  0.8024
  160SAPE  C21717939   4.265   2.366   8.304  0.2204 -0.4263 -0.4767
  160SAPE  H17R17940   4.274   2.459   8.244 -0.6710  0.1181  0.1965
  160SAPE  H17S17941   4.366   2.334   8.335  0.7988  0.8557 -0.9818
  160SAPE  C21817942   4.194   2.421   8.432  0.4495  0.0522 -0.5680
  160SAPE  H18R17943   4.173   2.333   8.496  0.4036  0.5950  0.1686
  160SAPE  H18S17944   4.105   2.474   8.392 -0.3907 -0.9495 -0.0821
  160SAPE  C21917945   4.279   2.521   8.505  0.7457  0.9129  0.6875
  160SAPE  H19R17946   4.304   2.609   8.442 -1.2428  1.9028  1.1913
  160SAPE  H19S17947   4.373   2.465   8.523  0.2789 -0.3363 -0.5542
  160SAPE  C22017948   4.225   2.573   8.629 -0.1905  0.1500 -0.2399
  160SAPE  H20R17949   4.122   2.612   8.613 -0.4753 -0.9081 -1.1194
  160SAPE  H20S17950   4.285   2.659   8.665  1.9074 -1.7510  1.0799
  160SAPE  H20T17951   4.226   2.499   8.712  1.4200 -2.1503 -2.1702
  160SAPE   C3317952   4.466   1.570   7.134  0.4983 -0.0599  0.4479
  160SAPE   H3X17953   4.512   1.670   7.122 -2.3328  1.0366 -2.8924
  160SAPE   H3Y17954   4.500   1.497   7.057 -1.8748 -2.4519  1.5093
  160SAPE   C3417955   4.492   1.516   7.265 -0.5070 -0.8567  0.5566
  160SAPE   H4X17956   4.600   1.501   7.280 -0.2120 -1.5652 -1.9076
  160SAPE   H4Y17957   4.444   1.416   7.276 -0.5210 -0.6642  2.5462
  160SAPE   C3517958   4.433   1.595   7.384 -0.3199 -0.4090 -0.3423
  160SAPE   H5X17959   4.332   1.640   7.376 -0.5858 -0.7214  0.9260
  160SAPE   H5Y17960   4.498   1.684   7.397 -2.5623  0.9300  3.0571
  160SAPE   C3617961   4.429   1.515   7.509 -0.5019 -0.5504  1.0745
  160SAPE   H6X17962   4.506   1.435   7.519  1.1619  0.6033 -1.5504
  160SAPE   H6Y17963   4.335   1.455   7.512 -1.1316  0.4375  2.1888
  160SAPE   C3717964   4.419   1.597   7.645 -0.6156  0.2436 -0.4330
  160SAPE   H7X17965   4.336   1.670   7.638  0.9659  2.1962  0.3658
  160SAPE   H7Y17966   4.513   1.655   7.649  1.0222 -2.2278 -0.4427
  160SAPE   C3817967   4.405   1.505   7.768 -0.2087 -0.0828  0.6681
  160SAPE   H8X17968   4.483   1.426   7.769 -0.4198 -0.3955 -1.6241
  160SAPE   H8Y17969   4.309   1.449   7.770 -0.4737  0.3712  1.1016
  160SAPE   C3917970   4.415   1.583   7.896  0.8924 -0.0741  0.5157
  160SAPE   H9X17971   4.515   1.631   7.908  1.5414 -0.8573 -1.4436
  160SAPE   H9Y17972   4.400   1.512   7.981  1.9915 -1.0832 -0.1007
  160SAPE  C31017973   4.314   1.696   7.912 -0.2117  0.2169  0.2121
  160SAPE  H10X17974   4.212   1.653   7.918  0.8447 -3.2871 -3.0764
  160SAPE  H10Y17975   4.325   1.765   7.825  0.6748  0.8926  0.8386
  160SAPE  C31117976   4.335   1.780   8.046 -0.3576  0.9489 -0.4940
  160SAPE  H11X17977   4.281   1.877   8.038 -1.4458  0.3136 -1.1187
  160SAPE  H11Y17978   4.441   1.813   8.037  0.0323 -0.4396 -1.4232
  160SAPE  C31217979   4.325   1.714   8.184 -0.4959 -0.1330  0.6464
  160SAPE  H12X17980   4.392   1.780   8.243 -0.1502  1.8480 -1.7760
  160SAPE  H12Y17981   4.354   1.607   8.179  1.4909  0.4054 -0.5924
  160SAPE  C31317982   4.185   1.715   8.234 -0.1408  0.1411 -0.3305
  160SAPE  H13X17983   4.133   1.651   8.159  0.7776 -0.5618 -0.3938
  160SAPE  H13Y17984   4.151   1.821   8.235 -0.9937 -0.0246 -2.9245
  160SAPE  C31417985   4.178   1.676   8.384  0.2922  0.1014  0.0548
  160SAPE  H14X17986   4.077   1.685   8.430  1.1423  1.9988  1.6957
  160SAPE  H14Y17987   4.238   1.756   8.431 -2.1188  1.0118  1.7430
  160SAPE  C31517988   4.241   1.538   8.409  0.3377 -0.7500 -0.3199
  160SAPE  H15X17989   4.344   1.528   8.369 -0.6751 -0.5827 -3.1611
  160SAPE  H15Y17990   4.207   1.455   8.345  0.9067 -0.7121 -0.6779
  160SAPE  C31617991   4.233   1.492   8.557  0.7547 -0.9035  0.8830
  160SAPE  H16X17992   4.235   1.382   8.570 -2.9734 -1.2272 -0.0470
  160SAPE  H16Y17993   4.130   1.507   8.595  0.9716 -0.8911  1.4745
  160SAPE  C31717994   4.338   1.556   8.653  0.1475  0.8479 -0.6225
  160SAPE  H17X17995   4.311   1.523   8.756  0.8170  0.2175 -0.6460
  160SAPE  H17Y17996   4.334   1.667   8.650  1.5392  0.9428  0.4201
  160SAPE  C31817997   4.478   1.496   8.636 -0.1505 -0.0153 -0.1384
  160SAPE  H18X17998   4.547   1.545   8.565 -0.3945 -0.1945 -0.5054
  160SAPE  H18Y17999   4.475   1.385   8.628 -0.3988  0.0875 -1.8881
  160SAPE  H18Z18000   4.532   1.517   8.731  1.3515 -0.6107 -0.8363
  161SAPE     N18001   5.380   0.423   6.115  0.3954 -0.2328  0.3693
  161SAPE   HN118002   5.481   0.430   6.138  1.2102 -1.2396 -2.4075
  161SAPE   HN218003   5.379   0.337   6.057  3.1405 -0.7120  0.9315
  161SAPE   HN318004   5.363   0.511   6.062 -0.1829  0.8609  2.2843
  161SAPE   C1218005   5.297   0.401   6.241 -0.5811  0.1424  0.0602
  161SAPE  H12A18006   5.329   0.306   6.287  0.4846 -0.2694 -1.4492
  161SAPE  H12B18007   5.190   0.396   6.211 -0.6338  1.5017 -0.0769
  161SAPE   C1118008   5.315   0.518   6.343  0.5295 -0.2713  0.8102
  161SAPE  H11A18009   5.424   0.519   6.365  0.6548 -0.3772  0.1927
  161SAPE  H11B18010   5.251   0.497   6.432 -0.8564  0.3030 -0.0303
  161SAPE     P18011   5.151   0.736   6.345  0.0548  0.4143 -0.0743
  161SAPE   O1318012   5.171   0.868   6.285 -0.0006 -0.7761 -0.3596
  161SAPE   O1418013   5.021   0.672   6.321  0.3058  0.3224  0.4670
  161SAPE   O1218014   5.267   0.646   6.291 -0.0577  0.0494  0.1440
  161SAPE   O1118015   5.168   0.757   6.504  0.2663 -0.0380 -0.9337
  161SAPE    C118016   5.304   0.790   6.550 -0.0887 -0.4309 -0.5056
  161SAPE    HA18017   5.388   0.753   6.486 -0.6636 -1.7266 -0.5369
  161SAPE    HB18018   5.313   0.898   6.572  0.8089 -0.1714 -1.9367
  161SAPE    C218019   5.343   0.711   6.671  1.1296  0.3730 -0.3970
  161SAPE    HS18020   5.321   0.602   6.660  2.7216 -0.2547  1.9624
  161SAPE   O2118021   5.276   0.767   6.788  0.4542 -0.4204  0.2457
  161SAPE   C2118022   5.160   0.702   6.817  0.5856  0.0917  0.1060
  161SAPE   O2218023   5.109   0.607   6.759 -0.2813  0.6310 -0.1262
  161SAPE   C2218024   5.096   0.787   6.926  0.4167  0.3973  0.0332
  161SAPE   H2R18025   5.174   0.813   7.000 -2.1324  1.4089  2.5409
  161SAPE   H2S18026   5.062   0.885   6.886  0.8961  0.1723 -0.9580
  161SAPE    C318027   5.494   0.727   6.705  0.0721  0.2739 -0.2556
  161SAPE    HX18028   5.509   0.834   6.732  1.9912 -0.1587  0.5499
  161SAPE    HY18029   5.559   0.706   6.618 -0.0832  0.8333 -0.5123
  161SAPE   O3118030   5.528   0.644   6.820  0.1503  0.3529 -0.2383
  161SAPE   C3118031   5.645   0.676   6.875  0.5378 -0.3162 -0.0255
  161SAPE   O3218032   5.721   0.767   6.840 -0.1933  0.2211  0.6713
  161SAPE   C3218033   5.680   0.569   6.978  0.1935 -0.1427 -0.2581
  161SAPE   H2X18034   5.786   0.542   6.961  0.8294  0.8778  1.8597
  161SAPE   H2Y18035   5.617   0.479   6.958  0.8950 -0.8243  0.5518
  161SAPE   C2318036   4.980   0.709   6.994 -0.3002  0.3886  0.5542
  161SAPE   H3R18037   5.021   0.611   7.027  2.1005  0.5676 -1.5875
  161SAPE   H3S18038   4.896   0.696   6.923 -0.8251  0.1126  1.2076
  161SAPE   C2418039   4.932   0.791   7.121  0.2364  0.3960  0.2175
  161SAPE   H4R18040   4.913   0.899   7.099 -4.6857  0.5638  3.6163
  161SAPE   H4S18041   5.011   0.782   7.199 -0.9979 -0.1155  1.4375
  161SAPE   C2518042   4.803   0.727   7.168  0.2540  0.1516  0.0051
  161SAPE   H5R18043   4.724   0.712   7.092 -1.7741 -1.0359  2.2254
  161SAPE   C2618044   4.766   0.679   7.291  0.4560 -0.1304  0.0878
  161SAPE   H6R18045   4.672   0.626   7.308  1.4003 -2.2337 -0.9397
  161SAPE   C2718046   4.851   0.699   7.415  0.5371  0.5287 -0.4102
  161SAPE   H7R18047   4.787   0.764   7.480  0.1241  1.8171 -2.0384
  161SAPE   H7S18048   4.945   0.757   7.402  0.6792  0.8259  1.5855
  161SAPE   C2818049   4.886   0.570   7.477 -0.1208  0.4653 -0.4624
  161SAPE   H8R18050   4.975   0.521   7.436 -0.0438 -0.3592  0.6499
  161SAPE   C2918051   4.820   0.509   7.579 -0.7788  0.3215  0.3962
  161SAPE   H9R18052   4.857   0.415   7.620  2.8724  1.5698  0.2617
  161SAPE  C21018053   4.698   0.573   7.639  0.1219 -0.1782 -0.2452
  161SAPE  H10R18054   4.654   0.654   7.577  0.6026  0.0935 -0.2368
  161SAPE  H10S18055   4.725   0.636   7.727 -2.0605  1.2474 -0.5052
  161SAPE  C21118056   4.592   0.471   7.673  0.6518  0.1140  0.6124
  161SAPE  H11R18057   4.603   0.373   7.624 -0.8097  1.2451 -2.2055
  161SAPE  C21218058   4.489   0.496   7.755 -0.2966 -0.4687 -0.6363
  161SAPE  H12R18059   4.420   0.416   7.783 -2.0073  0.8655 -0.9039
  161SAPE  C21318060   4.468   0.629   7.829 -0.1931  0.0889 -0.0684
  161SAPE  H13R18061   4.382   0.683   7.784 -0.4723 -0.4216 -0.1542
  161SAPE  H13S18062   4.552   0.702   7.817 -1.1391  1.1429 -0.4403
  161SAPE  C21418063   4.430   0.608   7.973 -0.4365 -0.8249  0.1918
  161SAPE  H14R18064   4.325   0.590   7.999  0.2578 -1.4443  2.9522
  161SAPE  C21518065   4.509   0.611   8.082 -0.0743 -0.2628  0.1144
  161SAPE  H15R18066   4.455   0.602   8.177 -1.3185 -1.3989 -0.6652
  161SAPE  C21618067   4.663   0.627   8.080  0.4473  0.2793 -0.3305
  161SAPE  H16R18068   4.703   0.651   7.980 -0.4762 -1.6358 -1.2137
  161SAPE  H16S18069   4.706   0.535   8.125 -1.2952  0.2770  1.5227
  161SAPE  C21718070   4.716   0.726   8.181  0.5979 -0.7563  0.1519
  161SAPE  H17R18071   4.668   0.825   8.164  0.3066 -1.1838 -1.8054
  161SAPE  H17S18072   4.824   0.731   8.158  0.2200 -0.0816 -1.6416
  161SAPE  C21818073   4.706   0.688   8.327 -0.1767  0.0707 -0.0664
  161SAPE  H18R18074   4.733   0.580   8.331  0.0911 -0.1246 -3.7890
  161SAPE  H18S18075   4.596   0.699   8.342  0.0719  2.5134  0.4026
  161SAPE  C21918076   4.801   0.767   8.415  0.1447  0.4115 -0.0205
  161SAPE  H19R18077   4.893   0.778   8.354 -0.1187  1.2519 -0.2791
  161SAPE  H19S18078   4.825   0.722   8.514 -0.6303  0.6593  0.2867
  161SAPE  C22018079   4.751   0.911   8.447  0.2445  0.1711 -0.1260
  161SAPE  H20R18080   4.735   0.984   8.365 -0.6529  1.1894  0.9109
  161SAPE  H20S18081   4.833   0.957   8.505  1.6255 -1.7666 -0.4477
  161SAPE  H20T18082   4.655   0.899   8.502 -1.2274  1.4361 -2.2726
  161SAPE   C3318083   5.673   0.613   7.122 -0.0835 -0.7142 -0.3832
  161SAPE   H3X18084   5.706   0.528   7.186 -0.8056 -0.9722 -0.3452
  161SAPE   H3Y18085   5.571   0.641   7.157 -0.3612  1.3739 -2.5697
  161SAPE   C3418086   5.770   0.733   7.152  0.6293 -0.2431  0.3386
  161SAPE   H4X18087   5.730   0.825   7.105  0.4573 -1.3199 -1.7110
  161SAPE   H4Y18088   5.871   0.715   7.110  0.3425 -0.8039 -0.1204
  161SAPE   C3518089   5.781   0.762   7.309 -0.1482  0.2021  0.3920
  161SAPE   H5X18090   5.843   0.853   7.323 -0.5235  0.6438 -0.7744
  161SAPE   H5Y18091   5.843   0.684   7.359  0.1511  0.1525 -0.0493
  161SAPE   C3618092   5.654   0.777   7.392  0.1091  0.1353 -0.1401
  161SAPE   H6X18093   5.621   0.678   7.430  0.2786 -0.0604 -0.4949
  161SAPE   H6Y18094   5.578   0.809   7.318 -1.1407 -0.8513  0.6768
  161SAPE   C3718095   5.663   0.891   7.491  0.3919  0.4496 -0.6383
  161SAPE   H7X18096   5.688   0.978   7.427 -0.5476  0.4692 -0.9917
  161SAPE   H7Y18097   5.742   0.862   7.563  1.2646 -0.0490 -1.7693
  161SAPE   C3818098   5.525   0.912   7.548  0.9523 -0.6804 -0.5704
  161SAPE   H8X18099   5.482   0.821   7.595  2.3469 -0.5076  1.1301
  161SAPE   H8Y18100   5.452   0.937   7.467 -1.1433 -1.8969  0.8313
  161SAPE   C3918101   5.533   1.022   7.663 -0.0415  0.8898  0.0425
  161SAPE   H9X18102   5.430   1.037   7.701 -0.0377 -1.2280  1.0068
  161SAPE   H9Y18103   5.580   1.112   7.618  1.7230  0.7275  1.4488
  161SAPE  C31018104   5.619   0.972   7.785  0.7786 -0.5231 -0.2729
  161SAPE  H10X18105   5.722   0.939   7.758  0.5733 -0.8206 -0.6989
  161SAPE  H10Y18106   5.565   0.882   7.821 -3.0284  1.8519  0.4651
  161SAPE  C31118107   5.620   1.083   7.894 -0.7313 -0.3442  0.1033
  161SAPE  H11X18108   5.520   1.132   7.903  0.4564  1.7928  2.8232
  161SAPE  H11Y18109   5.690   1.159   7.853  0.7028 -0.3048  2.4608
  161SAPE  C31218110   5.674   1.020   8.020  0.1733  0.0849  0.9546
  161SAPE  H12X18111   5.750   1.090   8.062 -0.6433  0.6811  1.4742
  161SAPE  H12Y18112   5.728   0.927   7.992  0.0155  0.7935 -2.0124
  161SAPE  C31318113   5.559   0.989   8.122  0.0949  0.2625  0.2469
  161SAPE  H13X18114   5.477   0.942   8.063 -0.1444  1.1505 -0.1522
  161SAPE  H13Y18115   5.533   1.077   8.185  0.4174  0.1655  0.5155
  161SAPE  C31418116   5.604   0.878   8.222 -0.6786  0.1715  0.2852
  161SAPE  H14X18117   5.695   0.916   8.273  0.0313  2.5774 -2.4993
  161SAPE  H14Y18118   5.636   0.785   8.171  0.3805  1.2747 -1.1194
  161SAPE  C31518119   5.490   0.849   8.311  0.8964 -0.3780 -0.1131
  161SAPE  H15X18120   5.396   0.853   8.251  1.1808 -1.2710 -0.6404
  161SAPE  H15Y18121   5.490   0.936   8.379  2.1490  0.5823 -1.2776
  161SAPE  C31618122   5.503   0.714   8.383 -0.0967 -0.2735  0.1675
  161SAPE  H16X18123   5.419   0.702   8.455  0.9237 -3.1914  1.0108
  161SAPE  H16Y18124   5.596   0.693   8.439 -0.0896  1.3058  0.7813
  161SAPE  C31718125   5.509   0.591   8.298  0.1779 -0.6175  0.1409
  161SAPE  H17X18126   5.598   0.589   8.231 -1.0801  2.1775 -1.7923
  161SAPE  H17Y18127   5.428   0.589   8.222  0.6819 -0.8195 -0.4008
  161SAPE  C31818128   5.498   0.459   8.382  0.0201  0.0642  0.1026
  161SAPE  H18X18129   5.435   0.465   8.473  0.5147  0.0716  0.4486
  161SAPE  H18Y18130   5.601   0.430   8.410 -0.2966 -0.0087  1.2296
  161SAPE  H18Z18131   5.464   0.375   8.318 -0.1457 -0.4127  0.8033
  162SAPE     N18132   5.162   3.117   6.431  0.0372  0.9274  0.4065
  162SAPE   HN118133   5.251   3.073   6.400 -0.6693  0.3476 -0.8883
  162SAPE   HN218134   5.121   3.045   6.494 -0.9404  0.1228 -1.1072
  162SAPE   HN318135   5.101   3.119   6.347  2.2625  0.7250 -1.2991
  162SAPE   C1218136   5.159   3.249   6.499  0.4473 -0.3206  0.4731
  162SAPE  H12A18137   5.230   3.251   6.584 -1.5011 -0.1984  2.1576
  162SAPE  H12B18138   5.056   3.256   6.539  0.8321  0.3263  1.3772
  162SAPE   C1118139   5.211   3.364   6.402 -0.1834 -0.6235  0.3633
  162SAPE  H11A18140   5.213   3.458   6.460 -0.6325 -0.8280  0.7171
  162SAPE  H11B18141   5.132   3.385   6.326  0.5136  0.1747 -0.1545
  162SAPE     P18142   5.363   3.361   6.195 -0.0328 -0.2845 -0.2928
  162SAPE   O1318143   5.292   3.262   6.115  0.4496  0.4093  0.0211
  162SAPE   O1418144   5.344   3.503   6.153 -0.4891  0.5287 -0.1347
  162SAPE   O1218145   5.337   3.337   6.345  0.0209  0.0809  0.2092
  162SAPE   O1118146   5.516   3.325   6.179 -0.0981 -0.1723  0.2867
  162SAPE    C118147   5.586   3.239   6.273 -0.3182  0.0425  0.0744
  162SAPE    HA18148   5.524   3.204   6.358 -2.5003  0.8490 -1.1124
  162SAPE    HB18149   5.620   3.151   6.215  3.9942  1.5784 -0.1378
  162SAPE    C218150   5.709   3.306   6.333 -0.3099  0.0094  0.1311
  162SAPE    HS18151   5.758   3.232   6.399  3.5068  1.9354 -0.2969
  162SAPE   O2118152   5.681   3.426   6.409  0.0980  0.3270 -0.3370
  162SAPE   C2118153   5.603   3.414   6.525  0.4030 -0.1440 -0.3046
  162SAPE   O2218154   5.581   3.311   6.581 -0.1797  0.2186 -0.2081
  162SAPE   C2218155   5.548   3.550   6.569 -0.0452  0.0491  0.5720
  162SAPE   H2R18156   5.633   3.619   6.555  0.7325 -0.7475  1.2794
  162SAPE   H2S18157   5.469   3.579   6.496  1.0257  0.4824 -0.4371
  162SAPE    C318158   5.806   3.350   6.220  0.1798 -0.6838 -0.3362
  162SAPE    HX18159   5.741   3.404   6.147  1.1030 -1.0853 -1.5005
  162SAPE    HY18160   5.843   3.265   6.159  0.0619 -0.5737 -0.5658
  162SAPE   O3118161   5.914   3.443   6.268 -0.5783 -0.1383 -0.7743
  162SAPE   C3118162   6.015   3.382   6.331  0.2331 -0.2216 -0.1407
  162SAPE   O3218163   6.041   3.265   6.311 -0.3765  0.0243  0.1910
  162SAPE   C3218164   6.090   3.478   6.416  0.4535 -0.0739  0.4665
  162SAPE   H2X18165   6.112   3.566   6.352 -0.9596 -0.9243 -1.2899
  162SAPE   H2Y18166   6.184   3.428   6.448 -0.0264 -1.5528 -0.3321
  162SAPE   C2318167   5.511   3.548   6.720 -0.6634 -0.5082 -1.0516
  162SAPE   H3R18168   5.600   3.526   6.783 -0.1944  2.3947 -0.5431
  162SAPE   H3S18169   5.436   3.470   6.745 -1.0650 -0.1730 -1.2086
  162SAPE   C2418170   5.442   3.680   6.774  0.4061 -0.1714 -0.4312
  162SAPE   H4R18171   5.512   3.764   6.755  0.1445  0.3171  0.6697
  162SAPE   H4S18172   5.428   3.674   6.884 -1.4719 -3.0111 -0.7318
  162SAPE   C2518173   5.320   3.695   6.698 -0.1674 -0.0059  0.2484
  162SAPE   H5R18174   5.332   3.751   6.604  0.2810 -1.4731 -0.6092
  162SAPE   C2618175   5.206   3.639   6.739 -0.1698 -0.3159 -0.5336
  162SAPE   H6R18176   5.120   3.651   6.671  0.3414 -0.7688 -1.2621
  162SAPE   C2718177   5.190   3.564   6.876  0.1911 -0.2323  0.1876
  162SAPE   H7R18178   5.155   3.646   6.942  1.4745 -0.2916  0.9886
  162SAPE   H7S18179   5.285   3.521   6.915 -0.0549 -0.2348  0.7920
  162SAPE   C2818180   5.093   3.451   6.869  0.0970  1.2793  0.1590
  162SAPE   H8R18181   5.086   3.410   6.767 -1.4530  4.3203 -1.0883
  162SAPE   C2918182   5.026   3.392   6.965  0.0833 -0.6579  0.1906
  162SAPE   H9R18183   4.946   3.322   6.937 -2.1409  1.3508  1.1958
  162SAPE  C21018184   5.040   3.418   7.113 -0.4837  0.3356 -0.0641
  162SAPE  H10R18185   4.943   3.451   7.156 -0.8941 -1.5326  0.5450
  162SAPE  H10S18186   5.101   3.510   7.127 -0.7145  0.9632 -2.6366
  162SAPE  C21118187   5.095   3.298   7.197 -0.7523 -0.2562 -1.0107
  162SAPE  H11R18188   5.158   3.230   7.138 -0.0387  0.7437 -1.4196
  162SAPE  C21218189   5.099   3.292   7.330  0.1287  0.2094  0.5306
  162SAPE  H12R18190   5.149   3.209   7.383 -3.7822 -2.8240  0.0053
  162SAPE  C21318191   5.047   3.393   7.432  0.1391  1.3075 -0.1158
  162SAPE  H13R18192   4.955   3.352   7.480 -1.4904  2.3973 -2.1152
  162SAPE  H13S18193   5.006   3.479   7.375  1.3657  1.9731 -0.0261
  162SAPE  C21418194   5.152   3.446   7.525 -0.1892 -0.1534  0.0538
  162SAPE  H14R18195   5.181   3.547   7.496 -0.3658  0.0375  0.5336
  162SAPE  C21518196   5.202   3.378   7.635 -0.4887  0.4759  0.2641
  162SAPE  H15R18197   5.284   3.426   7.691  1.9269 -2.8787 -0.1333
  162SAPE  C21618198   5.155   3.242   7.681 -0.0026  0.3543 -0.3174
  162SAPE  H16R18199   5.231   3.206   7.754  0.5098 -0.6243 -1.3025
  162SAPE  H16S18200   5.156   3.170   7.597 -0.8305 -1.3386  1.0542
  162SAPE  C21718201   5.025   3.222   7.757 -0.1523  0.1332  0.5388
  162SAPE  H17R18202   5.012   3.114   7.778  0.0931 -0.1028 -0.4987
  162SAPE  H17S18203   4.941   3.242   7.687  0.3999  0.8809  0.0686
  162SAPE  C21818204   5.008   3.298   7.896 -0.0299  0.0582 -0.2468
  162SAPE  H18R18205   5.078   3.251   7.969 -1.2101 -1.4545 -0.0235
  162SAPE  H18S18206   4.913   3.263   7.943  0.3825 -0.9679 -0.1296
  162SAPE  C21918207   5.025   3.446   7.904 -0.1540  0.0099  0.0732
  162SAPE  H19R18208   4.989   3.498   7.813  0.8355  0.5907 -0.0028
  162SAPE  H19S18209   5.129   3.472   7.936 -0.4024  0.7118  0.3450
  162SAPE  C22018210   4.941   3.509   8.011  0.8352  0.5290 -0.6395
  162SAPE  H20R18211   4.955   3.619   8.014  2.0716  0.4593 -2.2343
  162SAPE  H20S18212   4.965   3.476   8.114 -1.5305  0.6505  0.0155
  162SAPE  H20T18213   4.834   3.487   7.988  0.1766  2.2387  0.6233
  162SAPE   C3318214   6.009   3.541   6.534 -0.0510  0.1121 -0.1543
  162SAPE   H3X18215   5.914   3.585   6.496 -0.7580 -0.3431  1.0049
  162SAPE   H3Y18216   6.075   3.621   6.574  0.2456  0.3138 -1.0214
  162SAPE   C3418217   5.976   3.454   6.658 -0.3671  0.2039 -0.3646
  162SAPE   H4X18218   6.067   3.394   6.682 -1.3629 -0.8128  1.0473
  162SAPE   H4Y18219   5.900   3.382   6.621 -0.8740  1.5798 -2.1108
  162SAPE   C3518220   5.930   3.536   6.779 -0.6402  0.3980 -0.1479
  162SAPE   H5X18221   5.857   3.617   6.759 -0.3197  1.2122  1.7347
  162SAPE   H5Y18222   6.020   3.594   6.811  1.5199 -2.0821 -1.2927
  162SAPE   C3618223   5.884   3.453   6.902 -0.9903 -0.2354  0.1947
  162SAPE   H6X18224   5.782   3.430   6.864 -0.8798  1.1694 -1.0199
  162SAPE   H6Y18225   5.885   3.519   6.991  0.2800 -1.4252  1.0947
  162SAPE   C3718226   5.951   3.326   6.938 -0.2918 -0.2682 -0.1904
  162SAPE   H7X18227   5.949   3.266   6.845  1.5351 -1.1229  0.2747
  162SAPE   H7Y18228   5.901   3.276   7.023  1.7808  0.4675  1.5457
  162SAPE   C3818229   6.092   3.346   6.982 -0.1476  0.0658  0.4081
  162SAPE   H8X18230   6.143   3.407   6.904 -0.5855 -0.2003 -0.0997
  162SAPE   H8Y18231   6.148   3.250   6.978 -0.6833 -0.2275 -1.2522
  162SAPE   C3918232   6.101   3.398   7.126  0.0901 -0.0487 -0.8320
  162SAPE   H9X18233   6.037   3.329   7.185  1.3361 -0.2908  0.2601
  162SAPE   H9Y18234   6.052   3.496   7.142 -0.0652 -0.0719 -1.1512
  162SAPE  C31018235   6.239   3.392   7.193 -0.5152  0.5658 -0.0422
  162SAPE  H10X18236   6.299   3.482   7.167 -1.0729  0.7611 -0.6987
  162SAPE  H10Y18237   6.282   3.295   7.161 -0.7443  0.4724 -0.0719
  162SAPE  C31118238   6.229   3.377   7.342 -0.2740 -0.6027  0.2693
  162SAPE  H11X18239   6.169   3.289   7.375 -0.6295 -0.2993  0.4456
  162SAPE  H11Y18240   6.168   3.469   7.357  2.1762  1.5588 -2.0638
  162SAPE  C31218241   6.345   3.426   7.420  0.3887  0.1526 -0.2041
  162SAPE  H12X18242   6.395   3.509   7.367  0.9610  0.2990  0.5392
  162SAPE  H12Y18243   6.420   3.344   7.429 -0.7535 -0.7900  1.2964
  162SAPE  C31318244   6.294   3.469   7.559  0.2703  0.2041 -0.1856
  162SAPE  H13X18245   6.205   3.534   7.541  0.2929  0.0837 -0.7670
  162SAPE  H13Y18246   6.366   3.539   7.606  1.3340 -1.0880  0.1595
  162SAPE  C31418247   6.286   3.351   7.659 -0.0102  0.4960 -0.7984
  162SAPE  H14X18248   6.387   3.307   7.668 -0.0956  0.0236 -2.0402
  162SAPE  H14Y18249   6.217   3.273   7.621 -0.1204  0.3202 -0.2424
  162SAPE  C31518250   6.239   3.393   7.797  0.1099  1.0753  0.0379
  162SAPE  H15X18251   6.306   3.468   7.844 -0.3240 -0.0161  2.5287
  162SAPE  H15Y18252   6.246   3.303   7.861  1.0995  0.7246 -0.5504
  162SAPE  C31618253   6.095   3.448   7.788 -0.5217 -0.1385 -0.1097
  162SAPE  H16X18254   6.031   3.371   7.740 -0.3682 -0.3324 -0.0068
  162SAPE  H16Y18255   6.092   3.536   7.720  0.4857 -0.7528 -0.9804
  162SAPE  C31718256   6.042   3.485   7.925  0.5615  0.1088 -0.0617
  162SAPE  H17X18257   6.110   3.564   7.963  1.6069 -1.2148  0.9366
  162SAPE  H17Y18258   6.060   3.401   7.996  0.8146 -0.3291 -0.6358
  162SAPE  C31818259   5.893   3.522   7.936 -0.4084 -0.1265  0.3879
  162SAPE  H18X18260   5.879   3.626   7.899  0.3365 -0.4119 -0.7327
  162SAPE  H18Y18261   5.869   3.526   8.044  1.2481  1.9181  0.7569
  162SAPE  H18Z18262   5.831   3.446   7.885 -0.5844 -0.2444  0.7725
  163SAPE     N18263   2.420   1.446   6.392  0.3642 -0.1235 -0.1100
  163SAPE   HN118264   2.482   1.468   6.312 -1.6497  1.6165 -1.2777
  163SAPE   HN218265   2.323   1.421   6.363 -0.3593  0.8190  1.3540
  163SAPE   HN318266   2.407   1.542   6.429  0.0501 -0.8342  1.7774
  163SAPE   C1218267   2.480   1.368   6.505 -0.6246  0.3921  0.5153
  163SAPE  H12A18268   2.548   1.440   6.555  0.4477 -0.5067  0.3739
  163SAPE  H12B18269   2.533   1.279   6.465  0.3015 -0.0978  2.7101
  163SAPE   C1118270   2.376   1.327   6.612  0.0831 -0.2743  0.4582
  163SAPE  H11A18271   2.435   1.265   6.682  2.6240  0.6675 -0.6987
  163SAPE  H11B18272   2.294   1.268   6.567 -0.3180  0.7913 -0.2747
  163SAPE     P18273   2.195   1.435   6.771 -0.1429  0.3450 -0.4004
  163SAPE   O1318274   2.139   1.572   6.782 -0.2333 -0.4887 -0.4068
  163SAPE   O1418275   2.103   1.327   6.728  0.7449  0.1385  0.7538
  163SAPE   O1218276   2.316   1.442   6.667  0.0836 -0.2841 -0.4779
  163SAPE   O1118277   2.264   1.401   6.909  0.0090  0.6598  0.5114
  163SAPE    C118278   2.342   1.493   6.984  0.2390  0.3876  0.3425
  163SAPE    HA18279   2.309   1.598   6.970 -1.2960  0.4270  3.3819
  163SAPE    HB18280   2.323   1.473   7.091 -3.1478 -2.3463 -0.5886
  163SAPE    C218281   2.494   1.477   6.956 -0.1344 -0.2284 -0.2183
  163SAPE    HS18282   2.510   1.523   6.856 -2.5404  0.2933 -0.4206
  163SAPE   O2118283   2.521   1.333   6.957 -0.0061  0.3669 -0.3036
  163SAPE   C2118284   2.648   1.307   6.923  0.5296  0.0571 -0.0072
  163SAPE   O2218285   2.717   1.380   6.851 -0.5175 -0.3552 -0.2294
  163SAPE   C2218286   2.689   1.184   6.991  0.1235  0.1910 -0.4767
  163SAPE   H2R18287   2.701   1.208   7.098  1.8970 -0.5103 -0.4871
  163SAPE   H2S18288   2.608   1.108   6.982  0.6324 -0.3401 -0.6533
  163SAPE    C318289   2.586   1.558   7.056 -0.8705  0.6475  0.3244
  163SAPE    HX18290   2.691   1.535   7.025 -2.0596 -2.6840 -1.7575
  163SAPE    HY18291   2.564   1.507   7.152  0.1029 -3.8933 -1.6244
  163SAPE   O3118292   2.557   1.703   7.032  0.2790  0.1612  0.2735
  163SAPE   C3118293   2.484   1.751   7.133  0.3983  0.6071 -0.5027
  163SAPE   O3218294   2.452   1.677   7.228 -0.1522 -0.4201 -0.1185
  163SAPE   C3218295   2.454   1.900   7.123 -0.4594  0.2723 -0.0701
  163SAPE   H2X18296   2.359   1.914   7.067 -0.7527  0.5854  0.4901
  163SAPE   H2Y18297   2.534   1.958   7.073 -0.2308  0.5899  0.6457
  163SAPE   C2318298   2.816   1.114   6.942  0.2219  0.2665  0.0490
  163SAPE   H3R18299   2.891   1.194   6.924  1.3798 -0.3493  1.8922
  163SAPE   H3S18300   2.799   1.052   6.851  2.0580 -0.1217 -0.0658
  163SAPE   C2418301   2.871   1.016   7.048  0.1808  0.0253  0.1482
  163SAPE   H4R18302   2.915   1.069   7.134  1.0919 -0.3061 -0.0980
  163SAPE   H4S18303   2.962   0.976   6.998 -0.1633  0.7109 -1.0735
  163SAPE   C2518304   2.771   0.910   7.089  0.2133 -0.0121 -0.5087
  163SAPE   H5R18305   2.747   0.840   7.008  1.9714 -1.3169  0.0592
  163SAPE   C2618306   2.721   0.896   7.217  0.2422 -0.8640  0.3286
  163SAPE   H6R18307   2.653   0.810   7.227 -0.6264 -0.0828  1.4325
  163SAPE   C2718308   2.755   0.975   7.341  0.2069  0.4094 -0.5415
  163SAPE   H7R18309   2.855   1.017   7.318 -0.0207  0.9059 -0.6629
  163SAPE   H7S18310   2.746   0.892   7.413  2.3120  0.6850  0.0898
  163SAPE   C2818311   2.657   1.085   7.379 -0.8472  0.1888 -0.2084
  163SAPE   H8R18312   2.605   1.140   7.299 -0.1153  1.2808  0.0392
  163SAPE   C2918313   2.624   1.110   7.506 -0.3671 -0.7277  0.2046
  163SAPE   H9R18314   2.561   1.199   7.521 -0.7330 -1.0433  0.5534
  163SAPE  C21018315   2.669   1.034   7.631  0.4724 -0.5857  0.4152
  163SAPE  H10R18316   2.762   0.974   7.620  0.1796 -0.7787 -1.4353
  163SAPE  H10S18317   2.585   0.963   7.647  0.5732 -0.8027  0.0028
  163SAPE  C21118318   2.680   1.126   7.751  0.1278  0.0624 -0.3365
  163SAPE  H11R18319   2.721   1.228   7.744 -2.2498  1.0922 -0.3393
  163SAPE  C21218320   2.616   1.099   7.871  0.1356  0.4635  0.0674
  163SAPE  H12R18321   2.629   1.167   7.956 -2.2637  0.2912  0.6381
  163SAPE  C21318322   2.533   0.976   7.902  0.8654 -0.6565 -0.4480
  163SAPE  H13R18323   2.549   0.897   7.826 -3.5104 -0.7610 -1.5590
  163SAPE  H13S18324   2.423   0.987   7.885  0.4511 -2.9083  0.3820
  163SAPE  C21418325   2.580   0.921   8.032 -0.2353 -0.4274  0.2665
  163SAPE  H14R18326   2.690   0.925   8.040 -0.1327  0.9241 -1.3028
  163SAPE  C21518327   2.516   0.871   8.132 -0.3792  0.3914  1.0559
  163SAPE  H15R18328   2.578   0.831   8.214 -0.0359  1.7158  1.4561
  163SAPE  C21618329   2.368   0.846   8.152 -0.5740 -0.1751  0.0998
  163SAPE  H16R18330   2.346   0.767   8.227 -2.0452  0.0471 -0.0679
  163SAPE  H16S18331   2.319   0.828   8.054  0.9657  1.0743 -0.9446
  163SAPE  C21718332   2.299   0.975   8.211 -0.3986 -0.1145  0.6675
  163SAPE  H17R18333   2.335   1.057   8.145 -2.2809  0.2368  0.0238
  163SAPE  H17S18334   2.334   1.003   8.313  1.7355 -1.9738  0.5267
  163SAPE  C21818335   2.144   0.966   8.214  0.2736  0.1878  0.1911
  163SAPE  H18R18336   2.103   0.929   8.118 -0.3780 -2.2991  1.3381
  163SAPE  H18S18337   2.110   1.072   8.221  3.3102  1.3846 -1.1549
  163SAPE  C21918338   2.106   0.876   8.331 -0.0784 -0.5068 -0.4937
  163SAPE  H19R18339   2.172   0.787   8.331  4.9769  2.7976  2.0208
  163SAPE  H19S18340   2.000   0.841   8.326 -0.4517  0.5823 -0.5528
  163SAPE  C22018341   2.127   0.935   8.469  0.4558  0.0449 -0.6720
  163SAPE  H20R18342   2.107   0.872   8.558  2.5899 -0.2066 -0.3164
  163SAPE  H20S18343   2.073   1.032   8.469  2.7812  1.4922  2.5008
  163SAPE  H20T18344   2.232   0.969   8.482  0.9607 -1.4310 -0.6660
  163SAPE   C3318345   2.442   1.970   7.258  0.0270  0.4738 -0.2531
  163SAPE   H3X18346   2.379   1.910   7.326  1.1969 -1.3023 -0.6746
  163SAPE   H3Y18347   2.389   2.067   7.242  0.5044  1.0668  1.4868
  163SAPE   C3418348   2.584   1.996   7.326 -0.4844 -0.0340  0.1157
  163SAPE   H4X18349   2.651   2.059   7.262 -0.8634  1.4373  1.1147
  163SAPE   H4Y18350   2.632   1.896   7.330  2.5659  1.3076  0.3183
  163SAPE   C3518351   2.574   2.068   7.456  0.6730  0.0758  0.0538
  163SAPE   H5X18352   2.487   2.137   7.456  1.2559  0.8312 -0.0353
  163SAPE   H5Y18353   2.670   2.123   7.469 -0.1120  2.1142 -1.9610
  163SAPE   C3618354   2.556   1.973   7.577 -0.5401 -0.2202  0.1652
  163SAPE   H6X18355   2.635   1.896   7.563 -0.6647 -0.1936 -0.6973
  163SAPE   H6Y18356   2.455   1.929   7.567 -0.7206  0.4006 -0.8579
  163SAPE   C3718357   2.576   2.048   7.718  0.4175 -0.4053  0.0792
  163SAPE   H7X18358   2.521   2.144   7.725  0.1976 -0.4997 -0.2966
  163SAPE   H7Y18359   2.683   2.074   7.735  0.9620 -0.0599 -3.2024
  163SAPE   C3818360   2.531   1.948   7.828  0.2538 -0.3018  0.0727
  163SAPE   H8X18361   2.591   1.855   7.812 -0.1475 -0.4218 -0.8062
  163SAPE   H8Y18362   2.421   1.937   7.816  0.1564 -0.0058  0.6699
  163SAPE   C3918363   2.548   2.007   7.974  0.3495 -0.4335  0.2304
  163SAPE   H9X18364   2.462   2.055   8.027 -0.3675 -0.4807 -0.8582
  163SAPE   H9Y18365   2.619   2.092   7.964 -0.1674  0.3465  2.4259
  163SAPE  C31018366   2.612   1.900   8.065 -0.0532  0.1336 -0.1171
  163SAPE  H10X18367   2.700   1.854   8.014 -0.1128 -0.3267  0.1926
  163SAPE  H10Y18368   2.540   1.816   8.068  1.2765 -1.1299 -1.7468
  163SAPE  C31118369   2.638   1.948   8.212 -0.5049  0.6108 -0.4552
  163SAPE  H11X18370   2.552   1.995   8.265  1.3546  2.5880  0.9758
  163SAPE  H11Y18371   2.705   2.036   8.203  0.5244  0.3779  3.2099
  163SAPE  C31218372   2.712   1.851   8.297 -0.1420  0.4790 -0.0970
  163SAPE  H12X18373   2.813   1.829   8.256  0.3653  1.2883  0.6724
  163SAPE  H12Y18374   2.664   1.755   8.325 -0.2506  0.9870  1.5728
  163SAPE  C31318375   2.743   1.907   8.440  0.1067  0.3889 -0.5007
  163SAPE  H13X18376   2.652   1.910   8.503  0.7825 -1.0160  0.6138
  163SAPE  H13Y18377   2.783   2.010   8.434 -0.2409  0.5464 -0.1333
  163SAPE  C31418378   2.838   1.815   8.521 -0.2880 -0.1725  0.3315
  163SAPE  H14X18379   2.864   1.870   8.614  1.9005 -1.3715  0.4902
  163SAPE  H14Y18380   2.936   1.801   8.470  0.8336  0.8054  2.0993
  163SAPE  C31518381   2.794   1.682   8.559 -0.2417  0.0718 -0.4308
  163SAPE  H15X18382   2.865   1.630   8.628 -0.9531  0.1251  0.3651
  163SAPE  H15Y18383   2.778   1.623   8.467  0.2978  0.1362 -0.5717
  163SAPE  C31618384   2.663   1.679   8.642 -0.2237  0.2423  0.3369
  163SAPE  H16X18385   2.582   1.716   8.575 -0.4177 -3.3022 -1.6536
  163SAPE  H16Y18386   2.677   1.749   8.727 -3.0446  0.0376  1.0954
  163SAPE  C31718387   2.625   1.543   8.690 -0.0289 -0.3930 -0.9741
  163SAPE  H17X18388   2.717   1.499   8.734  0.2486  1.6104  0.5882
  163SAPE  H17Y18389   2.593   1.483   8.603 -0.7934 -0.0894 -0.9124
  163SAPE  C31818390   2.510   1.548   8.796  0.0199  0.1863 -0.0892
  163SAPE  H18X18391   2.560   1.572   8.892  0.3966 -0.6109 -0.0806
  163SAPE  H18Y18392   2.474   1.443   8.799 -2.6046  0.9414 -1.7975
  163SAPE  H18Z18393   2.416   1.606   8.782 -2.0448 -2.7239  0.9774
  164SAPE     N18394   0.482   5.620   5.970 -0.6744  0.3344 -0.2287
  164SAPE   HN118395   0.486   5.580   5.874 -0.1783  0.2745 -0.1869
  164SAPE   HN218396   0.506   5.546   6.040 -1.4603 -1.3770 -1.6768
  164SAPE   HN318397   0.382   5.641   5.984 -0.6226  0.2210  0.3544
  164SAPE   C1218398   0.540   5.754   5.973 -0.5564  0.9308  0.0681
  164SAPE  H12A18399   0.517   5.809   5.880 -0.6223  3.1885  1.3384
  164SAPE  H12B18400   0.650   5.747   5.983 -0.4005  2.7133 -0.0361
  164SAPE   C1118401   0.477   5.839   6.090 -0.0620 -0.7120 -0.0338
  164SAPE  H11A18402   0.538   5.930   6.103  0.4178 -1.1590  0.8969
  164SAPE  H11B18403   0.473   5.781   6.185 -1.2715  0.6773  0.8038
  164SAPE     P18404   0.287   5.997   5.994 -0.0219  0.0145 -0.3403
  164SAPE   O1318405   0.365   6.035   5.872  0.4837 -0.9766 -0.5493
  164SAPE   O1418406   0.145   5.990   5.988 -0.4873  0.8829  0.7017
  164SAPE   O1218407   0.340   5.860   6.049  0.5482 -0.0430 -0.3987
  164SAPE   O1118408   0.324   6.083   6.123  0.3045 -0.1095  0.4165
  164SAPE    C118409   0.243   6.045   6.236 -0.2967  0.0654 -0.2051
  164SAPE    HA18410   0.144   6.096   6.237 -0.6132 -0.5467 -0.3976
  164SAPE    HB18411   0.209   5.941   6.249 -3.4778  0.9690 -0.5133
  164SAPE    C218412   0.309   6.079   6.374 -0.1483  0.8900  0.4984
  164SAPE    HS18413   0.331   6.188   6.377  3.2123  0.3192  1.2136
  164SAPE   O2118414   0.439   6.005   6.368 -0.0579 -0.5117 -0.4815
  164SAPE   C2118415   0.534   6.065   6.445  0.0865 -0.4262 -0.3128
  164SAPE   O2218416   0.515   6.163   6.513  0.2038  0.1214 -0.1582
  164SAPE   C2218417   0.666   6.001   6.405 -0.3936  0.0314  1.0862
  164SAPE   H2R18418   0.668   5.890   6.401  2.3784  0.0342  0.3060
  164SAPE   H2S18419   0.695   6.035   6.304  2.4573 -1.5500  1.2618
  164SAPE    C318420   0.212   6.031   6.487 -0.4621 -0.3476 -0.4003
  164SAPE    HX18421   0.170   5.932   6.457  1.1121 -1.3834  0.6297
  164SAPE    HY18422   0.141   6.115   6.504  0.2041 -0.1663  1.7281
  164SAPE   O3118423   0.274   6.016   6.622  0.2735  0.3840  0.0796
  164SAPE   C3118424   0.307   5.895   6.666  0.2024  0.3092  0.0881
  164SAPE   O3218425   0.273   5.787   6.619  0.4994  0.4456  0.6152
  164SAPE   C3218426   0.375   5.915   6.802  0.0245 -0.2949  0.7667
  164SAPE   H2X18427   0.326   6.006   6.842 -1.1159 -0.4715 -0.1675
  164SAPE   H2Y18428   0.486   5.926   6.797 -0.2373  3.5143 -0.3430
  164SAPE   C2318429   0.782   6.019   6.506  0.5360  0.4906  1.1644
  164SAPE   H3R18430   0.793   6.127   6.531 -0.6435  1.0736 -0.6682
  164SAPE   H3S18431   0.879   5.984   6.464 -0.0653 -0.2355  0.3618
  164SAPE   C2418432   0.755   5.921   6.627 -0.7009 -0.1882  0.3097
  164SAPE   H4R18433   0.728   5.820   6.589 -1.6722 -0.5896  1.9944
  164SAPE   H4S18434   0.669   5.952   6.689 -1.0598  0.6635 -0.5760
  164SAPE   C2518435   0.887   5.903   6.706  0.6041 -0.1877 -0.4620
  164SAPE   H5R18436   0.985   5.899   6.656  0.5229 -0.0668 -0.6300
  164SAPE   C2618437   0.902   5.901   6.841 -0.1887 -0.3041 -0.3127
  164SAPE   H6R18438   0.998   5.876   6.887 -0.1100  1.5483  0.6008
  164SAPE   C2718439   0.786   5.902   6.938 -0.7625 -0.3005  0.4616
  164SAPE   H7R18440   0.690   5.883   6.887 -1.0201  0.7198  0.5576
  164SAPE   H7S18441   0.775   6.001   6.986  0.2927 -0.3004  0.7406
  164SAPE   C2818442   0.814   5.795   7.039  0.1877  0.1559 -0.1164
  164SAPE   H8R18443   0.792   5.694   7.001 -0.9892 -0.0694  1.0970
  164SAPE   C2918444   0.847   5.805   7.168  0.0987  0.8816  0.0822
  164SAPE   H9R18445   0.835   5.713   7.226 -1.5233 -0.6158 -2.4631
  164SAPE  C21018446   0.885   5.928   7.242 -0.2981  0.3670  0.3685
  164SAPE  H10R18447   0.788   5.962   7.284 -1.2106 -1.9848  0.3218
  164SAPE  H10S18448   0.911   6.009   7.170 -0.8622  0.7776  0.6207
  164SAPE  C21118449   0.993   5.897   7.339  0.2437 -0.2745  0.5925
  164SAPE  H11R18450   1.093   5.888   7.295 -0.1087 -0.2214 -0.2368
  164SAPE  C21218451   0.990   5.879   7.471  0.2854 -0.9918  0.3492
  164SAPE  H12R18452   1.080   5.870   7.533  0.0355  2.0915  1.3479
  164SAPE  C21318453   0.874   5.883   7.563  0.2181 -0.1372 -0.0932
  164SAPE  H13R18454   0.800   5.953   7.521 -0.6348 -2.6816 -3.2879
  164SAPE  H13S18455   0.904   5.930   7.659  0.8292 -0.2981 -0.2018
  164SAPE  C21418456   0.799   5.751   7.578 -0.4127  0.5044  0.4408
  164SAPE  H14R18457   0.797   5.680   7.494 -0.5199 -0.7504  1.4660
  164SAPE  C21518458   0.757   5.696   7.692 -0.0743  0.1222  0.0635
  164SAPE  H15R18459   0.697   5.605   7.679 -1.3137  1.1108 -1.4832
  164SAPE  C21618460   0.764   5.764   7.822 -1.3301  0.7894  0.5603
  164SAPE  H16R18461   0.818   5.861   7.820 -1.5953  0.9486  0.8905
  164SAPE  H16S18462   0.829   5.710   7.894  0.5078  2.1730  0.0147
  164SAPE  C21718463   0.625   5.775   7.879 -0.0345 -0.7666  0.3682
  164SAPE  H17R18464   0.621   5.830   7.976 -2.2996  0.6246 -0.4296
  164SAPE  H17S18465   0.587   5.676   7.912  1.6331 -0.3184  4.1276
  164SAPE  C21818466   0.519   5.832   7.784  0.6139  0.0948  0.2353
  164SAPE  H18R18467   0.417   5.842   7.829  0.5216 -1.5598  0.4621
  164SAPE  H18S18468   0.507   5.765   7.696  1.5658 -0.6157  0.6321
  164SAPE  C21918469   0.549   5.978   7.734  0.3011 -0.3935 -0.0588
  164SAPE  H19R18470   0.639   5.958   7.672  0.6645 -3.4191  1.2821
  164SAPE  H19S18471   0.580   6.045   7.817  2.2406  0.0682 -1.0954
  164SAPE  C22018472   0.442   6.042   7.644 -0.3045 -0.2764 -0.1983
  164SAPE  H20R18473   0.480   6.129   7.584  1.2066 -1.2568 -0.7329
  164SAPE  H20S18474   0.345   6.074   7.687 -1.1087 -0.2708 -1.8971
  164SAPE  H20T18475   0.409   5.963   7.573  1.8475 -0.0950 -1.5063
  164SAPE   C3318476   0.351   5.804   6.911 -0.3618  0.0648  0.1585
  164SAPE   H3X18477   0.399   5.712   6.873  0.7419 -0.0131  1.6805
  164SAPE   H3Y18478   0.240   5.794   6.905 -0.4022 -0.9638  1.8989
  164SAPE   C3418479   0.382   5.831   7.058  0.0588 -0.6279  0.3435
  164SAPE   H4X18480   0.314   5.906   7.103  1.1727 -0.0495  1.1251
  164SAPE   H4Y18481   0.477   5.887   7.075  0.0915 -0.6658  0.2870
  164SAPE   C3518482   0.370   5.705   7.138  0.9395  0.3019 -0.8147
  164SAPE   H5X18483   0.415   5.736   7.235 -0.5079  2.1741 -0.6818
  164SAPE   H5Y18484   0.425   5.620   7.093  0.2816 -0.4085 -0.3215
  164SAPE   C3618485   0.225   5.641   7.166 -0.0127 -0.8757 -0.3633
  164SAPE   H6X18486   0.202   5.595   7.067 -0.6961  1.6469 -1.4764
  164SAPE   H6Y18487   0.152   5.724   7.181  0.0952 -0.9700  0.7086
  164SAPE   C3718488   0.220   5.532   7.266 -0.3799 -0.3950 -0.5188
  164SAPE   H7X18489   0.295   5.454   7.239  0.1947 -0.3336  0.8024
  164SAPE   H7Y18490   0.126   5.473   7.276  0.0716 -1.0428  0.0343
  164SAPE   C3818491   0.250   5.567   7.415 -0.4562  0.0921 -0.0726
  164SAPE   H8X18492   0.359   5.590   7.415 -0.3209 -0.3806  2.0491
  164SAPE   H8Y18493   0.244   5.472   7.472  0.5877  0.0114 -0.0748
  164SAPE   C3918494   0.158   5.671   7.477  0.6042  0.0346  0.0976
  164SAPE   H9X18495   0.058   5.624   7.490  1.5748 -1.4265  2.9879
  164SAPE   H9Y18496   0.146   5.754   7.403  0.8264  0.6659  0.7628
  164SAPE  C31018497   0.219   5.727   7.610  0.0314  0.1273 -0.4976
  164SAPE  H10X18498   0.322   5.753   7.578 -0.3096  1.0535 -0.8568
  164SAPE  H10Y18499   0.222   5.645   7.686 -1.3305  0.1016 -0.4457
  164SAPE  C31118500   0.158   5.854   7.663  0.6595 -0.4677  0.4500
  164SAPE  H11X18501   0.113   5.914   7.581  0.0116 -0.2736  0.9304
  164SAPE  H11Y18502   0.232   5.913   7.721  0.3820  0.8396 -0.4694
  164SAPE  C31218503   0.035   5.839   7.755 -0.0237  0.3353 -0.0347
  164SAPE  H12X18504  -0.030   5.752   7.730 -1.0235  1.2567 -0.7589
  164SAPE  H12Y18505  -0.033   5.927   7.748  0.1468  0.3584 -2.0526
  164SAPE  C31318506   0.078   5.843   7.905 -0.2497  0.1852 -0.8140
  164SAPE  H13X18507  -0.008   5.883   7.961 -1.9943 -1.3803 -2.2198
  164SAPE  H13Y18508   0.157   5.918   7.923  1.8783 -2.1034  0.0622
  164SAPE  C31418509   0.120   5.715   7.964 -0.5981  0.0818 -0.2240
  164SAPE  H14X18510   0.211   5.674   7.915  0.0566  1.6545 -0.3966
  164SAPE  H14Y18511   0.038   5.641   7.965  0.3813 -1.1068  2.5441
  164SAPE  C31518512   0.155   5.729   8.117  0.8010 -0.4324 -0.1318
  164SAPE  H15X18513   0.111   5.644   8.172  0.7011  1.0070  2.1249
  164SAPE  H15Y18514   0.111   5.822   8.159 -2.0428 -0.3561 -2.8567
  164SAPE  C31618515   0.304   5.722   8.155 -0.5204  0.1781  0.1100
  164SAPE  H16X18516   0.352   5.806   8.101  1.0495  0.5723  2.0143
  164SAPE  H16Y18517   0.350   5.627   8.122  0.0178 -0.3223  2.1598
  164SAPE  C31718518   0.326   5.722   8.304 -0.1604  0.6673 -0.2094
  164SAPE  H17X18519   0.288   5.625   8.344  0.2747  0.5942  0.0318
  164SAPE  H17Y18520   0.261   5.801   8.347 -2.4938 -0.8789 -0.6965
  164SAPE  C31818521   0.470   5.732   8.346 -0.3993  0.5204  0.3881
  164SAPE  H18X18522   0.467   5.750   8.455  1.2003  1.6793  0.2745
  164SAPE  H18Y18523   0.527   5.810   8.291  1.3216 -0.8108  0.2075
  164SAPE  H18Z18524   0.531   5.642   8.323  0.1359  1.0059 -0.1044
  165SAPE     N18525   5.131   2.807   6.053  0.0047 -0.4082 -0.6197
  165SAPE   HN118526   5.047   2.777   6.000  0.4811 -0.7999 -1.1662
  165SAPE   HN218527   5.124   2.766   6.148  0.4181  1.7811  0.4017
  165SAPE   HN318528   5.134   2.907   6.081  0.3709 -0.1011 -1.7097
  165SAPE   C1218529   5.259   2.775   5.983  0.1755  0.0179 -0.1815
  165SAPE  H12A18530   5.244   2.802   5.876 -0.7727 -1.3466 -0.4211
  165SAPE  H12B18531   5.270   2.664   5.984 -1.8783 -0.2428 -1.2498
  165SAPE   C1118532   5.380   2.840   6.044  0.2709  1.3100 -0.1343
  165SAPE  H11A18533   5.360   2.949   6.051 -0.6637  1.4294 -3.0438
  165SAPE  H11B18534   5.467   2.832   5.975  0.5463 -0.7055  0.3770
  165SAPE     P18535   5.470   2.856   6.298 -0.1515  0.1714 -0.3063
  165SAPE   O1318536   5.615   2.891   6.292  0.3415 -0.0731 -0.4162
  165SAPE   O1418537   5.375   2.964   6.329  0.2478  0.0277  0.1972
  165SAPE   O1218538   5.418   2.779   6.170 -1.0230  0.1011  0.2405
  165SAPE   O1118539   5.460   2.753   6.413  0.2512 -0.3287  0.3153
  165SAPE    C118540   5.336   2.689   6.444 -0.3354 -0.1447  0.1651
  165SAPE    HA18541   5.258   2.714   6.368  0.3032  1.2350 -0.0604
  165SAPE    HB18542   5.348   2.579   6.444 -0.9322 -0.2203 -0.3775
  165SAPE    C218543   5.280   2.739   6.584 -0.3298 -0.0827 -0.0028
  165SAPE    HS18544   5.292   2.849   6.591  0.2648 -0.1843  0.7381
  165SAPE   O2118545   5.356   2.684   6.690  0.2370 -0.4654 -0.2183
  165SAPE   C2118546   5.465   2.740   6.728  0.9335 -0.1197  0.1003
  165SAPE   O2218547   5.491   2.858   6.712 -0.3316 -0.1091  0.5903
  165SAPE   C2218548   5.561   2.638   6.783 -0.3417 -0.4422  0.1831
  165SAPE   H2R18549   5.514   2.538   6.774 -2.1435  0.2929  0.8786
  165SAPE   H2S18550   5.657   2.656   6.730 -1.3022  1.5483 -1.0224
  165SAPE    C318551   5.133   2.702   6.599 -0.3683  0.0102 -0.5946
  165SAPE    HX18552   5.126   2.592   6.590 -3.0172  0.1358 -0.7900
  165SAPE    HY18553   5.077   2.731   6.508  0.8738  1.2713 -1.0101
  165SAPE   O3118554   5.070   2.750   6.714  0.9563 -0.3315 -1.3527
  165SAPE   C3118555   5.026   2.879   6.695  0.5271  0.4707  0.3506
  165SAPE   O3218556   5.039   2.941   6.595  0.0378  0.1861  0.5488
  165SAPE   C3218557   4.964   2.936   6.825 -0.1540 -0.3519 -0.1141
  165SAPE   H2X18558   4.959   2.863   6.909  2.7345  0.3863  0.8344
  165SAPE   H2Y18559   4.863   2.972   6.797 -0.7019  0.5990  2.7121
  165SAPE   C2318560   5.587   2.656   6.935 -0.7223 -0.3375 -0.1379
  165SAPE   H3R18561   5.494   2.637   6.992 -0.0457 -0.3287  0.9987
  165SAPE   H3S18562   5.632   2.756   6.950  0.5702 -1.0080  0.6856
  165SAPE   C2418563   5.682   2.543   6.988 -0.0555 -0.1103  0.1708
  165SAPE   H4R18564   5.712   2.585   7.087  2.1263 -1.1251 -0.0096
  165SAPE   H4S18565   5.776   2.536   6.930  0.4221  1.6712  0.6649
  165SAPE   C2518566   5.617   2.410   6.997  0.3574  0.0816  0.4927
  165SAPE   H5R18567   5.627   2.360   6.899 -1.5027 -0.5705  0.5928
  165SAPE   C2618568   5.561   2.346   7.097 -0.3360 -0.1511 -0.7471
  165SAPE   H6R18569   5.528   2.242   7.082  0.7022 -0.6382  0.2123
  165SAPE   C2718570   5.538   2.413   7.227 -0.9901  0.1521  0.3282
  165SAPE   H7R18571   5.454   2.366   7.283  1.1620 -1.8222  2.1312
  165SAPE   H7S18572   5.518   2.522   7.217 -0.3943  0.6601  3.5717
  165SAPE   C2818573   5.659   2.404   7.317 -0.4172  0.2031  0.1840
  165SAPE   H8R18574   5.751   2.421   7.259 -1.3883  0.2223 -1.4084
  165SAPE   C2918575   5.666   2.389   7.445 -0.5060  0.0594 -0.3331
  165SAPE   H9R18576   5.769   2.385   7.484 -0.9074  1.8838  1.0349
  165SAPE  C21018577   5.549   2.388   7.540 -0.5956  0.4421  0.0456
  165SAPE  H10R18578   5.495   2.292   7.534 -2.3644  1.3001  1.2612
  165SAPE  H10S18579   5.470   2.454   7.498  0.5833  0.8254 -1.6592
  165SAPE  C21118580   5.577   2.431   7.679  0.6085  0.3386 -0.3789
  165SAPE  H11R18581   5.665   2.497   7.679 -2.3375  4.6035 -0.5760
  165SAPE  C21218582   5.503   2.396   7.786 -0.1082 -0.3794 -0.6548
  165SAPE  H12R18583   5.541   2.432   7.883 -2.9344  0.7432  0.1304
  165SAPE  C21318584   5.388   2.295   7.800  0.1283  0.1073 -0.7067
  165SAPE  H13R18585   5.359   2.257   7.699  0.0861 -2.7523  0.2951
  165SAPE  H13S18586   5.295   2.344   7.835  0.2505 -0.2165  0.0943
  165SAPE  C21418587   5.405   2.182   7.891 -0.0204 -0.3824 -0.1280
  165SAPE  H14R18588   5.457   2.094   7.850  0.5078 -1.6205  2.9338
  165SAPE  C21518589   5.382   2.176   8.022 -0.0693  0.7309  0.3288
  165SAPE  H15R18590   5.423   2.088   8.075 -1.2195 -1.4081 -2.1059
  165SAPE  C21618591   5.322   2.277   8.112 -0.0409 -0.9165 -0.2795
  165SAPE  H16R18592   5.215   2.249   8.125 -0.7728  1.8120  0.1119
  165SAPE  H16S18593   5.314   2.384   8.084 -2.7434 -1.1565 -0.7746
  165SAPE  C21718594   5.360   2.264   8.261 -1.1913  0.0416 -0.1893
  165SAPE  H17R18595   5.470   2.266   8.275 -1.4274  1.3790  1.9343
  165SAPE  H17S18596   5.322   2.175   8.316  0.3730 -0.3471  0.3137
  165SAPE  C21818597   5.311   2.392   8.338  0.1586  0.6826  0.1599
  165SAPE  H18R18598   5.201   2.403   8.332  0.1681  0.3088 -0.7684
  165SAPE  H18S18599   5.353   2.483   8.289 -1.4603  0.6018 -1.4754
  165SAPE  C21918600   5.356   2.380   8.485 -0.0713 -0.4118  0.6311
  165SAPE  H19R18601   5.466   2.369   8.479  0.0120 -0.1412  1.5459
  165SAPE  H19S18602   5.301   2.292   8.525 -2.0873  0.6294  0.3088
  165SAPE  C22018603   5.323   2.518   8.553  0.2032  0.2260 -0.0306
  165SAPE  H20R18604   5.216   2.546   8.544  0.3554  1.5347  1.6806
  165SAPE  H20S18605   5.382   2.606   8.519  0.2651 -0.1640 -0.9760
  165SAPE  H20T18606   5.338   2.509   8.662 -1.4619 -0.4551  0.1779
  165SAPE   C3318607   5.049   3.052   6.890  0.1825 -0.8730 -0.9700
  165SAPE   H3X18608   4.994   3.120   6.959  3.6377  0.2311  0.9736
  165SAPE   H3Y18609   5.089   3.116   6.809  0.1429  1.6919  0.9224
  165SAPE   C3418610   5.179   2.994   6.964 -0.1795  0.0249  0.4148
  165SAPE   H4X18611   5.247   3.081   6.976 -1.0947  0.8096  0.0892
  165SAPE   H4Y18612   5.219   2.905   6.912 -0.0024  0.1804  0.2845
  165SAPE   C3518613   5.142   2.951   7.108  0.5261 -0.1905  0.3110
  165SAPE   H5X18614   5.081   2.859   7.097  1.1031 -0.5368 -0.0675
  165SAPE   H5Y18615   5.084   3.031   7.158  1.8218 -0.1879  1.8960
  165SAPE   C3618616   5.268   2.912   7.189  0.7136 -0.1335  0.1727
  165SAPE   H6X18617   5.324   3.007   7.201  0.6115  0.0284 -0.5883
  165SAPE   H6Y18618   5.341   2.851   7.132 -0.6697  0.0957 -1.9161
  165SAPE   C3718619   5.243   2.849   7.325  0.2022  0.1961 -0.1614
  165SAPE   H7X18620   5.249   2.739   7.314 -3.4247 -0.0411 -1.1788
  165SAPE   H7Y18621   5.141   2.877   7.361 -0.0888 -2.0009  0.8442
  165SAPE   C3818622   5.348   2.894   7.425 -0.5289 -0.0534  0.1750
  165SAPE   H8X18623   5.318   2.861   7.526  1.9148 -2.0920  0.3374
  165SAPE   H8Y18624   5.354   3.005   7.433 -2.4278  0.0395  0.6996
  165SAPE   C3918625   5.482   2.822   7.400 -0.1761 -0.0189  0.0939
  165SAPE   H9X18626   5.546   2.880   7.330 -1.3980  0.0642 -0.9831
  165SAPE   H9Y18627   5.467   2.724   7.351 -1.6012 -1.2550  2.7776
  165SAPE  C31018628   5.555   2.791   7.532  0.2613 -0.2411  0.2669
  165SAPE  H10X18629   5.642   2.727   7.504  0.1847  0.8141 -2.7438
  165SAPE  H10Y18630   5.495   2.725   7.598 -0.8050  0.5350  0.1057
  165SAPE  C31118631   5.619   2.914   7.601  0.1078  0.6767  0.6844
  165SAPE  H11X18632   5.544   2.989   7.633 -0.6234  0.1650  0.2055
  165SAPE  H11Y18633   5.703   2.953   7.539  2.7616 -1.9389  2.3473
  165SAPE  C31218634   5.689   2.865   7.728  0.3320 -0.3066  0.6250
  165SAPE  H12X18635   5.768   2.789   7.705 -1.0826 -2.3881  2.2601
  165SAPE  H12Y18636   5.621   2.817   7.801  0.2025 -0.1181  0.6270
  165SAPE  C31318637   5.750   2.992   7.800 -0.4599 -0.6576  0.4670
  165SAPE  H13X18638   5.678   3.077   7.803 -1.6070 -1.6126  1.4200
  165SAPE  H13Y18639   5.830   3.030   7.734 -1.9101  0.2991 -0.8246
  165SAPE  C31418640   5.818   2.956   7.929 -0.5377 -0.2302 -0.1977
  165SAPE  H14X18641   5.894   2.876   7.918 -1.6397 -1.4929  0.9538
  165SAPE  H14Y18642   5.747   2.919   8.007  1.1301 -0.3623  1.3211
  165SAPE  C31518643   5.896   3.061   8.004  0.1109  0.3499 -0.0632
  165SAPE  H15X18644   5.830   3.149   8.023  0.0287  0.5752 -1.3049
  165SAPE  H15Y18645   5.979   3.103   7.944  0.6390  1.6552  1.4904
  165SAPE  C31618646   5.945   3.009   8.141 -0.6518 -0.6168 -0.1751
  165SAPE  H16X18647   6.004   2.917   8.123  1.4571  0.6418 -0.0906
  165SAPE  H16Y18648   5.856   2.969   8.194  0.4735 -0.4209  2.0034
  165SAPE  C31718649   6.029   3.114   8.222 -0.9614  0.2227  0.4783
  165SAPE  H17X18650   6.034   3.076   8.327  0.5762  0.7960  0.6341
  165SAPE  H17Y18651   5.980   3.213   8.225  0.9767  1.2175  2.0207
  165SAPE  C31818652   6.173   3.146   8.166 -0.0552 -0.2756 -0.4592
  165SAPE  H18X18653   6.160   3.160   8.057 -0.0051 -0.2903 -0.4671
  165SAPE  H18Y18654   6.241   3.061   8.188 -0.0721 -0.5527 -1.4241
  165SAPE  H18Z18655   6.206   3.241   8.213  2.2185 -0.5680 -1.3595
  166SAPE     N18656   6.731   4.457   6.049 -0.0323 -0.5405  0.6924
  166SAPE   HN118657   6.831   4.487   6.057 -0.3354  2.0352 -2.7875
  166SAPE   HN218658   6.692   4.481   6.142  0.3714 -0.7587  0.9214
  166SAPE   HN318659   6.734   4.354   6.044  0.7020 -0.4587 -2.1189
  166SAPE   C1218660   6.668   4.520   5.923 -0.1107 -0.4593  0.6973
  166SAPE  H12A18661   6.575   4.463   5.901  0.2592 -1.1058  0.7673
  166SAPE  H12B18662   6.745   4.506   5.845 -1.1391 -1.4417 -0.1886
  166SAPE   C1118663   6.647   4.678   5.930 -0.4430 -0.1480 -0.3440
  166SAPE  H11A18664   6.570   4.696   6.008  1.3420  0.3356  1.3993
  166SAPE  H11B18665   6.608   4.710   5.831 -0.5039  1.5082  0.1977
  166SAPE     P18666   6.784   4.898   5.983 -0.3095 -0.1269  0.3566
  166SAPE   O1318667   6.926   4.936   5.978  0.1896  0.1323  0.0553
  166SAPE   O1418668   6.684   4.979   5.912  0.0613 -0.5400  0.0661
  166SAPE   O1218669   6.772   4.745   5.953 -0.0201  0.1949 -0.2816
  166SAPE   O1118670   6.740   4.905   6.141 -0.0527 -0.3365 -0.9493
  166SAPE    C118671   6.803   4.802   6.223  0.4559 -0.1400 -0.2141
  166SAPE    HA18672   6.745   4.709   6.205 -0.0268 -0.0758  0.9018
  166SAPE    HB18673   6.907   4.776   6.193  1.3372  0.1671  2.2888
  166SAPE    C218674   6.794   4.828   6.372  0.0322 -0.3210 -0.1579
  166SAPE    HS18675   6.686   4.838   6.399 -0.3621 -0.4572 -1.6066
  166SAPE   O2118676   6.874   4.942   6.407 -0.0747  0.3977  0.5419
  166SAPE   C2118677   6.840   4.997   6.522 -0.2861  0.3787 -0.2886
  166SAPE   O2218678   6.743   4.958   6.591  0.0238 -0.4121 -0.4371
  166SAPE   C2218679   6.928   5.110   6.552  0.5520 -0.2161  0.5776
  166SAPE   H2R18680   7.035   5.078   6.548  0.3389 -0.8589 -0.4385
  166SAPE   H2S18681   6.908   5.177   6.466 -0.7982 -2.4603 -0.9510
  166SAPE    C318682   6.841   4.697   6.455 -0.4505 -0.5540 -0.5876
  166SAPE    HX18683   6.947   4.679   6.425  0.8098  3.5709  0.7020
  166SAPE    HY18684   6.776   4.613   6.423 -0.6274  0.2308 -2.4162
  166SAPE   O3118685   6.829   4.708   6.597  0.3383 -0.3987 -0.1866
  166SAPE   C3118686   6.901   4.617   6.658  0.3391  1.2094  0.2176
  166SAPE   O3218687   6.929   4.510   6.610 -0.1405  0.2075  0.3552
  166SAPE   C3218688   6.943   4.671   6.791  0.0611 -0.1548  0.4526
  166SAPE   H2X18689   6.850   4.679   6.851 -1.8111  2.1389 -2.4562
  166SAPE   H2Y18690   6.975   4.776   6.774 -0.5645  0.1210  0.9498
  166SAPE   C2318691   6.903   5.166   6.696  0.4341  0.1634 -0.2864
  166SAPE   H3R18692   6.934   5.091   6.771 -3.1742 -0.6568  0.5436
  166SAPE   H3S18693   6.796   5.182   6.719  0.4058 -0.4433  0.0178
  166SAPE   C2418694   6.969   5.302   6.728  0.1132  0.0983  0.6579
  166SAPE   H4R18695   6.960   5.364   6.637 -1.1988  1.0810  1.4261
  166SAPE   H4S18696   7.077   5.277   6.742 -0.1172 -1.2813  0.1846
  166SAPE   C2518697   6.917   5.374   6.849  0.3607 -0.1990 -0.0794
  166SAPE   H5R18698   6.877   5.474   6.828 -2.7394 -0.8191  2.1365
  166SAPE   C2618699   6.924   5.324   6.972  0.9524 -0.4791 -0.4951
  166SAPE   H6R18700   6.884   5.378   7.059  0.5903 -1.9716  0.3087
  166SAPE   C2718701   6.995   5.193   7.003 -0.1104 -0.3609 -0.1507
  166SAPE   H7R18702   7.048   5.214   7.098 -1.5924 -1.0601  0.8871
  166SAPE   H7S18703   7.079   5.178   6.933  3.3435  2.7884  2.9222
  166SAPE   C2818704   6.921   5.065   7.034 -0.6063 -0.0773 -0.3157
  166SAPE   H8R18705   6.864   5.026   6.948  0.0892 -0.6130 -0.5421
  166SAPE   C2918706   6.927   4.986   7.139 -0.4153 -0.5062 -0.1365
  166SAPE   H9R18707   6.885   4.885   7.139  0.1792 -0.8778  3.3864
  166SAPE  C21018708   7.007   5.011   7.265  0.4725 -0.1393 -0.9570
  166SAPE  H10R18709   7.076   5.097   7.251 -0.1747  0.9550  1.8685
  166SAPE  H10S18710   7.070   4.928   7.305  1.3270  1.3885  1.0822
  166SAPE  C21118711   6.922   5.054   7.384 -0.1414 -0.2710  0.1750
  166SAPE  H11R18712   6.814   5.034   7.387 -0.6018  1.9586  0.9708
  166SAPE  C21218713   6.964   5.135   7.483  0.4913 -0.2999 -0.3649
  166SAPE  H12R18714   6.894   5.163   7.564 -0.0044 -0.7832 -0.6170
  166SAPE  C21318715   7.095   5.204   7.502 -0.3414  0.1817  0.5647
  166SAPE  H13R18716   7.085   5.289   7.573  1.0082 -1.0835  2.3762
  166SAPE  H13S18717   7.139   5.257   7.415  0.9718 -0.8576  0.5583
  166SAPE  C21418718   7.202   5.109   7.545  0.1432  0.5400  0.1897
  166SAPE  H14R18719   7.219   5.023   7.479  0.0740 -0.8689  1.9266
  166SAPE  C21518720   7.291   5.130   7.638 -0.1046 -0.0920 -0.7927
  166SAPE  H15R18721   7.363   5.051   7.662 -3.2339 -2.4576  1.8164
  166SAPE  C21618722   7.304   5.250   7.728  0.1818 -0.0714 -0.2570
  166SAPE  H16R18723   7.237   5.336   7.704 -0.2102  0.3745  2.1776
  166SAPE  H16S18724   7.409   5.284   7.718  0.5011 -1.1858 -0.8605
  166SAPE  C21718725   7.256   5.225   7.874  0.1528 -0.0972  0.8369
  166SAPE  H17R18726   7.307   5.131   7.906  2.6976 -0.3262 -3.1491
  166SAPE  H17S18727   7.147   5.206   7.867  0.3811 -1.7565  1.3103
  166SAPE  C21818728   7.288   5.339   7.964  0.0542  0.1182  0.6897
  166SAPE  H18R18729   7.289   5.428   7.898  4.7857 -0.2212 -0.0699
  166SAPE  H18S18730   7.394   5.316   7.992  0.4546 -1.2910 -1.6713
  166SAPE  C21918731   7.197   5.340   8.086 -0.1670  0.1573  0.2655
  166SAPE  H19R18732   7.137   5.247   8.096 -1.8528  0.9781 -1.4718
  166SAPE  H19S18733   7.116   5.415   8.071 -1.4149 -1.3095 -0.6791
  166SAPE  C22018734   7.265   5.366   8.216  0.2478 -0.3465  0.0547
  166SAPE  H20R18735   7.188   5.391   8.292  1.3347  0.3544  0.9611
  166SAPE  H20S18736   7.334   5.452   8.201 -0.3764 -0.0512 -1.2295
  166SAPE  H20T18737   7.312   5.276   8.259 -3.2220 -1.7996  1.1821
  166SAPE   C3318738   7.036   4.572   6.866 -0.3238  0.0959 -0.8031
  166SAPE   H3X18739   7.119   4.543   6.798 -1.3823  0.0386 -2.1153
  166SAPE   H3Y18740   6.992   4.471   6.883 -2.0925  0.7618 -1.2168
  166SAPE   C3418741   7.083   4.626   7.000 -1.0102  0.0008  0.6588
  166SAPE   H4X18742   7.088   4.737   6.999 -2.6044  0.1377 -2.0063
  166SAPE   H4Y18743   7.188   4.597   7.022 -0.9954  0.1978  0.8412
  166SAPE   C3518744   6.996   4.576   7.121 -0.1596 -0.5633 -1.2029
  166SAPE   H5X18745   6.973   4.468   7.110 -0.9380 -0.3410 -1.8807
  166SAPE   H5Y18746   6.904   4.638   7.106  0.6362  0.2943 -2.7476
  166SAPE   C3618747   7.073   4.593   7.255 -0.4276  0.5612  0.6688
  166SAPE   H6X18748   7.088   4.703   7.263 -1.5095  0.7341  0.4739
  166SAPE   H6Y18749   7.169   4.538   7.243 -0.0235  0.7738  2.6195
  166SAPE   C3718750   6.986   4.561   7.375  0.4314  0.5155 -0.7198
  166SAPE   H7X18751   7.056   4.522   7.452 -0.4086 -1.1717 -0.7633
  166SAPE   H7Y18752   6.912   4.485   7.341  1.3034  0.8051 -3.5031
  166SAPE   C3818753   6.906   4.681   7.422 -0.6352 -0.4567  0.3696
  166SAPE   H8X18754   6.844   4.730   7.344 -0.3088 -0.2483  0.2418
  166SAPE   H8Y18755   6.963   4.765   7.467  0.8313 -1.1954 -0.0424
  166SAPE   C3918756   6.827   4.619   7.542 -0.1086  0.2398 -0.0217
  166SAPE   H9X18757   6.887   4.577   7.625  1.2963  1.3227 -0.4409
  166SAPE   H9Y18758   6.767   4.535   7.501  0.4502  0.2300 -0.8545
  166SAPE  C31018759   6.749   4.727   7.608  0.4130 -0.0562  0.2412
  166SAPE  H10X18760   6.697   4.792   7.535 -0.9385 -1.3177  0.0314
  166SAPE  H10Y18761   6.820   4.800   7.653  1.0928 -0.4198 -0.2088
  166SAPE  C31118762   6.653   4.687   7.716 -0.8643 -0.0856  0.5971
  166SAPE  H11X18763   6.626   4.783   7.766 -0.7212  0.3313 -0.1095
  166SAPE  H11Y18764   6.695   4.610   7.784 -3.6864 -2.3875 -0.0599
  166SAPE  C31218765   6.525   4.632   7.666 -0.3294  0.3199  0.8435
  166SAPE  H12X18766   6.535   4.544   7.599  0.1095  2.5564 -2.2590
  166SAPE  H12Y18767   6.497   4.712   7.594  1.5240  0.4915  0.2629
  166SAPE  C31318768   6.413   4.630   7.760  0.2876  0.1760 -0.3574
  166SAPE  H13X18769   6.318   4.654   7.709 -1.0267 -0.9812  1.4322
  166SAPE  H13Y18770   6.438   4.708   7.836  0.9344 -1.5486  1.2672
  166SAPE  C31418771   6.401   4.492   7.825 -0.8397  0.5671 -0.7644
  166SAPE  H14X18772   6.503   4.458   7.854 -2.5040 -2.6901  1.9594
  166SAPE  H14Y18773   6.363   4.409   7.762 -3.2267  0.2295  0.9706
  166SAPE  C31518774   6.314   4.481   7.947  0.2564  1.1491  0.3649
  166SAPE  H15X18775   6.206   4.481   7.922  0.2686 -0.6001  0.1816
  166SAPE  H15Y18776   6.333   4.557   8.026 -0.0853 -0.7667  2.3787
  166SAPE  C31618777   6.332   4.345   8.019 -0.4060 -0.1975 -0.5425
  166SAPE  H16X18778   6.443   4.339   8.027 -0.5178 -1.2166  0.5354
  166SAPE  H16Y18779   6.299   4.263   7.951 -0.3743  0.6646 -1.6263
  166SAPE  C31718780   6.259   4.336   8.153  0.3472  0.4511 -0.3564
  166SAPE  H17X18781   6.151   4.335   8.126  0.5172 -1.3154 -1.1405
  166SAPE  H17Y18782   6.288   4.424   8.214 -0.0737  1.0225 -0.9686
  166SAPE  C31818783   6.282   4.210   8.240  0.1042  0.0466  0.2170
  166SAPE  H18X18784   6.231   4.220   8.338  0.3710  0.0129  0.3599
  166SAPE  H18Y18785   6.389   4.193   8.265 -0.1806 -2.8574 -0.2424
  166SAPE  H18Z18786   6.241   4.120   8.189 -0.2658  0.0251  0.5492
  167SAPE     N18787   0.363   4.959   6.090  0.0950 -0.0159 -0.0976
  167SAPE   HN118788   0.401   4.862   6.085  0.3639  0.0211  0.9146
  167SAPE   HN218789   0.264   4.945   6.065  0.1599  1.2804 -1.1673
  167SAPE   HN318790   0.419   5.013   6.021 -0.5676  1.5085  0.5118
  167SAPE   C1218791   0.375   5.017   6.227  0.9272 -0.3204 -0.8640
  167SAPE  H12A18792   0.339   4.939   6.298 -0.6273  2.0474  1.1630
  167SAPE  H12B18793   0.311   5.107   6.237  1.5850 -0.0771  2.3367
  167SAPE   C1118794   0.524   5.058   6.252  0.9085 -0.4252 -0.4847
  167SAPE  H11A18795   0.539   5.107   6.350  0.3836  0.3040 -0.7583
  167SAPE  H11B18796   0.549   5.126   6.167 -0.5702  1.1729  0.2956
  167SAPE     P18797   0.740   4.914   6.187  0.2132 -0.2936  0.3112
  167SAPE   O1318798   0.788   4.777   6.205 -0.1426  0.3078  0.4757
  167SAPE   O1418799   0.738   4.973   6.048 -0.8250 -0.0704  0.0959
  167SAPE   O1218800   0.598   4.934   6.245  0.4276 -0.1905  0.4380
  167SAPE   O1118801   0.832   5.004   6.269  0.5398 -0.1670  0.5518
  167SAPE    C118802   0.866   4.995   6.405  0.1170  0.3808 -0.7662
  167SAPE    HA18803   0.774   5.006   6.466  0.8482 -0.9161  0.6571
  167SAPE    HB18804   0.905   4.893   6.427 -0.9603  0.1518  0.1926
  167SAPE    C218805   0.954   5.117   6.445  0.2308 -0.4004  0.8822
  167SAPE    HS18806   1.051   5.116   6.391 -0.6390  1.3138 -0.8059
  167SAPE   O2118807   0.962   5.121   6.585 -0.1140 -0.0147  0.1356
  167SAPE   C2118808   1.062   5.058   6.643  0.0963 -0.2501  0.0502
  167SAPE   O2218809   1.135   4.978   6.588 -0.1517  0.0457  0.0170
  167SAPE   C2218810   1.070   5.091   6.796  0.1232  0.0764  0.7985
  167SAPE   H2R18811   0.969   5.067   6.836 -0.4977  2.1447  0.5454
  167SAPE   H2S18812   1.146   5.027   6.846 -1.7508 -1.9335  1.2774
  167SAPE    C318813   0.886   5.246   6.391  0.0696 -0.3474 -0.8486
  167SAPE    HX18814   0.879   5.241   6.280 -1.9456  0.2864 -0.7938
  167SAPE    HY18815   0.954   5.333   6.404  0.6685 -0.9532  0.1675
  167SAPE   O3118816   0.754   5.262   6.454 -0.5510 -0.6275  0.2013
  167SAPE   C3118817   0.757   5.355   6.553 -0.1756  0.0670  0.6910
  167SAPE   O3218818   0.853   5.430   6.581 -0.1014 -0.1347 -0.1549
  167SAPE   C3218819   0.624   5.351   6.630  0.6170  0.5336  0.4280
  167SAPE   H2X18820   0.615   5.247   6.669  3.0682 -0.7318 -2.0617
  167SAPE   H2Y18821   0.551   5.360   6.547  0.5553 -1.9044  0.1567
  167SAPE   C2318822   1.077   5.248   6.822  0.7664 -0.1171  0.7241
  167SAPE   H3R18823   0.971   5.282   6.820  1.0247  0.6368 -0.8782
  167SAPE   H3S18824   1.132   5.300   6.742  0.1123 -0.6851 -0.1149
  167SAPE   C2418825   1.142   5.279   6.963 -0.6134 -0.6578 -0.3290
  167SAPE   H4R18826   1.078   5.240   7.045 -1.0049  1.0561  0.2176
  167SAPE   H4S18827   1.151   5.389   6.973  0.0404 -0.4123 -2.9162
  167SAPE   C2518828   1.285   5.227   6.963  0.6725 -0.2320  0.1363
  167SAPE   H5R18829   1.340   5.248   6.870  2.1216 -0.7344  0.8561
  167SAPE   C2618830   1.348   5.153   7.057 -0.0051 -0.1330  0.1376
  167SAPE   H6R18831   1.453   5.128   7.037 -0.0724 -0.5327  0.2685
  167SAPE   C2718832   1.281   5.105   7.187  0.0173  0.1888  0.7567
  167SAPE   H7R18833   1.172   5.091   7.176 -0.0600  0.8034  0.7039
  167SAPE   H7S18834   1.283   5.198   7.249 -2.4905  0.7442  0.1292
  167SAPE   C2818835   1.338   4.980   7.247  0.3747 -0.1689  0.3594
  167SAPE   H8R18836   1.294   4.887   7.206 -0.3237  0.3491 -0.0835
  167SAPE   C2918837   1.424   4.975   7.349  0.7173  0.3920 -0.1201
  167SAPE   H9R18838   1.458   4.877   7.384 -0.5538 -0.5379 -1.3728
  167SAPE  C21018839   1.486   5.092   7.412  0.3015  0.3110  0.6486
  167SAPE  H10R18840   1.421   5.114   7.500 -0.4909  0.1179  0.1196
  167SAPE  H10S18841   1.468   5.178   7.344  0.7454 -0.2142 -0.1367
  167SAPE  C21118842   1.624   5.080   7.466 -0.3048 -0.4440  0.9111
  167SAPE  H11R18843   1.689   5.011   7.410  0.6153  2.3029 -1.7293
  167SAPE  C21218844   1.683   5.128   7.579  0.1394  0.5671  0.1737
  167SAPE  H12R18845   1.785   5.091   7.596 -0.6814 -1.6052  0.6421
  167SAPE  C21318846   1.617   5.224   7.684  0.8916  0.2640  0.3742
  167SAPE  H13R18847   1.508   5.207   7.686  0.9509 -0.2329 -0.1938
  167SAPE  H13S18848   1.625   5.329   7.648  1.2709  0.7471  1.7882
  167SAPE  C21418849   1.676   5.204   7.826 -0.9439 -0.5199 -0.5171
  167SAPE  H14R18850   1.770   5.147   7.836 -0.4682  0.4260  0.7638
  167SAPE  C21518851   1.619   5.233   7.945 -0.7414 -0.3992  0.4246
  167SAPE  H15R18852   1.668   5.211   8.041  0.8304  0.8436 -0.0473
  167SAPE  C21618853   1.481   5.307   7.957 -0.4797  0.0683 -0.2971
  167SAPE  H16R18854   1.413   5.287   7.872 -2.6453 -2.0294  1.7775
  167SAPE  H16S18855   1.505   5.415   7.966  0.5443  0.1183 -2.7367
  167SAPE  C21718856   1.407   5.258   8.081  0.3298 -0.4873 -0.0825
  167SAPE  H17R18857   1.396   5.148   8.089  2.2113 -0.7356 -0.3979
  167SAPE  H17S18858   1.305   5.303   8.080 -0.3254 -1.8821 -1.9154
  167SAPE  C21818859   1.481   5.294   8.220 -0.0322 -0.2439 -0.0481
  167SAPE  H18R18860   1.539   5.385   8.190  0.8518 -0.8193 -0.1177
  167SAPE  H18S18861   1.557   5.217   8.247  0.7800  0.8494  0.9120
  167SAPE  C21918862   1.394   5.335   8.333  0.5762 -0.4072  0.0404
  167SAPE  H19R18863   1.454   5.364   8.422 -0.5592  0.7012  0.4812
  167SAPE  H19S18864   1.331   5.251   8.368 -1.5142 -0.2339 -2.9556
  167SAPE  C22018865   1.289   5.442   8.304  0.3974  0.2837  0.5796
  167SAPE  H20R18866   1.339   5.529   8.256  1.3277 -0.7185 -0.3325
  167SAPE  H20S18867   1.245   5.473   8.401  0.1384  0.9324  0.2615
  167SAPE  H20T18868   1.212   5.400   8.237  0.6991  2.0261 -0.9484
  167SAPE   C3318869   0.589   5.459   6.733 -0.0030 -0.6917  0.3908
  167SAPE   H3X18870   0.478   5.466   6.731 -0.1154 -1.4579 -3.2924
  167SAPE   H3Y18871   0.644   5.552   6.707  1.3475 -1.6826 -0.4529
  167SAPE   C3418872   0.649   5.443   6.873 -0.6627 -0.1610 -0.0890
  167SAPE   H4X18873   0.633   5.528   6.943 -1.1565 -0.6902  0.4527
  167SAPE   H4Y18874   0.759   5.431   6.863 -0.7396  0.9094 -3.1909
  167SAPE   C3518875   0.597   5.318   6.944  0.5586  0.4347 -0.6625
  167SAPE   H5X18876   0.611   5.226   6.883  1.3526 -0.8844  1.3992
  167SAPE   H5Y18877   0.488   5.337   6.950  0.2990 -1.1587  0.6233
  167SAPE   C3618878   0.669   5.291   7.074 -0.4660  0.1036  0.1987
  167SAPE   H6X18879   0.773   5.284   7.037 -1.1275  0.4346 -1.8343
  167SAPE   H6Y18880   0.640   5.186   7.097 -2.5770  1.1417  2.8719
  167SAPE   C3718881   0.644   5.399   7.182  0.0439  0.3358  0.1104
  167SAPE   H7X18882   0.542   5.392   7.225  0.6237 -0.9161  1.3890
  167SAPE   H7Y18883   0.674   5.494   7.133  2.9944 -0.6273 -0.1709
  167SAPE   C3818884   0.737   5.378   7.300 -0.2500  0.3254 -0.5943
  167SAPE   H8X18885   0.728   5.459   7.376  0.7131  0.5341 -0.6867
  167SAPE   H8Y18886   0.841   5.370   7.264  1.0165  1.5347  2.4332
  167SAPE   C3918887   0.701   5.253   7.398 -0.5598 -0.1205  0.0997
  167SAPE   H9X18888   0.662   5.175   7.329 -2.7380  3.6910 -3.4009
  167SAPE   H9Y18889   0.620   5.283   7.467 -1.9021 -1.2332 -0.9273
  167SAPE  C31018890   0.826   5.203   7.470 -0.1800 -1.0109 -0.0200
  167SAPE  H10X18891   0.894   5.144   7.406 -0.8180 -0.6010 -1.1011
  167SAPE  H10Y18892   0.785   5.135   7.549  0.1605 -0.3230  0.7662
  167SAPE  C31118893   0.919   5.307   7.528 -0.4921  0.2571 -0.1203
  167SAPE  H11X18894   0.852   5.381   7.577 -1.1017 -2.0892  2.8831
  167SAPE  H11Y18895   0.974   5.359   7.447 -1.6540  0.6267 -0.6994
  167SAPE  C31218896   1.023   5.261   7.627  0.1505  0.6569 -0.2932
  167SAPE  H12X18897   1.078   5.352   7.658  1.0860  0.5343 -1.5370
  167SAPE  H12Y18898   1.102   5.196   7.584  1.2933  1.7882  0.0570
  167SAPE  C31318899   0.965   5.194   7.754  0.2763  0.3023 -0.5767
  167SAPE  H13X18900   0.884   5.119   7.744  1.5107 -1.3353  1.0522
  167SAPE  H13Y18901   0.913   5.279   7.804 -0.9633  0.0890 -1.4673
  167SAPE  C31418902   1.078   5.134   7.846  0.4523  0.5937 -0.3935
  167SAPE  H14X18903   1.160   5.210   7.849  1.4176 -0.4134 -0.6157
  167SAPE  H14Y18904   1.114   5.036   7.809  0.6158  0.7746 -0.7151
  167SAPE  C31518905   1.033   5.116   7.994  0.4973 -0.1230 -0.0838
  167SAPE  H15X18906   1.127   5.090   8.048  0.7307  0.1976 -0.3311
  167SAPE  H15Y18907   0.951   5.041   8.003  1.3858 -1.4057 -1.9332
  167SAPE  C31618908   1.005   5.260   8.064 -0.4258  0.5455 -0.7785
  167SAPE  H16X18909   0.929   5.311   8.001 -3.0976 -3.8197 -1.5194
  167SAPE  H16Y18910   1.093   5.328   8.069  0.7199 -0.9184 -0.4357
  167SAPE  C31718911   0.941   5.237   8.199  0.0052  0.5672  0.3910
  167SAPE  H17X18912   1.025   5.218   8.269  0.9865  0.3700 -0.7982
  167SAPE  H17Y18913   0.872   5.151   8.189  0.6316 -0.1412  1.8540
  167SAPE  C31818914   0.853   5.354   8.243 -0.1793  0.4211 -0.1602
  167SAPE  H18X18915   0.816   5.348   8.348  0.4080 -1.2740 -0.0253
  167SAPE  H18Y18916   0.766   5.358   8.173 -1.1001 -0.3668  0.9040
  167SAPE  H18Z18917   0.910   5.449   8.239 -0.6323  0.6801 -3.4176
  168SAPE     N18918   1.195   4.741   6.403 -0.0098  0.0585 -0.5694
  168SAPE   HN118919   1.155   4.656   6.359 -0.6652  1.4666 -2.8651
  168SAPE   HN218920   1.286   4.718   6.448 -0.7638 -3.4745 -0.6234
  168SAPE   HN318921   1.128   4.776   6.474  0.2867 -1.5905  0.5776
  168SAPE   C1218922   1.219   4.837   6.283  0.1052 -0.1343 -0.9014
  168SAPE  H12A18923   1.278   4.927   6.308 -0.9971  0.7143 -1.3024
  168SAPE  H12B18924   1.119   4.861   6.242  0.1818 -1.0752 -1.7080
  168SAPE   C1118925   1.286   4.745   6.176 -0.1768 -0.5000 -0.0366
  168SAPE  H11A18926   1.277   4.803   6.081  1.8221 -1.7833 -1.0773
  168SAPE  H11B18927   1.219   4.661   6.150 -0.6912  0.8861 -4.0302
  168SAPE     P18928   1.473   4.578   6.247  0.0170  0.0885  0.3382
  168SAPE   O1318929   1.482   4.484   6.134 -0.0682 -0.2766 -0.2813
  168SAPE   O1418930   1.594   4.603   6.329  0.2717  0.6707 -0.0978
  168SAPE   O1218931   1.425   4.713   6.194  0.1588  0.2981 -0.0064
  168SAPE   O1118932   1.341   4.542   6.333 -0.2034  0.9406 -0.1638
  168SAPE    C118933   1.335   4.407   6.386 -0.3602 -0.1897  0.7668
  168SAPE    HA18934   1.285   4.338   6.316  0.1719  0.2760 -0.0940
  168SAPE    HB18935   1.436   4.366   6.407  0.6709  2.5767  1.6246
  168SAPE    C218936   1.255   4.400   6.521  0.0485  0.7719 -0.2478
  168SAPE    HS18937   1.150   4.372   6.495 -0.4572  1.2030  1.1795
  168SAPE   O2118938   1.263   4.519   6.588  0.1129  0.3786 -0.2530
  168SAPE   C2118939   1.166   4.540   6.674  0.0380  0.0040  0.6310
  168SAPE   O2218940   1.056   4.488   6.672 -0.6849  0.2541 -0.3246
  168SAPE   C2218941   1.212   4.647   6.779 -0.2884 -0.1015  0.5427
  168SAPE   H2R18942   1.287   4.596   6.842  0.1802  0.6210  0.5743
  168SAPE   H2S18943   1.272   4.731   6.739 -0.6930  0.7592  1.7059
  168SAPE    C318944   1.310   4.281   6.598 -0.4473  0.3691 -1.3450
  168SAPE    HX18945   1.419   4.295   6.613 -0.5685 -1.5266  2.6657
  168SAPE    HY18946   1.283   4.188   6.544  0.2928  0.5302 -2.0035
  168SAPE   O3118947   1.278   4.264   6.738  0.0591 -0.1676 -0.3545
  168SAPE   C3118948   1.179   4.184   6.769  0.2142  0.2612  0.0726
  168SAPE   O3218949   1.097   4.133   6.693 -0.0833 -0.2364 -0.0024
  168SAPE   C3218950   1.182   4.170   6.915  0.0007 -0.9875  0.6709
  168SAPE   H2X18951   1.265   4.099   6.934 -2.0305 -3.2946  1.6088
  168SAPE   H2Y18952   1.096   4.103   6.937  1.0808 -2.2707  1.1109
  168SAPE   C2318953   1.094   4.701   6.869 -1.0871  0.6097 -0.0706
  168SAPE   H3R18954   1.011   4.628   6.868 -2.3616  2.0076 -1.0006
  168SAPE   H3S18955   1.045   4.783   6.812 -2.1149  0.7145  0.9276
  168SAPE   C2418956   1.134   4.732   7.024  0.3500  0.3354  0.1605
  168SAPE   H4R18957   1.232   4.783   7.016  0.4433  0.0979 -0.3050
  168SAPE   H4S18958   1.153   4.631   7.066  0.8100  1.0124  1.6383
  168SAPE   C2518959   1.023   4.799   7.101 -0.2817  0.3577 -0.2057
  168SAPE   H5R18960   0.946   4.846   7.039  0.1718  1.4900  0.0699
  168SAPE   C2618961   1.008   4.793   7.237  0.2515 -0.3500  0.6864
  168SAPE   H6R18962   0.918   4.834   7.286  1.6899  0.5080  2.7724
  168SAPE   C2718963   1.102   4.722   7.331  0.4889 -0.2830  0.4592
  168SAPE   H7R18964   1.139   4.804   7.396 -2.0986  0.3018  1.3030
  168SAPE   H7S18965   1.197   4.690   7.284 -0.1034 -1.6229  0.1283
  168SAPE   C2818966   1.038   4.601   7.394  0.1475 -0.1325  0.4000
  168SAPE   H8R18967   1.035   4.517   7.323  1.4443 -0.1829  0.3883
  168SAPE   C2918968   1.023   4.576   7.521 -0.7748  0.0736 -0.4779
  168SAPE   H9R18969   0.977   4.482   7.554  1.7911 -1.0909  0.0649
  168SAPE  C21018970   1.069   4.665   7.637  0.4072  0.6640  1.1190
  168SAPE  H10R18971   1.000   4.752   7.650  2.0269  2.1070  0.4903
  168SAPE  H10S18972   1.154   4.725   7.597  1.0753 -1.5145 -0.9708
  168SAPE  C21118973   1.097   4.583   7.756  0.0835 -0.7075 -0.0606
  168SAPE  H11R18974   1.147   4.487   7.735  0.6825 -0.5676  0.6839
  168SAPE  C21218975   1.062   4.613   7.885 -0.2472  0.3768  0.4856
  168SAPE  H12R18976   1.073   4.538   7.965 -2.5200  0.1522  0.6355
  168SAPE  C21318977   1.000   4.737   7.926 -0.4967 -0.2894 -0.0755
  168SAPE  H13R18978   1.029   4.816   7.853  2.0228 -1.4079 -0.3769
  168SAPE  H13S18979   1.044   4.764   8.024  0.4025 -0.0157 -0.5410
  168SAPE  C21418980   0.851   4.733   7.930  0.5333 -0.1009  0.7156
  168SAPE  H14R18981   0.803   4.693   7.840 -0.9819  1.6013  0.7013
  168SAPE  C21518982   0.769   4.782   8.030  0.5949 -0.0928  0.4583
  168SAPE  H15R18983   0.660   4.769   8.028  0.5249 -0.2243  2.4187
  168SAPE  C21618984   0.806   4.848   8.157 -0.1252 -0.2333  0.3422
  168SAPE  H16R18985   0.750   4.944   8.161 -1.9428 -1.2784  1.4653
  168SAPE  H16S18986   0.914   4.875   8.165  0.4436 -2.1086 -0.3869
  168SAPE  C21718987   0.764   4.762   8.277  0.0418  0.2198 -0.1374
  168SAPE  H17R18988   0.654   4.751   8.286  0.0826 -0.1554 -0.0433
  168SAPE  H17S18989   0.793   4.832   8.358  0.0178 -1.2630  1.2129
  168SAPE  C21818990   0.839   4.629   8.293 -0.3201  0.7672  0.0102
  168SAPE  H18R18991   0.948   4.642   8.278 -0.4959  0.3056 -2.0325
  168SAPE  H18S18992   0.800   4.565   8.211 -1.1477 -0.4832  1.3156
  168SAPE  C21918993   0.823   4.544   8.427  0.8119  0.5550  0.2770
  168SAPE  H19R18994   0.870   4.444   8.419  1.5810  1.0890 -3.5476
  168SAPE  H19S18995   0.716   4.518   8.443  0.9412  0.9625  2.0137
  168SAPE  C22018996   0.852   4.613   8.560 -0.1690  0.0099 -0.0501
  168SAPE  H20R18997   0.957   4.648   8.567  0.3776 -1.6270  0.4714
  168SAPE  H20S18998   0.862   4.540   8.643  2.0033  0.7585  0.4085
  168SAPE  H20T18999   0.781   4.695   8.584 -0.2672  0.4898 -1.7945
  168SAPE   C3319000   1.183   4.302   6.990  0.5742  0.7886  0.4088
  168SAPE   H3X19001   1.107   4.365   6.941  0.9501  0.3186 -0.8163
  168SAPE   H3Y19002   1.278   4.360   6.987  0.6509  0.6645  0.4230
  168SAPE   C3419003   1.162   4.289   7.141  0.4462 -0.8090 -0.1373
  168SAPE   H4X19004   1.070   4.230   7.163 -1.9777  2.5627 -0.3881
  168SAPE   H4Y19005   1.140   4.391   7.180 -1.1360 -1.0665 -0.2570
  168SAPE   C3519006   1.290   4.238   7.209  0.2967 -0.1982 -0.4107
  168SAPE   H5X19007   1.377   4.300   7.180 -0.1784 -0.1056 -1.7354
  168SAPE   H5Y19008   1.308   4.134   7.173  1.3045 -0.2010  0.0755
  168SAPE   C3619009   1.279   4.236   7.362  0.3983 -0.3481  0.1195
  168SAPE   H6X19010   1.283   4.342   7.394  0.8460 -0.3055 -0.0755
  168SAPE   H6Y19011   1.374   4.189   7.396 -0.2115 -2.7129 -1.1619
  168SAPE   C3719012   1.155   4.165   7.417  1.1462  0.0128 -0.8070
  168SAPE   H7X19013   1.118   4.096   7.338 -1.3054  0.0602  0.2043
  168SAPE   H7Y19014   1.082   4.244   7.446  2.2002  0.8751 -0.4354
  168SAPE   C3819015   1.181   4.094   7.553  0.4832 -0.5720  0.5104
  168SAPE   H8X19016   1.254   4.014   7.529 -0.3796 -1.4998  0.9109
  168SAPE   H8Y19017   1.087   4.051   7.594 -0.2190  2.4933  2.4561
  168SAPE   C3919018   1.247   4.170   7.672 -0.1927  0.0869  0.1969
  168SAPE   H9X19019   1.169   4.232   7.721 -0.4169  0.3911 -0.5302
  168SAPE   H9Y19020   1.322   4.245   7.639 -3.0470  3.6830  1.2122
  168SAPE  C31019021   1.304   4.088   7.783 -0.5897 -0.0923  0.8999
  168SAPE  H10X19022   1.394   4.035   7.744 -0.0369  2.0286 -0.8939
  168SAPE  H10Y19023   1.229   4.013   7.815 -0.2556 -0.6416  0.4346
  168SAPE  C31119024   1.345   4.177   7.897 -0.3081  0.0040 -0.4273
  168SAPE  H11X19025   1.405   4.258   7.851 -0.4860  0.5459  0.2777
  168SAPE  H11Y19026   1.393   4.105   7.966 -1.0436 -1.1799 -1.1092
  168SAPE  C31219027   1.226   4.232   7.979  0.1288 -0.0024 -0.3684
  168SAPE  H12X19028   1.175   4.143   8.022 -0.8647  0.2919 -0.9037
  168SAPE  H12Y19029   1.155   4.289   7.915  0.6914  1.5949  0.4040
  168SAPE  C31319030   1.274   4.316   8.095 -0.2365 -0.0717 -0.4914
  168SAPE  H13X19031   1.320   4.404   8.045  0.0817  0.4305  0.6504
  168SAPE  H13Y19032   1.357   4.261   8.144 -0.0658  1.2817  0.7873
  168SAPE  C31419033   1.166   4.349   8.200  0.7105 -0.1702  0.4845
  168SAPE  H14X19034   1.107   4.257   8.222  0.2984 -0.3930 -1.3840
  168SAPE  H14Y19035   1.100   4.424   8.152  1.7300 -0.8162 -2.0759
  168SAPE  C31519036   1.212   4.408   8.330  0.1002  0.4868 -0.6221
  168SAPE  H15X19037   1.128   4.449   8.390  1.1228 -2.8025  3.5527
  168SAPE  H15Y19038   1.273   4.500   8.314  0.5271  0.3362  0.1164
  168SAPE  C31619039   1.289   4.307   8.426  0.2548  0.6771 -0.1091
  168SAPE  H16X19040   1.377   4.262   8.375  0.6953  2.1157 -0.6576
  168SAPE  H16Y19041   1.214   4.228   8.450 -2.2770  2.6075 -1.1701
  168SAPE  C31719042   1.330   4.373   8.555  0.5673  0.2082  0.4227
  168SAPE  H17X19043   1.251   4.443   8.589  0.8944  0.2855  1.0353
  168SAPE  H17Y19044   1.422   4.427   8.525 -0.7721  1.1810 -2.2278
  168SAPE  C31819045   1.360   4.273   8.672  0.1385 -0.0489 -0.1679
  168SAPE  H18X19046   1.265   4.227   8.707 -0.0812 -1.4934 -2.4406
  168SAPE  H18Y19047   1.411   4.325   8.755  0.2219  0.4113 -0.5069
  168SAPE  H18Z19048   1.419   4.188   8.632  1.5485  0.5712  0.5327
  169SAPE     N19049   6.024   2.320   6.297 -0.4410  0.1950 -0.3154
  169SAPE   HN119050   5.996   2.407   6.248  0.2949 -1.3405 -3.7301
  169SAPE   HN219051   6.126   2.309   6.281 -0.9178 -3.8354 -1.6693
  169SAPE   HN319052   5.992   2.237   6.244 -0.2099  1.0117 -1.7944
  169SAPE   C1219053   5.987   2.302   6.442 -0.1854  0.0308  0.3423
  169SAPE  H12A19054   5.879   2.325   6.440  0.0805  1.3439 -1.5667
  169SAPE  H12B19055   6.043   2.373   6.507 -1.2799  1.2089  0.0158
  169SAPE   C1119056   6.032   2.152   6.498  1.2725  0.0012  0.5736
  169SAPE  H11A19057   5.979   2.143   6.595  0.1470  1.6980  0.1604
  169SAPE  H11B19058   6.142   2.154   6.514  1.3707 -1.1502  0.1093
  169SAPE     P19059   5.880   1.963   6.411 -0.4419  0.1651  0.5459
  169SAPE   O1319060   5.778   2.067   6.438  0.0903  0.1382 -0.1707
  169SAPE   O1419061   5.877   1.884   6.282  0.3883 -0.2605  0.4734
  169SAPE   O1219062   6.005   2.047   6.403  0.0268  0.0990 -0.4071
  169SAPE   O1119063   5.905   1.874   6.541 -0.0362  0.5600  0.1914
  169SAPE    C119064   6.023   1.807   6.562  0.0104  0.3095 -0.0579
  169SAPE    HA19065   6.037   1.732   6.482  1.5568  0.5284 -0.0227
  169SAPE    HB19066   6.104   1.882   6.575  1.7829 -1.5764  0.2242
  169SAPE    C219067   6.006   1.726   6.695  0.2403 -0.1646  0.7837
  169SAPE    HS19068   5.917   1.661   6.681  0.9677 -1.0820  0.4060
  169SAPE   O2119069   5.990   1.819   6.801  0.7006 -0.6775 -0.5892
  169SAPE   C2119070   5.917   1.781   6.906  0.2634 -0.3452  0.2521
  169SAPE   O2219071   5.865   1.672   6.918 -0.8972  0.1216  0.8016
  169SAPE   C2219072   5.904   1.890   7.013 -0.1132 -0.1064 -0.1860
  169SAPE   H2R19073   6.003   1.936   7.035  0.4885 -0.5606 -1.8358
  169SAPE   H2S19074   5.838   1.969   6.971  0.3485  1.1703  1.3793
  169SAPE    C319075   6.133   1.638   6.722 -0.0601  0.4164 -0.1179
  169SAPE    HX19076   6.209   1.704   6.768  1.2747 -1.6761  0.8376
  169SAPE    HY19077   6.181   1.591   6.633 -0.5215  1.2708 -0.8380
  169SAPE   O3119078   6.093   1.533   6.810  0.2308 -0.5345 -0.3448
  169SAPE   C3119079   6.195   1.468   6.864 -0.7188 -0.4591  0.4641
  169SAPE   O3219080   6.317   1.493   6.842 -0.2156  0.4913 -0.0761
  169SAPE   C3219081   6.145   1.370   6.964 -0.4858  0.2347 -0.2586
  169SAPE   H2X19082   6.204   1.277   6.949  1.9504  1.7458 -0.5238
  169SAPE   H2Y19083   6.042   1.341   6.935  0.3558 -3.6192  0.0271
  169SAPE   C2319084   5.833   1.844   7.140  0.1413 -0.4128 -0.7067
  169SAPE   H3R19085   5.747   1.779   7.116 -1.7682  1.4302  0.7829
  169SAPE   H3S19086   5.798   1.935   7.192 -1.9726 -1.5021 -0.1007
  169SAPE   C2419087   5.926   1.751   7.230  0.5168  0.0356 -0.4272
  169SAPE   H4R19088   6.026   1.799   7.239  0.8559 -1.0146  2.6190
  169SAPE   H4S19089   5.954   1.658   7.177  0.8003 -1.0340  1.5223
  169SAPE   C2519090   5.873   1.715   7.369 -0.4184  0.2148  0.1517
  169SAPE   H5R19091   5.848   1.608   7.380 -1.0075  0.5712  3.1004
  169SAPE   C2619092   5.869   1.804   7.471  0.1520 -0.4097 -0.3161
  169SAPE   H6R19093   5.827   1.771   7.567 -3.4946  2.3779 -0.7323
  169SAPE   C2719094   5.913   1.950   7.460  0.5592  0.3721 -0.8091
  169SAPE   H7R19095   5.956   1.968   7.359  1.2014 -0.8164 -0.7772
  169SAPE   H7S19096   5.998   1.964   7.531 -0.2604 -1.3490  0.5821
  169SAPE   C2819097   5.806   2.048   7.505 -0.3968  0.3832  0.0993
  169SAPE   H8R19098   5.734   2.069   7.425 -0.8618 -0.5965  0.2367
  169SAPE   C2919099   5.785   2.090   7.631  0.3922  0.0383 -0.1149
  169SAPE   H9R19100   5.697   2.155   7.637  0.1848 -0.0057 -2.0438
  169SAPE  C21019101   5.857   2.054   7.756  0.4909  1.3894  0.2315
  169SAPE  H10R19102   5.962   2.082   7.733  1.2637 -0.4124  1.3678
  169SAPE  H10S19103   5.842   1.944   7.759 -2.2022  1.7090  0.8092
  169SAPE  C21119104   5.806   2.138   7.869  0.8785 -0.5822 -0.2459
  169SAPE  H11R19105   5.783   2.243   7.846  1.1451 -0.3926  0.3419
  169SAPE  C21219106   5.749   2.089   7.984  0.1605 -0.2329 -0.6873
  169SAPE  H12R19107   5.713   2.166   8.053  2.0115  1.7097 -1.7758
  169SAPE  C21319108   5.762   1.942   8.024  0.1614  0.0604 -0.1318
  169SAPE  H13R19109   5.862   1.931   8.072 -0.7781 -0.0385  1.9199
  169SAPE  H13S19110   5.758   1.877   7.934  0.5681  0.8094 -0.6943
  169SAPE  C21419111   5.646   1.887   8.107 -0.1706 -0.2473 -0.4164
  169SAPE  H14R19112   5.558   1.878   8.041  0.6691 -0.7052 -1.5113
  169SAPE  C21519113   5.644   1.854   8.241 -0.3613 -0.1345  0.0156
  169SAPE  H15R19114   5.559   1.807   8.294  1.1079  0.0682  2.7052
  169SAPE  C21619115   5.773   1.866   8.328 -0.1502 -0.0957 -0.5014
  169SAPE  H16R19116   5.858   1.927   8.292  0.6831 -0.7377  0.3345
  169SAPE  H16S19117   5.797   1.760   8.351 -0.9343  0.3940  3.2061
  169SAPE  C21719118   5.745   1.930   8.468  0.7634  0.0277  0.7218
  169SAPE  H17R19119   5.834   1.906   8.530  3.0975  1.8482 -1.7375
  169SAPE  H17S19120   5.653   1.876   8.499 -0.1637  0.5245 -1.0614
  169SAPE  C21819121   5.705   2.074   8.485 -0.2060 -0.4182  0.7970
  169SAPE  H18R19122   5.729   2.091   8.592 -1.4169 -0.0720  1.0225
  169SAPE  H18S19123   5.596   2.084   8.466 -0.0000 -0.9044 -0.7737
  169SAPE  C21919124   5.792   2.171   8.411  0.8002 -0.3177  0.3083
  169SAPE  H19R19125   5.753   2.274   8.421  1.9509  0.3487 -1.5083
  169SAPE  H19S19126   5.793   2.166   8.300  0.9229  2.9161  0.0834
  169SAPE  C22019127   5.938   2.179   8.463 -0.0542 -0.1219 -0.4266
  169SAPE  H20R19128   5.988   2.249   8.392 -3.6852 -0.2052 -3.3812
  169SAPE  H20S19129   5.982   2.078   8.461  1.7032  0.5047  2.3109
  169SAPE  H20T19130   5.938   2.219   8.566  2.9164 -1.0411  0.0063
  169SAPE   C3319131   6.153   1.414   7.115 -0.5455 -0.4807  0.4435
  169SAPE   H3X19132   6.096   1.348   7.184 -0.0520 -1.6994 -0.2940
  169SAPE   H3Y19133   6.110   1.516   7.111  2.0244  0.6467 -0.3130
  169SAPE   C3419134   6.299   1.433   7.170  0.7330 -0.8565  0.1228
  169SAPE   H4X19135   6.344   1.524   7.125  0.6837 -0.8072  0.1728
  169SAPE   H4Y19136   6.352   1.340   7.140 -1.2166 -1.5993 -1.2120
  169SAPE   C3519137   6.294   1.436   7.325 -0.2092  0.9360 -0.2774
  169SAPE   H5X19138   6.396   1.451   7.366 -0.8239  1.0154  1.2958
  169SAPE   H5Y19139   6.265   1.335   7.361  2.8327  0.3095  0.6535
  169SAPE   C3619140   6.221   1.547   7.395  0.4024  0.3317 -0.6122
  169SAPE   H6X19141   6.112   1.526   7.389  0.8295 -1.9743 -1.5351
  169SAPE   H6Y19142   6.244   1.636   7.333  1.2329  2.8060  2.9618
  169SAPE   C3719143   6.271   1.574   7.540  0.0451  0.4553 -0.2090
  169SAPE   H7X19144   6.373   1.617   7.534 -0.7326  2.3806 -0.6129
  169SAPE   H7Y19145   6.262   1.470   7.577 -0.0456  0.2657 -0.7530
  169SAPE   C3819146   6.180   1.661   7.624 -0.0219  0.4308 -0.3997
  169SAPE   H8X19147   6.073   1.635   7.605  0.1358 -0.0255 -0.7094
  169SAPE   H8Y19148   6.202   1.764   7.590 -0.7155  0.9291  0.6157
  169SAPE   C3919149   6.192   1.665   7.780 -0.5916  0.1174  0.3377
  169SAPE   H9X19150   6.295   1.687   7.814 -0.7661  1.1267  0.2587
  169SAPE   H9Y19151   6.183   1.558   7.810 -2.0882  0.7301  2.3612
  169SAPE  C31019152   6.103   1.763   7.862 -0.1824  0.2300  0.1946
  169SAPE  H10X19153   6.005   1.776   7.811 -1.1522  5.3506  2.6912
  169SAPE  H10Y19154   6.137   1.869   7.869  2.6009 -0.6598  1.8654
  169SAPE  C31119155   6.043   1.713   8.002 -0.5847 -0.3145  0.2199
  169SAPE  H11X19156   5.980   1.630   7.963 -2.4328  1.3643 -0.4770
  169SAPE  H11Y19157   5.989   1.805   8.033  1.1849  0.9679 -0.3266
  169SAPE  C31219158   6.160   1.663   8.100  0.2199  0.6747  0.1209
  169SAPE  H12X19159   6.247   1.732   8.094 -0.3691  1.4242 -0.0592
  169SAPE  H12Y19160   6.180   1.560   8.064  0.7433  0.7064  0.3147
  169SAPE  C31319161   6.123   1.657   8.247  0.5217  0.0190 -0.0946
  169SAPE  H13X19162   6.062   1.748   8.264 -0.2234 -0.3285 -0.8791
  169SAPE  H13Y19163   6.212   1.668   8.313  0.8949 -1.9920 -0.2117
  169SAPE  C31419164   6.050   1.526   8.297  0.0170 -0.0273  0.7350
  169SAPE  H14X19165   6.128   1.455   8.262 -0.3535 -0.4970  0.8594
  169SAPE  H14Y19166   5.959   1.515   8.233  1.0305  2.8870 -1.4544
  169SAPE  C31519167   6.027   1.523   8.449 -0.4890  0.1694  0.8562
  169SAPE  H15X19168   5.961   1.435   8.464  1.2420 -2.0197 -2.8719
  169SAPE  H15Y19169   5.979   1.614   8.492  2.2397  1.3024  1.6948
  169SAPE  C31619170   6.161   1.489   8.520  1.0214 -0.7522  0.1312
  169SAPE  H16X19171   6.222   1.582   8.524  0.6587 -0.5497  1.3870
  169SAPE  H16Y19172   6.217   1.412   8.462  1.7426 -0.4024  0.3473
  169SAPE  C31719173   6.134   1.434   8.665 -0.7281 -0.6533 -0.3618
  169SAPE  H17X19174   6.083   1.335   8.668 -0.2035 -0.9856 -1.5990
  169SAPE  H17Y19175   6.066   1.501   8.721 -0.1058 -0.7995  0.5817
  169SAPE  C31819176   6.273   1.422   8.727  0.3544  0.1893  0.3018
  169SAPE  H18X19177   6.321   1.330   8.688 -1.2102 -0.4168 -0.2554
  169SAPE  H18Y19178   6.272   1.418   8.838 -0.8608  4.1729  0.5970
  169SAPE  H18Z19179   6.341   1.503   8.693 -0.6680  0.7972 -0.3395
  170SAPE     N19180   1.375   3.965   6.197  0.2713  0.1342 -0.3670
  170SAPE   HN119181   1.280   3.987   6.232 -0.8594 -2.5472 -1.3973
  170SAPE   HN219182   1.425   4.046   6.156  0.1870  1.2085  1.5825
  170SAPE   HN319183   1.359   3.888   6.128  1.2327  1.1250 -1.7435
  170SAPE   C1219184   1.458   3.920   6.315  0.9571  0.8733  0.7473
  170SAPE  H12A19185   1.537   3.850   6.281 -0.8831 -1.4308  1.0212
  170SAPE  H12B19186   1.396   3.861   6.387  0.5045  1.2390  0.6596
  170SAPE   C1119187   1.529   4.035   6.392 -0.1206 -0.3503  0.2161
  170SAPE  H11A19188   1.612   3.986   6.448  1.8487  2.3596 -0.1381
  170SAPE  H11B19189   1.451   4.083   6.454  1.0675  0.3645  1.2194
  170SAPE     P19190   1.728   4.106   6.220  0.3491 -0.1744 -0.5622
  170SAPE   O1319191   1.774   3.965   6.212 -0.2104 -0.0344  0.2378
  170SAPE   O1419192   1.703   4.172   6.092  0.0472 -0.4684  0.3346
  170SAPE   O1219193   1.585   4.125   6.298  0.2294  0.4559 -0.0103
  170SAPE   O1119194   1.840   4.187   6.301  1.1129  0.5724  0.7410
  170SAPE    C119195   1.818   4.327   6.317  0.3181 -0.7263  0.2842
  170SAPE    HA19196   1.911   4.377   6.284 -0.2375  0.8748  1.0501
  170SAPE    HB19197   1.729   4.369   6.266  0.5859 -1.3121 -0.6800
  170SAPE    C219198   1.822   4.364   6.472 -0.3086  0.3375  0.2733
  170SAPE    HS19199   1.784   4.463   6.504 -0.1846 -0.2407  2.3792
  170SAPE   O2119200   1.954   4.344   6.524 -0.0319 -0.1015  0.8643
  170SAPE   C2119201   1.999   4.412   6.620 -0.0903 -0.0740  0.0039
  170SAPE   O2219202   1.959   4.513   6.677  0.3090  0.0183 -0.1218
  170SAPE   C2219203   2.127   4.345   6.686  0.3326  0.3103  0.4564
  170SAPE   H2R19204   2.182   4.281   6.613  2.0926  0.2353  1.7708
  170SAPE   H2S19205   2.195   4.430   6.707  1.6256 -0.6328  0.2148
  170SAPE    C319206   1.727   4.274   6.544 -0.1043  0.2805 -0.3604
  170SAPE    HX19207   1.760   4.171   6.516  1.2203  0.3621  0.7553
  170SAPE    HY19208   1.626   4.284   6.501  1.0598  1.8273 -2.9838
  170SAPE   O3119209   1.734   4.289   6.686  0.2356  0.6491 -0.5112
  170SAPE   C3119210   1.669   4.196   6.758  0.3974  0.2385 -0.0938
  170SAPE   O3219211   1.610   4.100   6.707 -0.2799 -0.3098 -0.0918
  170SAPE   C3219212   1.700   4.236   6.898 -0.2210  0.2824 -0.7663
  170SAPE   H2X19213   1.658   4.333   6.932 -4.6616 -2.5006  2.8673
  170SAPE   H2Y19214   1.809   4.230   6.920 -0.5244  1.4629  1.4071
  170SAPE   C2319215   2.085   4.255   6.803 -0.0002 -0.3714 -0.5129
  170SAPE   H3R19216   2.017   4.309   6.872  2.2384 -0.4345  1.8495
  170SAPE   H3S19217   2.167   4.234   6.875  0.5924  2.1487 -0.3671
  170SAPE   C2419218   2.023   4.114   6.760  0.0243 -0.0243 -0.8088
  170SAPE   H4R19219   1.929   4.138   6.707  0.9287  0.1150 -2.4358
  170SAPE   H4S19220   1.979   4.074   6.854  1.2231 -0.1111 -0.2596
  170SAPE   C2519221   2.118   4.026   6.678 -0.4662  0.0043 -0.1748
  170SAPE   H5R19222   2.127   4.055   6.572  0.6397 -0.4663 -0.2261
  170SAPE   C2619223   2.187   3.914   6.711 -0.6856 -0.2122  0.4607
  170SAPE   H6R19224   2.252   3.860   6.640 -1.1370 -2.4165  1.6328
  170SAPE   C2719225   2.191   3.861   6.853 -0.5894 -0.8410  0.0129
  170SAPE   H7R19226   2.187   3.750   6.854  0.2346 -0.8886 -0.7410
  170SAPE   H7S19227   2.095   3.892   6.901 -0.5520  2.0694 -1.5221
  170SAPE   C2819228   2.314   3.907   6.928  0.8292 -0.3580  0.2161
  170SAPE   H8R19229   2.410   3.900   6.874  0.9824  0.5880  0.3473
  170SAPE   C2919230   2.320   3.964   7.050  0.0197 -0.0113 -0.2480
  170SAPE   H9R19231   2.424   3.972   7.085  0.8042 -2.1079 -1.8982
  170SAPE  C21019232   2.213   3.985   7.152  0.5112 -0.0756  0.3282
  170SAPE  H10R19233   2.223   3.920   7.241 -1.9885  0.1260  0.8221
  170SAPE  H10S19234   2.120   3.956   7.098  1.3340 -0.5278 -0.8756
  170SAPE  C21119235   2.236   4.135   7.183  0.4986 -0.5141  0.6209
  170SAPE  H11R19236   2.224   4.202   7.096  0.8287 -1.7039 -0.3585
  170SAPE  C21219237   2.272   4.186   7.299 -0.0715 -0.3598  1.1533
  170SAPE  H12R19238   2.289   4.294   7.308 -0.5425 -0.1571 -0.1702
  170SAPE  C21319239   2.292   4.104   7.421 -0.6289  0.2194 -0.0791
  170SAPE  H13R19240   2.357   4.163   7.489 -0.7523 -1.0855  1.2307
  170SAPE  H13S19241   2.351   4.015   7.389  1.0255  1.0832  0.4555
  170SAPE  C21419242   2.179   4.046   7.498  0.0328  0.6313 -0.1593
  170SAPE  H14R19243   2.108   3.993   7.433  1.5159 -1.6277 -0.0338
  170SAPE  C21519244   2.168   4.024   7.630 -0.0127  0.0312 -0.7500
  170SAPE  H15R19245   2.085   3.967   7.674  0.5308 -0.6490 -0.5908
  170SAPE  C21619246   2.264   4.067   7.737 -0.4439  0.4731 -0.0316
  170SAPE  H16R19247   2.232   4.162   7.786 -0.4680  1.7856 -2.4320
  170SAPE  H16S19248   2.364   4.091   7.695  0.4175 -0.3973  1.4657
  170SAPE  C21719249   2.293   3.968   7.848 -0.6214  0.2658  0.8462
  170SAPE  H17R19250   2.379   4.003   7.909  0.1687 -1.6077  0.8724
  170SAPE  H17S19251   2.323   3.868   7.809  1.1269  0.6732  1.0632
  170SAPE  C21819252   2.183   3.947   7.952 -0.7831  0.3502  0.2315
  170SAPE  H18R19253   2.225   3.876   8.026  0.1283 -0.4062 -0.9720
  170SAPE  H18S19254   2.097   3.890   7.912 -1.3154 -1.3898  3.4781
  170SAPE  C21919255   2.147   4.070   8.029  0.4073  0.5659 -0.1797
  170SAPE  H19R19256   2.098   4.147   7.965  0.8425 -0.5155 -1.8831
  170SAPE  H19S19257   2.240   4.119   8.065  1.0403 -1.0466  0.4753
  170SAPE  C22019258   2.053   4.035   8.141 -0.7245 -0.0257  0.0323
  170SAPE  H20R19259   2.111   3.971   8.212 -2.3706 -0.6153  0.8908
  170SAPE  H20S19260   1.960   3.985   8.108 -1.3039  0.7245  0.4992
  170SAPE  H20T19261   2.031   4.124   8.203  4.0280  1.8630 -0.5536
  170SAPE   C3319262   1.635   4.137   6.989  0.5602 -0.6884  0.9703
  170SAPE   H3X19263   1.678   4.037   6.968  1.2546  0.0297 -1.3371
  170SAPE   H3Y19264   1.525   4.127   6.971  0.2335 -0.1018  2.4433
  170SAPE   C3419265   1.657   4.182   7.130  0.3391  0.5832 -0.3243
  170SAPE   H4X19266   1.588   4.125   7.196 -0.1475 -0.4318 -1.6807
  170SAPE   H4Y19267   1.632   4.290   7.138  0.5381  0.4966  2.9516
  170SAPE   C3519268   1.800   4.165   7.184  0.0870 -0.6043 -0.0689
  170SAPE   H5X19269   1.857   4.230   7.115  0.9504 -0.7538  0.4962
  170SAPE   H5Y19270   1.840   4.061   7.178 -2.4433 -1.5931 -2.0961
  170SAPE   C3619271   1.823   4.220   7.322  0.0709  0.4720 -0.1301
  170SAPE   H6X19272   1.798   4.328   7.317 -3.3969 -0.2660 -2.4903
  170SAPE   H6Y19273   1.933   4.215   7.340  0.2191  3.8968  0.5805
  170SAPE   C3719274   1.770   4.131   7.433  0.3473 -0.3713  0.1049
  170SAPE   H7X19275   1.825   4.035   7.429 -1.3383 -1.3610 -0.2126
  170SAPE   H7Y19276   1.661   4.122   7.413 -0.1050  1.3228  1.5506
  170SAPE   C3819277   1.782   4.196   7.571  0.4279  0.2742 -0.1964
  170SAPE   H8X19278   1.709   4.280   7.577 -0.3392 -0.4615  1.5057
  170SAPE   H8Y19279   1.882   4.246   7.568  0.5283  0.5623  3.3229
  170SAPE   C3919280   1.765   4.096   7.681 -0.0949 -1.0361  0.1229
  170SAPE   H9X19281   1.832   4.007   7.676 -0.3508 -1.1557 -4.0854
  170SAPE   H9Y19282   1.658   4.068   7.688 -0.8314  1.3989 -0.3393
  170SAPE  C31019283   1.805   4.164   7.829  1.2930 -0.3945  0.7400
  170SAPE  H10X19284   1.909   4.202   7.819  1.9621 -1.9377  1.4130
  170SAPE  H10Y19285   1.816   4.082   7.904 -0.4205 -0.0187  1.4473
  170SAPE  C31119286   1.721   4.287   7.867  0.5667  0.8759  0.0124
  170SAPE  H11X19287   1.613   4.266   7.858  0.3494  2.2479 -0.8383
  170SAPE  H11Y19288   1.750   4.363   7.791 -0.1631  1.9803  0.8042
  170SAPE  C31219289   1.747   4.344   8.006 -0.6148  0.7198  1.1434
  170SAPE  H12X19290   1.851   4.385   8.013 -0.3309  0.5806 -1.3556
  170SAPE  H12Y19291   1.749   4.254   8.071 -0.5798 -0.7912 -0.8386
  170SAPE  C31319292   1.647   4.449   8.043 -0.4187 -0.8824  0.0696
  170SAPE  H13X19293   1.554   4.393   8.065 -1.2750  0.6970  0.6919
  170SAPE  H13Y19294   1.633   4.523   7.961 -1.1187 -1.4419 -0.3256
  170SAPE  C31419295   1.689   4.523   8.169  0.2989 -0.4141  0.1127
  170SAPE  H14X19296   1.624   4.613   8.178  0.0505  0.1325 -4.6745
  170SAPE  H14Y19297   1.796   4.553   8.161  0.9768 -3.0175 -1.6878
  170SAPE  C31519298   1.687   4.426   8.283 -0.2114  1.1636 -0.2501
  170SAPE  H15X19299   1.784   4.372   8.288 -0.4924  0.7685  1.5846
  170SAPE  H15Y19300   1.605   4.351   8.282  0.6819  0.1742 -0.4240
  170SAPE  C31619301   1.687   4.504   8.419  0.4802  0.0115 -0.3182
  170SAPE  H16X19302   1.595   4.564   8.432 -0.0862 -0.3069 -2.4451
  170SAPE  H16Y19303   1.776   4.570   8.408 -2.0573  3.5338 -1.7033
  170SAPE  C31719304   1.702   4.406   8.538 -0.8835 -0.2060  0.3323
  170SAPE  H17X19305   1.803   4.360   8.527 -1.2109 -1.1622  1.2806
  170SAPE  H17Y19306   1.621   4.331   8.524 -1.6249  0.4830  0.8485
  170SAPE  C31819307   1.676   4.468   8.672 -0.2303  0.1433 -0.5757
  170SAPE  H18X19308   1.569   4.495   8.677 -0.4039 -0.7097  0.7499
  170SAPE  H18Y19309   1.736   4.561   8.685  1.4027 -0.9745  0.3385
  170SAPE  H18Z19310   1.700   4.403   8.759 -1.1718 -0.8574 -1.0506
  171SAPE     N19311   2.859   5.633   6.083  0.0425 -0.0523  0.0614
  171SAPE   HN119312   2.777   5.697   6.090 -1.6791 -1.4800 -3.9898
  171SAPE   HN219313   2.851   5.573   5.998 -1.3292 -2.1729  1.5897
  171SAPE   HN319314   2.844   5.569   6.163 -0.6156  0.3537  0.2646
  171SAPE   C1219315   2.989   5.714   6.105  0.5017  0.7680  0.0519
  171SAPE  H12A19316   2.992   5.736   6.214 -0.2633 -0.2271  0.2798
  171SAPE  H12B19317   2.970   5.810   6.052 -1.8316 -0.1590 -0.9136
  171SAPE   C1119318   3.113   5.644   6.047 -0.9374 -0.2698  0.6190
  171SAPE  H11A19319   3.194   5.720   6.041  2.4020 -3.6655 -1.7348
  171SAPE  H11B19320   3.101   5.614   5.940 -2.2953  0.4950  0.5318
  171SAPE     P19321   3.304   5.487   6.137  0.1035  0.3344 -0.1018
  171SAPE   O1319322   3.308   5.367   6.227 -0.0699  0.5156 -0.3438
  171SAPE   O1419323   3.352   5.470   5.997  0.4104  0.6041  0.5679
  171SAPE   O1219324   3.147   5.527   6.120  0.5539  0.3592 -0.2903
  171SAPE   O1119325   3.361   5.612   6.215 -0.6087  0.4460 -0.1586
  171SAPE    C119326   3.291   5.665   6.328 -0.6599  0.0780  0.2302
  171SAPE    HA19327   3.237   5.756   6.293  0.7009  1.0065  0.4801
  171SAPE    HB19328   3.217   5.589   6.360  1.3324 -1.6694  0.9533
  171SAPE    C219329   3.393   5.686   6.438  0.4616  0.3143  0.5186
  171SAPE    HS19330   3.472   5.751   6.395 -1.0002  2.2615  0.6251
  171SAPE   O2119331   3.450   5.560   6.465 -1.0681 -0.2896 -0.6156
  171SAPE   C2119332   3.582   5.557   6.501  0.0682 -0.2966  0.0150
  171SAPE   O2219333   3.654   5.651   6.507 -0.5691 -0.3124  0.0482
  171SAPE   C2219334   3.625   5.417   6.522 -0.2533  0.4262 -0.0135
  171SAPE   H2R19335   3.554   5.346   6.571  0.6336 -0.5775 -0.1375
  171SAPE   H2S19336   3.655   5.385   6.420  1.8142  0.6557  0.4852
  171SAPE    C319337   3.335   5.748   6.573 -0.0387 -0.4166  0.0874
  171SAPE    HX19338   3.262   5.682   6.624 -0.5198  0.2311  0.2555
  171SAPE    HY19339   3.276   5.838   6.546 -0.2265 -0.6632 -0.3420
  171SAPE   O3119340   3.448   5.779   6.663 -0.3186  0.3752 -0.1057
  171SAPE   C3119341   3.505   5.896   6.647 -0.3614  0.0963  0.0069
  171SAPE   O3219342   3.467   5.977   6.566  0.0248  0.3270 -0.0554
  171SAPE   C3219343   3.610   5.909   6.752 -0.5866 -0.7898 -0.5571
  171SAPE   H2X19344   3.624   6.018   6.771  0.0568 -0.9761  0.0650
  171SAPE   H2Y19345   3.702   5.862   6.711 -0.4678 -0.6849 -0.4109
  171SAPE   C2319346   3.750   5.397   6.612 -0.1549  0.6312  0.4554
  171SAPE   H3R19347   3.842   5.442   6.571 -0.3167  0.7973  0.2722
  171SAPE   H3S19348   3.761   5.287   6.605  0.6876  0.8257 -2.7017
  171SAPE   C2419349   3.736   5.452   6.752 -0.2790  0.1302 -0.3142
  171SAPE   H4R19350   3.717   5.561   6.764  2.5638  0.5359  1.5400
  171SAPE   H4S19351   3.841   5.442   6.787 -1.3546 -4.6063  2.4369
  171SAPE   C2519352   3.658   5.361   6.843  0.2119 -0.3235 -0.4887
  171SAPE   H5R19353   3.711   5.280   6.895  0.1308  1.5343  2.7708
  171SAPE   C2619354   3.530   5.374   6.875  0.2223  0.4772  0.0032
  171SAPE   H6R19355   3.496   5.306   6.954  1.7641  1.6287  1.7732
  171SAPE   C2719356   3.430   5.476   6.834  0.4106 -0.8149 -0.4896
  171SAPE   H7R19357   3.478   5.566   6.791  0.8038  0.4066  2.2895
  171SAPE   H7S19358   3.376   5.522   6.920  2.5374 -0.5502  0.7602
  171SAPE   C2819359   3.323   5.428   6.738  0.6888  0.8012  0.4467
  171SAPE   H8R19360   3.353   5.426   6.632 -1.7627 -2.2480 -0.3241
  171SAPE   C2919361   3.197   5.387   6.770 -0.2012 -0.2666 -0.2850
  171SAPE   H9R19362   3.137   5.354   6.684 -1.7623  1.4550  0.0639
  171SAPE  C21019363   3.122   5.374   6.905  0.1484  0.5052  0.1908
  171SAPE  H10R19364   3.069   5.469   6.929 -0.2020  0.7264 -1.3906
  171SAPE  H10S19365   3.201   5.353   6.981  0.1130 -2.6386 -0.5129
  171SAPE  C21119366   3.002   5.278   6.911  0.7670 -0.3439  0.4367
  171SAPE  H11R19367   2.944   5.269   6.818  1.0622 -1.3586  0.3430
  171SAPE  C21219368   2.958   5.209   7.024 -0.2676 -0.7760 -0.8320
  171SAPE  H12R19369   2.884   5.127   7.018 -1.4037  0.1131  0.5195
  171SAPE  C21319370   3.018   5.236   7.165  0.5269  0.2441  0.3403
  171SAPE  H13R19371   2.934   5.205   7.231 -2.8214  0.6905 -3.3325
  171SAPE  H13S19372   3.032   5.345   7.175  0.9667  0.3312 -0.9925
  171SAPE  C21419373   3.156   5.171   7.176  0.3911  0.1778  0.3423
  171SAPE  H14R19374   3.216   5.179   7.084  0.4893  1.7516  0.5092
  171SAPE  C21519375   3.199   5.117   7.282 -0.1150 -0.5500 -0.4322
  171SAPE  H15R19376   3.302   5.078   7.274  0.0747 -0.2879  0.6507
  171SAPE  C21619377   3.129   5.113   7.416  0.1593  0.8153  0.3235
  171SAPE  H16R19378   3.050   5.036   7.429 -0.2125  1.6409  3.6584
  171SAPE  H16S19379   3.092   5.214   7.445  0.8033  0.4849  2.4370
  171SAPE  C21719380   3.227   5.079   7.533  0.1521 -0.0924 -0.1097
  171SAPE  H17R19381   3.304   5.160   7.540  1.1981 -1.1245  0.7300
  171SAPE  H17S19382   3.278   4.981   7.529 -1.6736 -1.1098  0.5707
  171SAPE  C21819383   3.143   5.070   7.661  0.8447 -0.6291  0.1478
  171SAPE  H18R19384   3.051   5.007   7.662  0.1088  0.3199  2.9426
  171SAPE  H18S19385   3.103   5.173   7.672 -1.0886 -1.1977 -0.9458
  171SAPE  C21919386   3.217   5.047   7.786 -0.2367  0.0684 -0.7950
  171SAPE  H19R19387   3.303   5.117   7.799 -0.4301  0.3685 -1.1089
  171SAPE  H19S19388   3.266   4.948   7.787  1.3918  0.8486  0.7324
  171SAPE  C22019389   3.124   5.079   7.902 -0.2222  0.4213 -0.9799
  171SAPE  H20R19390   3.038   5.010   7.887  0.6349 -0.7583 -0.5919
  171SAPE  H20S19391   3.086   5.182   7.914 -1.0225 -0.0326  0.6453
  171SAPE  H20T19392   3.176   5.048   7.995 -2.3980 -0.7917 -0.0882
  171SAPE   C3319393   3.571   5.850   6.888 -0.6880  0.1704  0.0207
  171SAPE   H3X19394   3.540   5.743   6.887  2.7469 -0.9564 -1.1475
  171SAPE   H3Y19395   3.493   5.912   6.937 -0.1182  0.1804  0.9370
  171SAPE   C3419396   3.693   5.856   6.981  0.0595  0.0564 -0.3701
  171SAPE   H4X19397   3.752   5.950   6.967  3.5233 -1.3697  2.7369
  171SAPE   H4Y19398   3.768   5.775   6.967  1.0108  1.2131 -2.3866
  171SAPE   C3519399   3.650   5.847   7.132 -0.2279  0.3442  0.2809
  171SAPE   H5X19400   3.572   5.925   7.145  0.1479  0.6602  0.6763
  171SAPE   H5Y19401   3.744   5.881   7.182  0.8568 -3.4052  1.1162
  171SAPE   C3619402   3.612   5.712   7.186  0.3032 -0.0011 -0.7234
  171SAPE   H6X19403   3.541   5.667   7.114 -0.3716  1.4135 -0.9848
  171SAPE   H6Y19404   3.568   5.726   7.287 -0.0178 -2.3639 -0.4767
  171SAPE   C3719405   3.735   5.613   7.208 -0.4143  0.7659  0.2122
  171SAPE   H7X19406   3.795   5.582   7.120 -0.4051  0.6849  0.2470
  171SAPE   H7Y19407   3.681   5.519   7.231 -1.4038  1.2626 -0.0148
  171SAPE   C3819408   3.831   5.659   7.327 -0.0331 -0.2912 -0.4854
  171SAPE   H8X19409   3.871   5.756   7.291 -1.1991 -0.2027 -1.6156
  171SAPE   H8Y19410   3.908   5.579   7.330  1.5759  1.2258  1.2108
  171SAPE   C3919411   3.763   5.681   7.458  0.3312 -0.0991 -0.0214
  171SAPE   H9X19412   3.688   5.599   7.466 -0.8120  0.7609 -1.4471
  171SAPE   H9Y19413   3.707   5.777   7.455  1.0099  0.2818 -1.3343
  171SAPE  C31019414   3.868   5.679   7.566 -0.4097 -0.2713 -0.2102
  171SAPE  H10X19415   3.946   5.758   7.557  1.7930 -1.6515  3.7535
  171SAPE  H10Y19416   3.936   5.591   7.563  0.4264  0.3431  0.3643
  171SAPE  C31119417   3.808   5.675   7.710  0.1980 -0.5212 -0.2095
  171SAPE  H11X19418   3.773   5.570   7.724 -0.9632  0.1400  2.3277
  171SAPE  H11Y19419   3.728   5.748   7.689  0.6121 -0.1667 -0.5730
  171SAPE  C31219420   3.900   5.717   7.825 -0.2197 -0.7081 -0.2020
  171SAPE  H12X19421   3.925   5.823   7.806  0.3720 -0.7732  0.1815
  171SAPE  H12Y19422   3.989   5.649   7.819 -0.4760 -1.2042  1.2782
  171SAPE  C31319423   3.833   5.670   7.962 -0.1831  0.5953  0.4401
  171SAPE  H13X19424   3.803   5.563   7.966 -0.1226  0.5080 -1.0013
  171SAPE  H13Y19425   3.741   5.733   7.957 -1.1795 -0.7431  1.1799
  171SAPE  C31419426   3.912   5.703   8.086  0.2910 -0.1014 -1.4465
  171SAPE  H14X19427   3.908   5.811   8.112 -0.9267 -0.3920 -0.3329
  171SAPE  H14Y19428   4.016   5.677   8.058  0.0334 -0.9578 -1.6437
  171SAPE  C31519429   3.861   5.634   8.220 -0.1870 -0.0061 -0.5778
  171SAPE  H15X19430   3.930   5.553   8.250 -2.6093 -1.5908  1.0965
  171SAPE  H15Y19431   3.762   5.586   8.202  0.2754 -0.1468 -3.1934
  171SAPE  C31619432   3.859   5.724   8.340 -0.0699 -0.4828  0.5374
  171SAPE  H16X19433   3.776   5.796   8.323  0.9202  1.1224  2.2273
  171SAPE  H16Y19434   3.946   5.792   8.343 -1.7441  2.1174 -2.6393
  171SAPE  C31719435   3.846   5.650   8.473  0.7745  0.0868  0.1160
  171SAPE  H17X19436   3.936   5.608   8.524 -1.2414 -1.7427  2.3984
  171SAPE  H17Y19437   3.777   5.564   8.459 -1.6954  1.5889  2.2236
  171SAPE  C31819438   3.782   5.749   8.565  0.2929  0.5455  0.0775
  171SAPE  H18X19439   3.781   5.716   8.671  1.4115  2.1619  0.6289
  171SAPE  H18Y19440   3.675   5.760   8.536  0.6428 -2.8959 -3.2428
  171SAPE  H18Z19441   3.838   5.844   8.578  0.1899  0.4131  1.7716
  172SAPE     N19442   3.015   4.122   6.389  0.2789  0.2634  0.2971
  172SAPE   HN119443   3.036   4.070   6.477  0.4925  1.4693  0.9704
  172SAPE   HN219444   3.023   4.224   6.404 -3.0222  0.7576 -0.6322
  172SAPE   HN319445   2.917   4.105   6.360  0.2878  1.0767 -0.2199
  172SAPE   C1219446   3.100   4.077   6.267  0.6788  0.0124 -0.4683
  172SAPE  H12A19447   3.071   4.157   6.196 -1.4793  2.8999  3.2799
  172SAPE  H12B19448   3.060   3.979   6.233  1.4557  0.3436 -2.4438
  172SAPE   C1119449   3.251   4.080   6.291  0.2950  0.3115  0.2274
  172SAPE  H11A19450   3.309   4.025   6.214  1.8248  0.5239  1.1912
  172SAPE  H11B19451   3.253   4.032   6.391 -1.3273  1.2373  0.7342
  172SAPE     P19452   3.426   4.263   6.330 -0.4600 -0.3728  0.7041
  172SAPE   O1319453   3.527   4.164   6.276 -0.5017 -0.0097 -0.1623
  172SAPE   O1419454   3.451   4.405   6.291 -0.3018  0.8226  0.2324
  172SAPE   O1219455   3.284   4.216   6.295  0.4866  0.6353 -0.7563
  172SAPE   O1119456   3.431   4.256   6.486 -0.1525  0.1433  0.0752
  172SAPE    C119457   3.338   4.326   6.569 -0.3105 -0.1828  0.1351
  172SAPE    HA19458   3.304   4.422   6.525  0.0249  0.4848  1.3007
  172SAPE    HB19459   3.246   4.263   6.577  1.3391 -2.6809  0.6683
  172SAPE    C219460   3.384   4.352   6.719 -0.1856 -0.1172  0.5717
  172SAPE    HS19461   3.495   4.357   6.726 -0.3243  0.7976  4.8362
  172SAPE   O2119462   3.328   4.253   6.803  0.4936  0.2535  0.4431
  172SAPE   C2119463   3.373   4.231   6.923 -0.3871 -0.4879  0.1412
  172SAPE   O2219464   3.472   4.281   6.970 -0.0483  0.7087 -0.3045
  172SAPE   C2219465   3.283   4.121   6.989  0.7718 -0.4403  0.5004
  172SAPE   H2R19466   3.181   4.164   6.984  1.6029  1.9387  1.8515
  172SAPE   H2S19467   3.305   4.035   6.923 -0.4002 -0.2752 -0.1182
  172SAPE    C319468   3.340   4.499   6.766 -0.2988 -0.0912 -0.2137
  172SAPE    HX19469   3.230   4.515   6.759 -0.7389 -2.2580  0.8865
  172SAPE    HY19470   3.386   4.564   6.688  2.1983 -0.0979  1.1655
  172SAPE   O3119471   3.382   4.538   6.899  0.0349  1.1525 -0.3788
  172SAPE   C3119472   3.517   4.576   6.897 -0.4316  0.0007 -0.7097
  172SAPE   O3219473   3.583   4.577   6.794 -0.0535 -0.6638  0.3349
  172SAPE   C3219474   3.560   4.625   7.039  0.0250  0.3324 -0.3226
  172SAPE   H2X19475   3.510   4.723   7.055 -0.5098  0.2465 -1.3415
  172SAPE   H2Y19476   3.670   4.643   7.037  0.3119 -1.2552 -0.3938
  172SAPE   C2319477   3.321   4.082   7.133  0.7401  0.0040 -0.2822
  172SAPE   H3R19478   3.301   4.166   7.203 -0.7385 -0.1578 -0.4710
  172SAPE   H3S19479   3.430   4.063   7.129  1.2396  2.6562 -1.0342
  172SAPE   C2419480   3.247   3.952   7.171  0.3390 -0.0154  0.1193
  172SAPE   H4R19481   3.212   3.898   7.080 -1.8571  2.4728 -0.6469
  172SAPE   H4S19482   3.153   3.980   7.223  0.2257  0.7205 -0.4664
  172SAPE   C2519483   3.330   3.860   7.266 -0.0187  0.2469  0.1717
  172SAPE   H5R19484   3.371   3.768   7.221 -2.5180 -0.8653  0.0083
  172SAPE   C2619485   3.349   3.883   7.395 -0.0743 -0.1633 -0.3139
  172SAPE   H6R19486   3.414   3.819   7.457  1.2873 -0.3699 -1.9014
  172SAPE   C2719487   3.299   4.005   7.477 -0.2273 -0.0848 -0.0477
  172SAPE   H7R19488   3.220   3.975   7.550 -0.7491  1.2263 -0.0395
  172SAPE   H7S19489   3.250   4.080   7.411 -0.1893  0.7909  0.8992
  172SAPE   C2819490   3.418   4.066   7.544  0.5470  0.1624 -0.1483
  172SAPE   H8R19491   3.473   4.143   7.487  1.5532  1.0199  1.8808
  172SAPE   C2919492   3.463   4.019   7.662 -0.3819  0.6754  0.0040
  172SAPE   H9R19493   3.543   4.078   7.708 -0.5609  0.7968  0.1591
  172SAPE  C21019494   3.390   3.911   7.751  0.2199 -0.0622  0.2675
  172SAPE  H10R19495   3.373   3.822   7.688  1.4091  0.3486 -0.6906
  172SAPE  H10S19496   3.289   3.949   7.778  0.5317  1.7447 -0.9110
  172SAPE  C21119497   3.463   3.879   7.881 -0.5468  0.6149  0.2264
  172SAPE  H11R19498   3.568   3.851   7.863 -0.1947 -1.2897  4.0099
  172SAPE  C21219499   3.408   3.856   8.002  0.3872 -0.0881  0.0986
  172SAPE  H12R19500   3.479   3.812   8.074  0.5687  1.7940  1.1343
  172SAPE  C21319501   3.257   3.855   8.041 -0.2977 -0.7306 -0.3127
  172SAPE  H13R19502   3.232   3.772   8.111 -1.1176 -1.7333 -1.7297
  172SAPE  H13S19503   3.196   3.820   7.955  0.5191  0.0276 -1.2249
  172SAPE  C21419504   3.211   3.985   8.102  0.2827 -0.3087 -0.2337
  172SAPE  H14R19505   3.242   4.075   8.048  0.5737  0.5502  1.3033
  172SAPE  C21519506   3.128   4.005   8.201 -0.0078 -0.6620 -0.3072
  172SAPE  H15R19507   3.101   4.110   8.220 -0.9269 -1.2436  1.9127
  172SAPE  C21619508   3.059   3.909   8.289  0.5959  1.4089 -0.1614
  172SAPE  H16R19509   3.068   3.799   8.275 -1.4911  0.8841  2.0291
  172SAPE  H16S19510   2.950   3.917   8.269  0.2016 -1.3213  0.4700
  172SAPE  C21719511   3.082   3.934   8.436 -0.2794  0.0287 -0.5935
  172SAPE  H17R19512   3.033   4.028   8.469  1.9041  0.8826  0.4225
  172SAPE  H17S19513   3.192   3.937   8.453 -0.1252 -2.8043 -0.5726
  172SAPE  C21819514   3.019   3.824   8.528  0.4539 -0.4726  0.1908
  172SAPE  H18R19515   3.037   3.863   8.630 -0.0530  2.0482 -0.6057
  172SAPE  H18S19516   3.074   3.728   8.519  1.9727  0.3611  0.1893
  172SAPE  C21919517   2.872   3.803   8.522  1.4171 -0.0863 -0.7316
  172SAPE  H19R19518   2.845   3.730   8.443  0.8259 -0.0093 -0.6096
  172SAPE  H19S19519   2.822   3.900   8.498  3.8482  2.5242  3.4407
  172SAPE  C22019520   2.809   3.776   8.663  0.3455  0.5148 -0.2654
  172SAPE  H20R19521   2.700   3.793   8.650  0.2606 -1.3032 -2.7122
  172SAPE  H20S19522   2.849   3.841   8.743 -1.1659 -0.1755  1.1000
  172SAPE  H20T19523   2.830   3.668   8.681 -1.4471  0.3513  1.1443
  172SAPE   C3319524   3.527   4.526   7.148 -0.2474  0.2150  0.1021
  172SAPE   H3X19525   3.568   4.427   7.119 -4.3717 -2.0045  1.1287
  172SAPE   H3Y19526   3.417   4.511   7.146 -0.0907 -0.9468 -0.9489
  172SAPE   C3419527   3.577   4.558   7.283  0.9648 -0.5890 -1.0082
  172SAPE   H4X19528   3.568   4.668   7.295 -1.5519 -0.8034 -0.3784
  172SAPE   H4Y19529   3.683   4.532   7.303  0.8672 -1.2471 -1.3091
  172SAPE   C3519530   3.505   4.492   7.400  0.1098 -0.5101  0.4033
  172SAPE   H5X19531   3.497   4.383   7.377 -3.7550 -0.0029 -1.4713
  172SAPE   H5Y19532   3.398   4.521   7.403  0.3583  0.4273  0.3094
  172SAPE   C3619533   3.583   4.514   7.532 -0.0082  0.3605  0.5795
  172SAPE   H6X19534   3.573   4.622   7.555  0.8633  0.8898 -1.3113
  172SAPE   H6Y19535   3.692   4.499   7.515  0.5552  2.4731  1.9456
  172SAPE   C3719536   3.523   4.432   7.644 -0.0163 -1.0578 -0.2500
  172SAPE   H7X19537   3.512   4.326   7.611 -0.6693 -1.4826  1.2413
  172SAPE   H7Y19538   3.427   4.474   7.681  1.0085  1.1316  0.0630
  172SAPE   C3819539   3.612   4.432   7.773 -0.4459 -0.1775 -1.1967
  172SAPE   H8X19540   3.612   4.535   7.815 -1.4026 -0.8937  0.6913
  172SAPE   H8Y19541   3.717   4.403   7.749 -0.4014  0.1288 -1.3779
  172SAPE   C3919542   3.556   4.341   7.878 -0.4278 -0.5180 -0.1626
  172SAPE   H9X19543   3.564   4.232   7.858  1.8348 -0.1789 -1.4593
  172SAPE   H9Y19544   3.450   4.369   7.895 -0.1664 -0.4656  1.6034
  172SAPE  C31019545   3.614   4.366   8.016 -0.1022  0.5613 -0.5808
  172SAPE  H10X19546   3.602   4.467   8.062  3.2234  1.2097 -0.8457
  172SAPE  H10Y19547   3.721   4.336   8.028 -0.5553 -0.6237  0.7066
  172SAPE  C31119548   3.546   4.277   8.122  0.0303  0.6435  0.2127
  172SAPE  H11X19549   3.572   4.171   8.101 -2.3066  0.5319 -2.7724
  172SAPE  H11Y19550   3.436   4.263   8.122  0.1879 -0.6780  0.5234
  172SAPE  C31219551   3.592   4.306   8.264 -0.0076  0.0697 -0.3530
  172SAPE  H12X19552   3.541   4.400   8.294  1.2166  1.4930 -2.4598
  172SAPE  H12Y19553   3.697   4.341   8.258  0.6046 -1.4849  0.5986
  172SAPE  C31319554   3.570   4.192   8.370  0.2614  0.8386 -0.4102
  172SAPE  H13X19555   3.574   4.095   8.317  0.1947  1.8524 -2.3567
  172SAPE  H13Y19556   3.463   4.195   8.403 -0.6349  0.7564 -3.0782
  172SAPE  C31419557   3.669   4.177   8.487  0.9112  0.0266 -0.3287
  172SAPE  H14X19558   3.725   4.273   8.493  1.8655 -0.3503 -2.6116
  172SAPE  H14Y19559   3.744   4.096   8.480 -0.4835 -1.4261  0.7800
  172SAPE  C31519560   3.591   4.150   8.622  0.1177 -0.5027 -0.1968
  172SAPE  H15X19561   3.515   4.230   8.637  0.1453  0.0358 -2.4801
  172SAPE  H15Y19562   3.654   4.150   8.714 -3.0503 -4.5505  2.3277
  172SAPE  C31619563   3.513   4.020   8.641 -0.3919 -0.3491  0.1109
  172SAPE  H16X19564   3.592   3.943   8.655  0.0183 -0.1253 -0.8745
  172SAPE  H16Y19565   3.466   3.991   8.545 -2.1808  0.8559  0.5982
  172SAPE  C31719566   3.408   4.018   8.756 -0.2694 -0.2432 -0.9868
  172SAPE  H17X19567   3.324   4.090   8.745  0.6372  0.8967 -0.6513
  172SAPE  H17Y19568   3.459   4.062   8.845 -1.7226 -0.9034  0.2192
  172SAPE  C31819569   3.346   3.881   8.788 -0.0086 -0.0235  0.7152
  172SAPE  H18X19570   3.298   3.883   8.889 -0.3324  1.7731  0.5619
  172SAPE  H18Y19571   3.423   3.801   8.796 -0.8291 -0.7748  1.3339
  172SAPE  H18Z19572   3.270   3.866   8.708  1.3074  0.2726 -0.6312
  173SOPE     N19573   4.253   2.126  10.721  0.7723  0.2212 -0.3345
  173SOPE   HN119574   4.312   2.173  10.649  0.6012 -0.8187 -1.1993
  173SOPE   HN219575   4.237   2.199  10.793 -0.9908 -0.2509 -0.1926
  173SOPE   HN319576   4.301   2.041  10.758 -0.9507 -0.8900 -0.5487
  173SOPE   C1219577   4.117   2.097  10.670  0.3306  0.1352 -0.3308
  173SOPE  H12A19578   4.051   2.079  10.758  0.7706  1.2916  0.2566
  173SOPE  H12B19579   4.118   2.016  10.594  2.3743  0.4899 -0.7565
  173SOPE   C1119580   4.055   2.223  10.592  0.6679 -0.6045 -0.0530
  173SOPE  H11A19581   3.961   2.186  10.546 -0.8099  1.1861  1.3543
  173SOPE  H11B19582   4.126   2.251  10.512 -2.1216 -0.7988 -2.7989
  173SOPE     P19583   3.875   2.348  10.745  0.2234 -0.7334 -0.0137
  173SOPE   O1319584   3.877   2.474  10.821  0.0517  0.3027 -0.0660
  173SOPE   O1419585   3.835   2.228  10.815  0.5653  0.6050 -0.1184
  173SOPE   O1219586   4.018   2.335  10.687 -0.2340 -0.1397 -0.5445
  173SOPE   O1119587   3.793   2.361  10.609 -0.3611  0.4612  0.1914
  173SOPE    C119588   3.826   2.461  10.505  0.0724 -0.1747 -0.8768
  173SOPE    HA19589   3.787   2.423  10.408 -3.0729 -1.5369  0.7960
  173SOPE    HB19590   3.936   2.480  10.500  0.5067 -2.2167 -0.0171
  173SOPE    C219591   3.763   2.605  10.534 -0.0695  0.3098 -0.1075
  173SOPE    HS19592   3.777   2.628  10.641  0.9601  1.0248 -0.3847
  173SOPE   O2119593   3.624   2.603  10.496  0.0086  0.0174 -0.6689
  173SOPE   C2119594   3.544   2.690  10.554 -0.0275  0.5927  0.3555
  173SOPE   O2219595   3.581   2.773  10.632 -0.5736  0.1198 -0.5651
  173SOPE   C2219596   3.404   2.648  10.509  0.3834 -0.1008  0.1103
  173SOPE   H2R19597   3.336   2.732  10.536 -2.3325 -2.2150  0.2642
  173SOPE   H2S19598   3.373   2.564  10.574  2.1068  0.3140  1.5494
  173SOPE    C319599   3.848   2.714  10.458  0.0107  0.0950 -0.2546
  173SOPE    HX19600   3.946   2.716  10.510  0.0359 -1.0999 -0.2309
  173SOPE    HY19601   3.804   2.814  10.481 -3.1927 -1.3500  0.4101
  173SOPE   O3119602   3.866   2.692  10.321 -0.1224 -0.2662  0.4794
  173SOPE   C3119603   3.771   2.748  10.241  0.6464  0.0103 -0.3874
  173SOPE   O3219604   3.693   2.829  10.286 -0.1962  0.3196 -0.6595
  173SOPE   C3219605   3.795   2.712  10.101  0.0499 -0.4094  0.7473
  173SOPE   H2X19606   3.830   2.606  10.101  2.6039  0.3748  0.5563
  173SOPE   H2Y19607   3.886   2.762  10.063  1.3047 -1.2583  2.4789
  173SOPE   C2319608   3.391   2.621  10.359 -0.5310 -0.3630  0.3252
  173SOPE   H3R19609   3.453   2.529  10.350  0.4945  0.2430  1.0063
  173SOPE   H3S19610   3.446   2.696  10.298 -2.5306  0.3842 -0.6270
  173SOPE   C2419611   3.249   2.599  10.295 -0.8474  0.5238  0.8718
  173SOPE   H4R19612   3.195   2.513  10.340 -0.4202  0.4686  1.2914
  173SOPE   H4S19613   3.186   2.687  10.321  0.1422  0.8643  2.2083
  173SOPE   C2519614   3.259   2.606  10.144  0.1528  0.2865  0.2164
  173SOPE   H5R19615   3.291   2.708  10.116 -1.7581  0.8201 -0.1495
  173SOPE   H5S19616   3.328   2.532  10.100 -1.2711 -0.5093 -0.7719
  173SOPE   C2619617   3.128   2.586  10.064  0.6095 -0.6500  0.0965
  173SOPE   H6R19618   3.054   2.652  10.116  1.3807 -1.2476  2.0570
  173SOPE   H6S19619   3.142   2.605   9.956 -0.0859 -1.1473 -0.0863
  173SOPE   C2719620   3.077   2.441  10.080  0.9125  0.6097  0.0483
  173SOPE   H7R19621   3.159   2.373  10.047 -0.7325 -1.2354 -0.3942
  173SOPE   H7S19622   3.066   2.437  10.190  4.6919  1.8529  0.6341
  173SOPE   C2819623   2.947   2.411  10.002  0.1486  0.7127  0.8348
  173SOPE   H8R19624   2.898   2.321  10.043  0.0784 -0.5444 -1.7971
  173SOPE   H8S19625   2.876   2.495  10.014 -2.1021 -1.0994  0.7893
  173SOPE   C2919626   2.969   2.390   9.850 -0.5104  0.3831  0.3557
  173SOPE   H9119627   3.055   2.324   9.830  0.7528  1.2452  2.5295
  173SOPE  C21019628   2.906   2.444   9.748 -0.6393  0.0423  0.0846
  173SOPE  H10119629   2.939   2.420   9.646 -1.7603  0.1941 -0.3225
  173SOPE  C21119630   2.795   2.549   9.764  0.1122 -0.1916  1.1745
  173SOPE  H11R19631   2.818   2.619   9.846  0.7186  0.0614  0.7937
  173SOPE  H11S19632   2.705   2.489   9.790 -0.8312 -1.0127 -3.0991
  173SOPE  C21219633   2.760   2.631   9.637  0.1095  0.0216  0.5570
  173SOPE  H12R19634   2.842   2.693   9.595 -0.0597 -1.2930 -1.8912
  173SOPE  H12S19635   2.680   2.702   9.666 -0.1621  0.5626 -1.4025
  173SOPE  C21319636   2.688   2.543   9.536  0.5144 -1.2362  0.1683
  173SOPE  H13R19637   2.609   2.487   9.591  1.5126 -1.3768  1.4980
  173SOPE  H13S19638   2.754   2.465   9.493  1.4205 -0.9497  1.0080
  173SOPE  C21419639   2.612   2.623   9.429  0.0094  0.5125  0.4425
  173SOPE  H14R19640   2.681   2.697   9.382  0.2233  0.7389  1.1098
  173SOPE  H14S19641   2.537   2.686   9.483  0.8588  0.1977  2.0371
  173SOPE  C21519642   2.559   2.529   9.314  0.5198  0.0648  0.0900
  173SOPE  H15R19643   2.471   2.473   9.352  0.2394 -1.2912 -2.3747
  173SOPE  H15S19644   2.643   2.466   9.277 -1.2726 -1.7050 -1.2138
  173SOPE  C21619645   2.500   2.613   9.190 -0.9291 -0.2763 -0.7104
  173SOPE  H16R19646   2.473   2.711   9.235  1.2396 -0.2014  0.5575
  173SOPE  H16S19647   2.404   2.568   9.159 -1.1610  0.8855 -1.7655
  173SOPE  C21719648   2.597   2.641   9.072  0.3842 -0.0749  0.5050
  173SOPE  H17R19649   2.652   2.549   9.045  0.1814 -0.5177  1.5660
  173SOPE  H17S19650   2.660   2.727   9.103 -1.0755  0.7564  1.3137
  173SOPE  C21819651   2.524   2.689   8.946  0.0783 -0.0275 -0.1838
  173SOPE  H18R19652   2.599   2.708   8.866 -0.0557 -1.2752 -0.6328
  173SOPE  H18S19653   2.463   2.779   8.966  1.5696  0.7545  1.1157
  173SOPE  H18T19654   2.460   2.604   8.912 -2.3535  1.4629  0.4789
  173SOPE   C3319655   3.676   2.749  10.010  0.4249  0.8718 -0.9890
  173SOPE   H3X19656   3.668   2.859   9.998  0.3462  1.2319  1.6559
  173SOPE   H3Y19657   3.579   2.712  10.048  1.2913  2.1122  3.0197
  173SOPE   C3419658   3.706   2.693   9.870  0.3611  0.1347  0.0461
  173SOPE   H4X19659   3.699   2.582   9.877  0.6993 -0.0250 -1.7006
  173SOPE   H4Y19660   3.812   2.716   9.846  1.0566 -1.2518  1.5473
  173SOPE   C3519661   3.606   2.745   9.766 -0.0500  0.4870  0.6694
  173SOPE   H5X19662   3.618   2.855   9.758  1.5432  0.3410  0.6059
  173SOPE   H5Y19663   3.507   2.729   9.812  0.8547 -1.1563  2.1891
  173SOPE   C3619664   3.609   2.669   9.634 -0.3040  0.5714  0.5151
  173SOPE   H6X19665   3.519   2.695   9.573 -0.5190 -0.6881  0.2596
  173SOPE   H6Y19666   3.596   2.560   9.646 -0.7385  0.6186  0.5012
  173SOPE   C3719667   3.721   2.705   9.540 -1.1519 -0.5912  0.4536
  173SOPE   H7X19668   3.726   2.616   9.473 -0.0336  0.1128 -0.4408
  173SOPE   H7Y19669   3.819   2.707   9.592 -1.3873 -3.1385  1.1515
  173SOPE   C3819670   3.704   2.843   9.474 -0.3595 -0.3054 -0.3415
  173SOPE   H8X19671   3.716   2.925   9.549 -2.3893 -1.5838  1.5176
  173SOPE   H8Y19672   3.597   2.858   9.447 -0.0234  1.1626 -0.9448
  173SOPE   C3919673   3.790   2.856   9.351  0.2157  0.3861 -0.0718
  173SOPE   H9X19674   3.891   2.825   9.387 -0.2204 -0.4505  0.4509
  173SOPE   H9Y19675   3.795   2.957   9.304  2.9722  0.0207 -0.7505
  173SOPE  C31019676   3.742   2.760   9.231 -0.0046  0.6738 -0.5403
  173SOPE  H10X19677   3.657   2.806   9.175 -1.2665 -1.5692 -0.5595
  173SOPE  H10Y19678   3.709   2.663   9.272 -2.3369  1.7616  0.3555
  173SOPE  C31119679   3.854   2.738   9.128 -0.6917  0.1058 -0.0767
  173SOPE  H11X19680   3.957   2.752   9.166 -1.0204  2.0729  0.1944
  173SOPE  H11Y19681   3.835   2.814   9.049 -2.1872 -0.4876 -0.3304
  173SOPE  C31219682   3.845   2.602   9.052 -0.3062 -0.1255  0.2002
  173SOPE  H12X19683   3.913   2.609   8.964 -0.6062  0.6638  0.0217
  173SOPE  H12Y19684   3.743   2.593   9.010 -1.1973  0.5562  2.1045
  173SOPE  C31319685   3.873   2.479   9.137  0.3229  0.0849  0.0661
  173SOPE  H13X19686   3.849   2.384   9.084 -1.5829  2.1541 -3.1807
  173SOPE  H13Y19687   3.797   2.482   9.219  0.3184 -1.0021  0.1130
  173SOPE  C31419688   4.010   2.465   9.202 -0.0254  0.1640 -0.3876
  173SOPE  H14X19689   4.021   2.535   9.288 -2.6237 -0.4942  0.5738
  173SOPE  H14Y19690   4.086   2.500   9.129  0.6232 -0.1260  0.1438
  173SOPE  C31519691   4.048   2.319   9.244 -0.1163 -0.6034  0.3797
  173SOPE  H15X19692   4.157   2.333   9.258  0.1695  0.5633 -2.3220
  173SOPE  H15Y19693   4.035   2.268   9.146  1.1604 -0.8405  0.3241
  173SOPE  C31619694   3.961   2.267   9.358  0.3639  0.8014 -0.0906
  173SOPE  H16X19695   3.982   2.158   9.364 -0.9838  0.4268 -1.4276
  173SOPE  H16Y19696   3.850   2.272   9.347  0.0578  0.8374  2.5522
  173SOPE  C31719697   3.990   2.326   9.494 -0.1944 -0.0091  0.4713
  173SOPE  H17X19698   3.962   2.433   9.500  0.4276  0.1899 -0.0506
  173SOPE  H17Y19699   4.101   2.317   9.501 -0.2625 -1.5661  0.0186
  173SOPE  C31819700   3.918   2.248   9.607  0.5369  0.1811  0.6066
  173SOPE  H18X19701   3.965   2.272   9.705 -1.2190 -0.1045  1.5728
  173SOPE  H18Y19702   3.920   2.138   9.590 -0.0064  0.4026 -1.0782
  173SOPE  H18Z19703   3.812   2.280   9.619 -0.2249 -1.0665 -2.1131
  174SOPE     N19704   3.839   1.696  11.091 -0.3732 -0.6516  0.0607
  174SOPE   HN119705   3.774   1.749  11.031  0.6989 -1.0388 -1.4896
  174SOPE   HN219706   3.846   1.602  11.048 -0.3321 -0.6956  0.1624
  174SOPE   HN319707   3.792   1.685  11.183  1.3291  0.4044  1.1140
  174SOPE   C1219708   3.985   1.749  11.085 -0.2249 -0.1267 -0.3293
  174SOPE  H12A19709   4.052   1.687  11.148 -1.0500 -0.5584  0.1485
  174SOPE  H12B19710   3.989   1.851  11.131 -1.8634 -0.4986  0.7345
  174SOPE   C1119711   4.023   1.781  10.939 -0.2580 -0.2908  0.8036
  174SOPE  H11A19712   4.125   1.824  10.942 -1.2719  2.5103 -1.2479
  174SOPE  H11B19713   3.958   1.856  10.889 -0.7227 -2.0415 -1.3499
  174SOPE     P19714   4.052   1.662  10.706  0.5304  0.0491  0.5081
  174SOPE   O1319715   4.030   1.527  10.640  0.1089  0.0698 -0.1130
  174SOPE   O1419716   4.185   1.727  10.689 -0.0680 -0.0345  1.0089
  174SOPE   O1219717   4.023   1.661  10.861 -0.3689 -0.4355  0.3542
  174SOPE   O1119718   3.938   1.757  10.651  0.0566  0.1266  0.2658
  174SOPE    C119719   3.799   1.719  10.643  0.4564 -0.3368  0.1196
  174SOPE    HA19720   3.749   1.713  10.743 -1.4108  1.7291 -0.6135
  174SOPE    HB19721   3.790   1.617  10.600 -0.7489 -0.4659  0.6114
  174SOPE    C219722   3.714   1.818  10.554  0.2780  0.9602  0.0357
  174SOPE    HS19723   3.611   1.808  10.594  1.0004 -1.9588  1.3889
  174SOPE   O2119724   3.728   1.783  10.418 -0.1542  0.3815  0.1196
  174SOPE   C2119725   3.669   1.669  10.383  0.5060 -0.2469  0.1795
  174SOPE   O2219726   3.598   1.597  10.452  0.0135  0.9038 -0.3245
  174SOPE   C2219727   3.698   1.637  10.236  0.1657  0.1980 -0.4373
  174SOPE   H2R19728   3.650   1.539  10.214  0.0197 -0.2775  1.7781
  174SOPE   H2S19729   3.808   1.624  10.240  0.2875  0.8782 -1.1866
  174SOPE    C319730   3.752   1.967  10.568 -0.0650  0.3527  0.2124
  174SOPE    HX19731   3.863   1.971  10.560  0.0552  0.1214  1.5354
  174SOPE    HY19732   3.729   1.999  10.672 -1.1261  0.0032  0.0988
  174SOPE   O3119733   3.682   2.046  10.468  1.2114 -0.1527 -0.7701
  174SOPE   C3119734   3.591   2.140  10.506 -0.2032 -0.6510  0.1669
  174SOPE   O3219735   3.553   2.157  10.619  0.1602  0.0556 -0.0724
  174SOPE   C3219736   3.571   2.236  10.392 -0.0651 -0.3711 -0.1011
  174SOPE   H2X19737   3.663   2.233  10.330  0.3317  1.9716  0.2446
  174SOPE   H2Y19738   3.566   2.341  10.431  0.7217 -0.3752  0.0376
  174SOPE   C2319739   3.655   1.749  10.137  0.2237 -0.0403 -0.0432
  174SOPE   H3R19740   3.697   1.850  10.158  1.6254  0.0060 -2.5682
  174SOPE   H3S19741   3.544   1.754  10.141  0.2448  0.1283  0.3113
  174SOPE   C2419742   3.697   1.712   9.991 -0.2345  0.2713 -0.1845
  174SOPE   H4R19743   3.808   1.706   9.979 -0.3508 -0.2503 -1.1082
  174SOPE   H4S19744   3.668   1.613   9.951 -2.3110  0.7248  0.1196
  174SOPE   C2519745   3.643   1.805   9.883  0.0852  0.2856 -0.2779
  174SOPE   H5R19746   3.533   1.802   9.872 -0.2173 -1.3651  2.2627
  174SOPE   H5S19747   3.665   1.911   9.909  1.3209 -0.0876  0.2735
  174SOPE   C2619748   3.727   1.800   9.748 -0.2412  0.5848  0.9985
  174SOPE   H6R19749   3.830   1.823   9.782 -0.1055  2.8988 -0.7265
  174SOPE   H6S19750   3.724   1.698   9.704 -0.9226 -0.0733  2.5068
  174SOPE   C2719751   3.677   1.903   9.652 -0.2695 -0.0126 -1.0056
  174SOPE   H7R19752   3.635   1.986   9.713 -0.6298 -0.2286 -0.9581
  174SOPE   H7S19753   3.762   1.952   9.600 -0.6159  0.6632 -0.9392
  174SOPE   C2819754   3.582   1.863   9.536 -0.2462 -0.6813 -0.3361
  174SOPE   H8R19755   3.576   1.953   9.471  2.2230  2.2836  3.1524
  174SOPE   H8S19756   3.622   1.774   9.483  0.1800 -1.6939  1.5963
  174SOPE   C2919757   3.441   1.836   9.571 -0.3492 -0.4863  0.0606
  174SOPE   H9119758   3.408   1.875   9.668  0.1035 -2.3236  0.9918
  174SOPE  C21019759   3.351   1.769   9.497  0.6452 -0.6077 -0.5868
  174SOPE  H10119760   3.259   1.742   9.550 -0.2679  0.8374 -1.3645
  174SOPE  C21119761   3.375   1.705   9.359 -0.8299 -0.6805  0.0279
  174SOPE  H11R19762   3.339   1.600   9.352 -0.3619 -0.7539 -2.2739
  174SOPE  H11S19763   3.486   1.702   9.352 -0.3117  1.5283  4.1709
  174SOPE  C21219764   3.327   1.788   9.239 -1.0766 -0.4238 -0.2961
  174SOPE  H12R19765   3.353   1.896   9.249  0.1569 -0.7137 -0.1689
  174SOPE  H12S19766   3.218   1.778   9.223 -1.1266 -1.9190  0.7672
  174SOPE  C21319767   3.405   1.749   9.109 -0.4658  0.1918 -0.4610
  174SOPE  H13R19768   3.376   1.646   9.078 -1.8731  0.0728  1.1049
  174SOPE  H13S19769   3.514   1.729   9.118 -0.2950  1.4081  0.3958
  174SOPE  C21419770   3.383   1.844   8.988  0.5762 -0.5281 -0.1451
  174SOPE  H14R19771   3.424   1.795   8.897  0.1169  0.0130 -0.6520
  174SOPE  H14S19772   3.424   1.944   9.014  0.4090 -0.2694 -0.8522
  174SOPE  C21519773   3.235   1.866   8.966 -0.8672  0.2692 -0.0512
  174SOPE  H15R19774   3.198   1.924   9.054  1.9011  1.8093  0.2090
  174SOPE  H15S19775   3.187   1.767   8.954 -0.4693 -0.2745  2.2748
  174SOPE  C21619776   3.205   1.944   8.838 -0.1340 -0.3594  0.2055
  174SOPE  H16R19777   3.238   2.050   8.843 -0.6831 -0.2133  0.8342
  174SOPE  H16S19778   3.094   1.937   8.835 -0.2183  0.3992  1.1479
  174SOPE  C21719779   3.266   1.899   8.703 -0.0730 -0.7231  0.4753
  174SOPE  H17R19780   3.246   1.791   8.686  1.5723 -1.0161  0.2525
  174SOPE  H17S19781   3.376   1.908   8.712 -0.1307  0.3585  0.2424
  174SOPE  C21819782   3.218   1.983   8.576 -0.4069 -0.1021 -0.5758
  174SOPE  H18R19783   3.243   2.089   8.598 -1.5193  0.5213 -2.0992
  174SOPE  H18S19784   3.110   1.971   8.552  0.1263 -3.5808 -1.7825
  174SOPE  H18T19785   3.267   1.962   8.478 -1.9412  1.8372 -1.8324
  174SOPE   C3319786   3.441   2.190  10.316 -0.6409 -0.2404  0.1959
  174SOPE   H3X19787   3.423   2.268  10.239  2.1884  0.0759 -0.2603
  174SOPE   H3Y19788   3.350   2.190  10.380 -0.4997 -0.5289  0.3970
  174SOPE   C3419789   3.463   2.055  10.254 -0.3192 -0.2811 -0.2372
  174SOPE   H4X19790   3.524   1.987  10.316 -1.0328  0.4120  1.2743
  174SOPE   H4Y19791   3.518   2.057  10.157 -0.7233 -1.0716 -0.4859
  174SOPE   C3519792   3.335   1.970  10.226  0.1436  0.0754  0.1580
  174SOPE   H5X19793   3.288   1.960  10.327  1.6355 -1.8510  0.7375
  174SOPE   H5Y19794   3.368   1.867  10.201 -1.8462 -0.9337  1.4000
  174SOPE   C3619795   3.249   2.025  10.109  0.0207  0.1621 -0.7579
  174SOPE   H6X19796   3.323   2.043  10.029  1.6812  0.3440  0.7393
  174SOPE   H6Y19797   3.202   2.124  10.129 -0.7550  0.4068 -3.4958
  174SOPE   C3719798   3.136   1.925  10.060  0.0370 -0.2280  0.0467
  174SOPE   H7X19799   3.071   1.908  10.148 -0.7471  0.2118 -0.4277
  174SOPE   H7Y19800   3.180   1.826  10.034 -2.7050 -1.5951  0.1569
  174SOPE   C3819801   3.064   1.965   9.933  0.0697  0.2984 -0.5188
  174SOPE   H8X19802   3.119   2.039   9.871  0.1860 -1.2542 -2.3572
  174SOPE   H8Y19803   2.965   2.007   9.963 -0.2074  0.3144 -1.4201
  174SOPE   C3919804   3.040   1.846   9.843 -0.0921 -0.2928  0.3663
  174SOPE   H9X19805   3.004   1.753   9.891  1.1650 -0.8088  0.3423
  174SOPE   H9Y19806   3.139   1.816   9.802 -0.4741  2.1739 -2.7726
  174SOPE  C31019807   2.949   1.870   9.718  0.0047 -0.4318  0.7483
  174SOPE  H10X19808   2.853   1.919   9.746  0.4109  0.2725  0.9481
  174SOPE  H10Y19809   2.909   1.780   9.668  0.1636 -0.1886  0.1772
  174SOPE  C31119810   3.012   1.967   9.616  0.2542 -0.4371 -0.0839
  174SOPE  H11X19811   3.088   1.921   9.549  0.1958 -0.5264 -0.0893
  174SOPE  H11Y19812   3.060   2.056   9.662  0.1636 -0.4293 -0.0048
  174SOPE  C31219813   2.905   2.043   9.533 -0.3372 -0.1516  0.0201
  174SOPE  H12X19814   2.828   2.086   9.599  0.0651  0.7364 -0.0711
  174SOPE  H12Y19815   2.852   1.982   9.457  0.1772  0.2272 -0.6599
  174SOPE  C31319816   2.967   2.163   9.460 -0.6899 -0.7933  0.9368
  174SOPE  H13X19817   3.016   2.227   9.536 -1.7645 -1.0303  1.8593
  174SOPE  H13Y19818   2.885   2.225   9.417  0.2993 -0.3979 -0.4566
  174SOPE  C31419819   3.052   2.125   9.339  0.1188 -0.4042 -0.2662
  174SOPE  H14X19820   3.038   2.016   9.329  0.9620 -0.6644  1.1674
  174SOPE  H14Y19821   3.161   2.140   9.354  0.0170 -1.0790  1.3287
  174SOPE  C31519822   3.000   2.181   9.202  0.9637 -0.2363 -0.4104
  174SOPE  H15X19823   2.889   2.183   9.207  0.9441 -2.1141  1.0819
  174SOPE  H15Y19824   3.033   2.124   9.112  1.8894  2.2688 -1.7846
  174SOPE  C31619825   3.058   2.317   9.172 -0.9798  0.5789  0.0057
  174SOPE  H16X19826   3.169   2.314   9.168 -1.0246 -0.6181 -1.1678
  174SOPE  H16Y19827   3.030   2.394   9.247 -1.0199  0.0985  0.4816
  174SOPE  C31719828   2.994   2.365   9.044 -0.8282  0.6541 -0.4862
  174SOPE  H17X19829   2.885   2.385   9.055 -1.0348 -1.3118  1.8104
  174SOPE  H17Y19830   2.997   2.285   8.968 -2.8110 -0.2669  0.3075
  174SOPE  C31819831   3.062   2.496   8.992  0.1601  0.1402 -0.1984
  174SOPE  H18X19832   3.005   2.530   8.903 -1.8802 -0.7441  0.7065
  174SOPE  H18Y19833   3.173   2.495   8.989  0.2037  0.9582  0.6173
  174SOPE  H18Z19834   3.038   2.571   9.071 -0.2670  1.1656 -1.2691
  175SOPE     N19835   5.679   3.222  10.574 -0.0609 -0.5204 -0.1204
  175SOPE   HN119836   5.628   3.264  10.493 -0.4969 -3.0748 -1.2845
  175SOPE   HN219837   5.722   3.301  10.625 -0.7468 -0.9208  1.1085
  175SOPE   HN319838   5.747   3.156  10.531 -0.2703 -1.3650  0.8171
  175SOPE   C1219839   5.599   3.153  10.677  0.3722  0.4633  0.2548
  175SOPE  H12A19840   5.668   3.116  10.755  1.6908 -1.4900 -1.7194
  175SOPE  H12B19841   5.549   3.062  10.639  3.8183 -2.1729  1.5741
  175SOPE   C1119842   5.495   3.248  10.754  0.2315 -0.3003  0.1450
  175SOPE  H11A19843   5.548   3.343  10.773  1.5065 -1.5427  3.5832
  175SOPE  H11B19844   5.479   3.205  10.855 -0.0958  1.8129  1.0300
  175SOPE     P19845   5.373   3.359  10.553  0.4763 -0.0371 -0.1822
  175SOPE   O1319846   5.435   3.290  10.433  0.2077  0.0830 -1.1760
  175SOPE   O1419847   5.438   3.489  10.586  0.1972  0.2341  0.3059
  175SOPE   O1219848   5.371   3.263  10.676 -0.2929 -0.4196 -0.1433
  175SOPE   O1119849   5.217   3.385  10.528  0.2637 -0.0957 -0.0167
  175SOPE    C119850   5.124   3.276  10.523 -0.0717 -0.3275 -0.0520
  175SOPE    HA19851   5.032   3.307  10.578 -0.3324 -1.9541  0.4833
  175SOPE    HB19852   5.165   3.187  10.576  0.2214  0.0458  0.3570
  175SOPE    C219853   5.077   3.237  10.381  0.4191  0.1617 -0.8700
  175SOPE    HS19854   5.173   3.215  10.329  2.0594 -0.2233  2.0936
  175SOPE   O2119855   5.020   3.362  10.330  0.5207  0.1977 -0.8376
  175SOPE   C2119856   5.029   3.377  10.206 -1.1255 -0.8382  0.3795
  175SOPE   O2219857   5.094   3.303  10.136 -0.1128 -0.1641 -0.4228
  175SOPE   C2219858   4.953   3.504  10.164 -0.4991  0.4853  0.0577
  175SOPE   H2R19859   5.001   3.583  10.226 -1.9904  1.3811  0.1372
  175SOPE   H2S19860   4.857   3.477  10.212 -0.0860 -1.2136 -0.0184
  175SOPE    C319861   4.972   3.122  10.386 -0.1035 -0.0041 -0.3781
  175SOPE    HX19862   4.892   3.166  10.449  0.0035 -1.2021  0.6444
  175SOPE    HY19863   4.999   3.024  10.432  2.3545  1.2853  1.1784
  175SOPE   O3119864   4.918   3.110  10.254 -0.1989  0.5140 -0.1348
  175SOPE   C3119865   4.996   3.025  10.178  0.2302  0.1112 -0.0326
  175SOPE   O3219866   5.084   2.958  10.223  0.1082 -0.6598 -0.3803
  175SOPE   C3219867   4.944   3.023  10.034 -0.1172  0.1084 -0.6870
  175SOPE   H2X19868   5.006   3.107   9.996  2.3335 -0.2415  2.1452
  175SOPE   H2Y19869   4.833   3.029  10.041 -0.2315 -2.4681  1.1536
  175SOPE   C2319870   4.948   3.545  10.013  0.2024 -0.9609 -0.0807
  175SOPE   H3R19871   5.053   3.546   9.976  0.3107 -0.1022  0.2350
  175SOPE   H3S19872   4.909   3.649  10.013  0.6611 -0.6814  3.1682
  175SOPE   C2419873   4.857   3.446   9.936 -0.2931 -0.1376 -1.2607
  175SOPE   H4R19874   4.909   3.348   9.945  1.9493  1.0828 -0.1901
  175SOPE   H4S19875   4.759   3.452   9.987  0.2721 -0.2668 -0.1403
  175SOPE   C2519876   4.848   3.470   9.780  0.3215 -0.1230  0.5239
  175SOPE   H5R19877   4.774   3.397   9.741 -0.8780 -0.1937  2.7601
  175SOPE   H5S19878   4.820   3.575   9.753  0.3395 -0.5279 -1.1757
  175SOPE   C2619879   4.979   3.450   9.716 -0.1005 -0.2160 -0.1706
  175SOPE   H6R19880   5.060   3.519   9.745 -0.0459 -0.4064  0.1308
  175SOPE   H6S19881   5.012   3.348   9.747 -2.1863 -0.5589  1.1451
  175SOPE   C2719882   4.963   3.465   9.569  0.8101 -0.3002  0.3181
  175SOPE   H7R19883   4.877   3.399   9.543  0.0851  0.1326  1.5129
  175SOPE   H7S19884   4.929   3.566   9.537 -0.9951 -1.1874 -0.7362
  175SOPE   C2819885   5.094   3.423   9.495 -0.1105  0.1252 -0.2437
  175SOPE   H8R19886   5.175   3.494   9.523  2.2682 -0.3764 -4.7696
  175SOPE   H8S19887   5.125   3.320   9.523 -0.3232 -0.3391 -1.6290
  175SOPE   C2919888   5.081   3.439   9.341 -0.2296 -0.3635  0.2934
  175SOPE   H9119889   5.055   3.534   9.293  2.6956 -0.2785 -1.3777
  175SOPE  C21019890   5.099   3.339   9.250 -0.0195 -0.0491 -0.3372
  175SOPE  H10119891   5.090   3.367   9.144 -1.0886  0.9534 -0.0078
  175SOPE  C21119892   5.142   3.195   9.281  0.6213 -0.1379 -0.0369
  175SOPE  H11R19893   5.054   3.156   9.337 -1.3236  1.9247 -1.4759
  175SOPE  H11S19894   5.229   3.186   9.350 -0.1025  1.1896  1.1110
  175SOPE  C21219895   5.156   3.109   9.151 -0.5446 -0.1481 -0.3980
  175SOPE  H12R19896   5.068   3.119   9.084  0.9118 -1.0079 -2.5380
  175SOPE  H12S19897   5.163   3.001   9.175 -2.0109 -0.1183  0.2967
  175SOPE  C21319898   5.268   3.146   9.056  0.3233  0.2236  0.2538
  175SOPE  H13R19899   5.366   3.122   9.102 -0.3461 -1.3360  0.9329
  175SOPE  H13S19900   5.257   3.256   9.043 -0.0933  0.0963 -0.5180
  175SOPE  C21419901   5.261   3.086   8.908  0.8275 -0.4958 -0.4968
  175SOPE  H14R19902   5.352   3.123   8.856  0.1027  1.3424 -0.5474
  175SOPE  H14S19903   5.176   3.135   8.856  0.4831 -1.6779 -1.0896
  175SOPE  C21519904   5.258   2.934   8.889 -0.1132  0.0906 -0.7121
  175SOPE  H15R19905   5.163   2.898   8.934 -1.3127  1.2002 -2.2547
  175SOPE  H15S19906   5.336   2.904   8.962  0.0547  2.3958  0.1652
  175SOPE  C21619907   5.276   2.875   8.745  0.2760 -0.4687  0.1992
  175SOPE  H16R19908   5.240   2.770   8.747 -0.1452 -0.3694 -1.1280
  175SOPE  H16S19909   5.385   2.879   8.727  0.2169  1.2758  0.0551
  175SOPE  C21719910   5.192   2.948   8.633  0.3911 -0.4741  0.5890
  175SOPE  H17R19911   5.254   3.033   8.597 -1.8097  0.1500 -2.0918
  175SOPE  H17S19912   5.108   3.006   8.676 -0.9714 -1.5234 -0.5565
  175SOPE  C21819913   5.159   2.867   8.510 -0.3623  0.1860  0.4474
  175SOPE  H18R19914   5.118   2.770   8.545 -2.7393  1.1490  0.5201
  175SOPE  H18S19915   5.249   2.847   8.447 -0.7698  0.7533 -0.3264
  175SOPE  H18T19916   5.085   2.906   8.437  0.0591 -1.4296 -0.8995
  175SOPE   C3319917   4.956   2.891   9.962  0.4115  0.0084  0.5155
  175SOPE   H3X19918   4.887   2.884   9.875  0.0314  0.4060  0.7861
  175SOPE   H3Y19919   4.922   2.810  10.030  0.7371 -1.5560 -1.1007
  175SOPE   C3419920   5.100   2.855   9.914 -0.3533 -0.0532  0.2869
  175SOPE   H4X19921   5.097   2.760   9.857  1.8043  1.2826 -2.3120
  175SOPE   H4Y19922   5.169   2.841  10.000 -0.8972  2.8133  1.2826
  175SOPE   C3519923   5.160   2.960   9.827 -0.1881 -0.4679  0.4618
  175SOPE   H5X19924   5.170   3.053   9.886  0.8409 -1.0338  1.2003
  175SOPE   H5Y19925   5.101   2.997   9.740 -0.9022 -1.1757  0.6281
  175SOPE   C3619926   5.298   2.918   9.782  0.2946 -0.1924 -0.6053
  175SOPE   H6X19927   5.284   2.827   9.721 -1.0043 -0.3921 -0.0410
  175SOPE   H6Y19928   5.359   2.889   9.870  0.8413 -1.2219 -1.3098
  175SOPE   C3719929   5.381   3.013   9.701  0.2611 -0.0721  0.3004
  175SOPE   H7X19930   5.471   3.048   9.755 -0.5929  1.4289  0.8353
  175SOPE   H7Y19931   5.315   3.099   9.675  0.3834 -0.2833 -0.7709
  175SOPE   C3819932   5.433   2.947   9.574 -0.2142  0.1066 -1.2494
  175SOPE   H8X19933   5.366   2.878   9.518 -0.9271 -1.3120  1.1933
  175SOPE   H8Y19934   5.516   2.879   9.605  0.2838  1.0008 -0.5829
  175SOPE   C3919935   5.493   3.052   9.487  0.0708 -0.9169  0.7090
  175SOPE   H9X19936   5.562   3.133   9.521  1.1070 -0.9614 -1.1490
  175SOPE   H9Y19937   5.411   3.111   9.442 -0.5899 -2.0056  0.4595
  175SOPE  C31019938   5.563   2.980   9.368  0.3384  0.2311 -0.2314
  175SOPE  H10X19939   5.492   2.904   9.328  0.9464 -0.1970 -0.5093
  175SOPE  H10Y19940   5.655   2.930   9.405  0.0922 -0.2409 -0.2597
  175SOPE  C31119941   5.619   3.069   9.256  0.7935 -0.5056  0.4125
  175SOPE  H11X19942   5.700   3.129   9.301  1.1448 -2.1218  2.0759
  175SOPE  H11Y19943   5.538   3.136   9.221  1.8764  0.9809  0.6878
  175SOPE  C31219944   5.671   2.994   9.133 -0.1220  0.5071  0.1770
  175SOPE  H12X19945   5.580   2.941   9.097  0.3627 -1.2327  1.3774
  175SOPE  H12Y19946   5.744   2.913   9.155 -0.9342 -0.5840 -0.9993
  175SOPE  C31319947   5.710   3.089   9.018  0.0224  0.2618 -0.2498
  175SOPE  H13X19948   5.794   3.156   9.048  1.1764 -0.9855 -0.6232
  175SOPE  H13Y19949   5.618   3.149   8.998  0.5399  1.1665  0.0261
  175SOPE  C31419950   5.754   3.007   8.896 -0.2163 -0.6091 -0.1182
  175SOPE  H14X19951   5.678   2.929   8.871 -0.4492 -1.5869  3.0878
  175SOPE  H14Y19952   5.844   2.950   8.926  1.0483  0.8204 -1.0601
  175SOPE  C31519953   5.797   3.084   8.771 -0.0818  0.3750 -0.3845
  175SOPE  H15X19954   5.890   3.141   8.791  0.0052  0.3224 -0.6446
  175SOPE  H15Y19955   5.720   3.163   8.759 -0.7940 -0.3823 -0.8946
  175SOPE  C31619956   5.815   2.990   8.643  0.3661  0.0652 -0.7713
  175SOPE  H16X19957   5.893   2.917   8.673  1.1786  0.9680 -0.6441
  175SOPE  H16Y19958   5.860   3.034   8.551 -1.0277 -1.5028 -2.2785
  175SOPE  C31719959   5.681   2.939   8.597  0.1263  0.5758 -0.0434
  175SOPE  H17X19960   5.630   2.879   8.675 -1.2978 -0.2561 -1.5349
  175SOPE  H17Y19961   5.705   2.870   8.513 -2.7427 -0.3325 -0.2071
  175SOPE  C31819962   5.587   3.043   8.544  0.5171 -0.4634  0.4061
  175SOPE  H18X19963   5.493   3.003   8.502  0.4776  0.3912 -0.3472
  175SOPE  H18Y19964   5.637   3.115   8.475 -1.0605 -0.1711 -0.4851
  175SOPE  H18Z19965   5.555   3.101   8.632 -1.1379  0.7894 -0.9515
  176SOPE     N19966   4.515   1.533  11.033 -0.3009 -0.1695 -0.3832
  176SOPE   HN119967   4.592   1.603  11.026  0.4930 -0.8570  1.0054
  176SOPE   HN219968   4.462   1.563  11.117 -0.8432 -0.8327 -0.4873
  176SOPE   HN319969   4.554   1.437  11.037 -0.3332 -0.1524  0.4638
  176SOPE   C1219970   4.418   1.531  10.924 -0.1966  0.5529 -0.8445
  176SOPE  H12A19971   4.481   1.500  10.839  1.7366  0.0349  0.7106
  176SOPE  H12B19972   4.375   1.634  10.924 -0.4019  0.5173  1.3205
  176SOPE   C1119973   4.302   1.430  10.941 -0.1946 -0.5965 -0.2588
  176SOPE  H11A19974   4.238   1.448  10.851 -0.4380 -1.8612 -0.3531
  176SOPE  H11B19975   4.243   1.461  11.030 -0.0989 -0.4216 -0.2560
  176SOPE     P19976   4.371   1.211  10.824 -0.4042 -0.0267  0.1315
  176SOPE   O1319977   4.250   1.132  10.805 -0.5496  0.0477 -0.3955
  176SOPE   O1419978   4.497   1.133  10.849 -0.5366 -0.2522  0.1959
  176SOPE   O1219979   4.347   1.296  10.960  0.8922  0.9078 -0.0946
  176SOPE   O1119980   4.396   1.327  10.714  0.4529 -0.4431 -0.8129
  176SOPE    C119981   4.490   1.302  10.616 -0.6996  0.2368  0.2556
  176SOPE    HA19982   4.456   1.216  10.554  1.7385 -1.1823  0.7295
  176SOPE    HB19983   4.582   1.256  10.659 -0.3088  0.0961 -0.7064
  176SOPE    C219984   4.518   1.431  10.537 -0.2436  0.2335  0.1258
  176SOPE    HS19985   4.560   1.494  10.618 -1.9906 -0.5654  1.7266
  176SOPE   O2119986   4.387   1.475  10.487  0.2167 -0.2547 -0.1883
  176SOPE   C2119987   4.393   1.594  10.434  0.8065 -0.4566 -0.1820
  176SOPE   O2219988   4.482   1.677  10.451 -0.6243 -0.2219 -0.2895
  176SOPE   C2219989   4.263   1.603  10.360 -0.0589  0.2183 -0.0675
  176SOPE   H2R19990   4.185   1.595  10.439  1.2690  0.4488  1.3105
  176SOPE   H2S19991   4.250   1.513  10.296 -1.9366 -1.0128  1.9097
  176SOPE    C319992   4.620   1.397  10.434  0.1186 -0.1133 -0.0227
  176SOPE    HX19993   4.714   1.363  10.483 -0.8635 -2.3175  0.4919
  176SOPE    HY19994   4.668   1.477  10.376  3.4755 -1.5945  0.4850
  176SOPE   O3119995   4.581   1.285  10.348  0.0215 -0.4073  0.0262
  176SOPE   C3119996   4.515   1.315  10.239  0.0051  0.4274 -0.8684
  176SOPE   O3219997   4.479   1.424  10.207 -0.0334 -0.8945 -0.1106
  176SOPE   C3219998   4.492   1.191  10.164  0.0518  0.3741  0.4570
  176SOPE   H2X19999   4.449   1.116  10.234  0.2751 -0.5755 -0.3978
  176SOPE   H2Y20000   4.590   1.145  10.137 -0.2335 -0.2892  0.5267
  176SOPE   C2320001   4.233   1.725  10.268 -0.5333  0.1377 -0.1304
  176SOPE   H3R20002   4.288   1.732  10.172 -3.5090  0.7635 -1.9212
  176SOPE   H3S20003   4.258   1.813  10.331 -1.5878 -0.2091  0.8146
  176SOPE   C2420004   4.084   1.736  10.226  0.0167  0.3268  0.2981
  176SOPE   H4R20005   4.065   1.655  10.152  0.8204  0.5180 -0.1316
  176SOPE   H4S20006   4.014   1.712  10.309  0.4611 -1.0670  0.2958
  176SOPE   C2520007   4.057   1.865  10.144 -0.6432  0.1501  0.2698
  176SOPE   H5R20008   4.148   1.910  10.100 -1.1700  2.2916  1.2546
  176SOPE   H5S20009   3.973   1.844  10.074 -0.3453 -0.3938  0.0734
  176SOPE   C2620010   3.999   1.979  10.237  0.2209  0.0032 -0.0206
  176SOPE   H6R20011   3.897   1.959  10.276 -0.7615  4.0903 -0.0436
  176SOPE   H6S20012   4.069   2.000  10.321 -0.0037 -0.1247  0.1977
  176SOPE   C2720013   3.976   2.110  10.167 -0.0011 -0.4485 -0.1156
  176SOPE   H7R20014   3.901   2.168  10.225 -1.3310 -0.1605 -2.0328
  176SOPE   H7S20015   4.072   2.165  10.182  0.2146 -1.2702  1.7749
  176SOPE   C2820016   3.928   2.108  10.022  0.0054  0.9281 -0.4893
  176SOPE   H8R20017   3.999   2.050   9.959 -0.5264  1.0793 -1.2442
  176SOPE   H8S20018   3.832   2.053  10.028 -0.4303  1.8019  0.8280
  176SOPE   C2920019   3.915   2.245   9.959 -0.3021  0.3184  0.3531
  176SOPE   H9120020   3.997   2.275   9.892  0.6458 -2.3411  0.2204
  176SOPE  C21020021   3.801   2.318   9.961  0.2306 -0.4413  0.4244
  176SOPE  H10120022   3.800   2.397   9.885  0.8878 -0.1719  0.6838
  176SOPE  C21120023   3.674   2.296  10.041 -0.2537  0.2319  0.6628
  176SOPE  H11R20024   3.648   2.391  10.094 -0.0050  0.2759  0.7100
  176SOPE  H11S20025   3.694   2.221  10.120  1.7739 -0.3965 -0.3655
  176SOPE  C21220026   3.555   2.247   9.956  0.2583 -0.6483  0.0871
  176SOPE  H12R20027   3.466   2.254  10.021 -0.1337  0.0523 -0.5179
  176SOPE  H12S20028   3.574   2.147   9.913 -3.3563 -1.3593 -0.1557
  176SOPE  C21320029   3.514   2.340   9.840  0.3403  0.7062  1.1492
  176SOPE  H13R20030   3.602   2.328   9.773  2.1536 -0.7789  3.6274
  176SOPE  H13S20031   3.499   2.443   9.879  0.1025  0.4193  1.8073
  176SOPE  C21420032   3.385   2.297   9.767  0.7415  0.1002  0.2272
  176SOPE  H14R20033   3.293   2.314   9.826 -1.2900  0.4300 -2.8334
  176SOPE  H14S20034   3.383   2.189   9.740 -0.7843  0.3931 -0.9653
  176SOPE  C21520035   3.363   2.377   9.628  0.1459  0.0480 -0.5282
  176SOPE  H15R20036   3.360   2.487   9.645 -0.3289 -0.0153 -0.1906
  176SOPE  H15S20037   3.266   2.345   9.585 -0.5100  0.7080  0.4259
  176SOPE  C21620038   3.473   2.330   9.526  0.3925  0.5022  0.1543
  176SOPE  H16R20039   3.491   2.220   9.529  0.5974  0.5578  1.4247
  176SOPE  H16S20040   3.572   2.376   9.549  0.7700 -0.6150  0.8861
  176SOPE  C21720041   3.430   2.367   9.383 -0.5639  0.4953  0.5125
  176SOPE  H17R20042   3.412   2.476   9.375  0.5672  0.5758 -1.2974
  176SOPE  H17S20043   3.326   2.332   9.365 -0.3152  1.2261 -2.9190
  176SOPE  C21820044   3.518   2.319   9.269  0.4635  0.2699  0.4282
  176SOPE  H18R20045   3.574   2.227   9.295  1.6934  1.3876  1.8630
  176SOPE  H18S20046   3.592   2.397   9.244  5.0723 -3.6501  0.4765
  176SOPE  H18T20047   3.457   2.305   9.177  0.4672  0.6185  0.3720
  176SOPE   C3320048   4.418   1.218  10.030 -0.1420  0.8460 -0.5808
  176SOPE   H3X20049   4.341   1.295  10.049  1.3132  2.6133 -1.4530
  176SOPE   H3Y20050   4.361   1.130   9.996 -0.0298 -0.2897  1.9519
  176SOPE   C3420051   4.515   1.267   9.913  0.4224  0.0763 -0.0336
  176SOPE   H4X20052   4.560   1.178   9.866 -1.7230 -1.0595 -0.0735
  176SOPE   H4Y20053   4.585   1.340   9.958 -0.5217  0.9381  0.0832
  176SOPE   C3520054   4.432   1.335   9.798 -0.0699  0.6528  0.1779
  176SOPE   H5X20055   4.361   1.407   9.844 -0.4321  0.5757 -0.2490
  176SOPE   H5Y20056   4.369   1.253   9.757  2.0439 -0.7904 -0.3195
  176SOPE   C3620057   4.521   1.400   9.694  0.5880  0.3374  0.1989
  176SOPE   H6X20058   4.596   1.322   9.667  2.3607  1.9340  0.3120
  176SOPE   H6Y20059   4.572   1.487   9.740  0.5779 -0.9073  2.6793
  176SOPE   C3720060   4.432   1.436   9.574  0.1256 -0.0466  0.7218
  176SOPE   H7X20061   4.354   1.504   9.615 -0.0187 -0.6657  1.5027
  176SOPE   H7Y20062   4.374   1.356   9.524 -0.3989  0.0507  1.1677
  176SOPE   C3820063   4.498   1.517   9.462 -0.7943  0.6305  0.1821
  176SOPE   H8X20064   4.582   1.456   9.421  0.5960  1.7767  1.2130
  176SOPE   H8Y20065   4.551   1.609   9.494 -1.7911  1.4323 -0.4130
  176SOPE   C3920066   4.407   1.556   9.344 -0.1099  0.1261  0.0693
  176SOPE   H9X20067   4.341   1.638   9.381 -0.1965  0.3987 -0.6792
  176SOPE   H9Y20068   4.337   1.473   9.319 -0.6490  0.2489  1.1311
  176SOPE  C31020069   4.496   1.591   9.226 -0.0910 -0.0832 -0.1567
  176SOPE  H10X20070   4.549   1.499   9.192 -2.4006 -0.9763 -1.5821
  176SOPE  H10Y20071   4.576   1.653   9.271 -1.9269  0.6795  2.2506
  176SOPE  C31120072   4.424   1.677   9.121  0.3624 -0.7050  0.2798
  176SOPE  H11X20073   4.377   1.764   9.172  1.1964 -0.4486  0.6329
  176SOPE  H11Y20074   4.348   1.617   9.067 -0.9056  2.1310 -1.2948
  176SOPE  C31220075   4.516   1.749   9.018 -0.3798 -0.2257 -0.2513
  176SOPE  H12X20076   4.572   1.674   8.959  0.2579  0.0501 -0.0023
  176SOPE  H12Y20077   4.588   1.823   9.060 -0.3864  0.5076 -1.4884
  176SOPE  C31320078   4.428   1.808   8.916 -0.0598  0.0274 -0.2655
  176SOPE  H13X20079   4.355   1.732   8.881  1.1129 -0.3118 -2.1213
  176SOPE  H13Y20080   4.493   1.837   8.830 -1.6758  2.0098 -0.9150
  176SOPE  C31420081   4.364   1.945   8.950 -0.1363  0.1901 -0.0625
  176SOPE  H14X20082   4.443   2.014   8.985 -0.9026  1.7527 -1.2452
  176SOPE  H14Y20083   4.286   1.939   9.029 -0.1328 -0.5943 -0.1157
  176SOPE  C31520084   4.298   2.010   8.829 -0.3902 -0.3713 -0.4049
  176SOPE  H15X20085   4.373   2.011   8.747 -1.3977 -0.5713 -1.3535
  176SOPE  H15Y20086   4.265   2.116   8.841  0.4892  0.2796 -3.0796
  176SOPE  C31620087   4.169   1.933   8.796  0.6478 -0.2226  0.6374
  176SOPE  H16X20088   4.085   1.948   8.868  0.2985  0.4783  0.1061
  176SOPE  H16Y20089   4.193   1.826   8.785 -1.2038 -0.6027 -0.1040
  176SOPE  C31720090   4.102   1.967   8.660 -0.5902  0.6459  0.3439
  176SOPE  H17X20091   4.182   1.953   8.584  0.8693  1.1057  1.7501
  176SOPE  H17Y20092   4.079   2.075   8.668 -1.0004  0.7807 -1.9678
  176SOPE  C31820093   3.972   1.896   8.640 -0.3002  0.1990 -0.0770
  176SOPE  H18X20094   3.985   1.794   8.681  3.4186  1.3861  2.1505
  176SOPE  H18Y20095   3.948   1.893   8.531 -3.9726  0.8422  0.6065
  176SOPE  H18Z20096   3.883   1.948   8.681 -0.5526  0.7736 -1.2939
  177SOPE     N20097   4.240   0.058  10.873 -0.4346  0.0257 -0.2292
  177SOPE   HN120098   4.329   0.005  10.881 -1.7410 -3.1582 -4.0018
  177SOPE   HN220099   4.249   0.148  10.822 -1.1858 -0.9991 -2.2869
  177SOPE   HN320100   4.197   0.064  10.968 -0.9344 -1.5469 -0.3259
  177SOPE   C1220101   4.159  -0.025  10.774  0.0346  0.0306 -0.7543
  177SOPE  H12A20102   4.172  -0.129  10.810  2.2651  0.6462  0.4177
  177SOPE  H12B20103   4.202  -0.015  10.672 -0.6554  0.2703 -1.0297
  177SOPE   C1120104   4.005   0.010  10.773 -0.8726  0.0624 -0.1810
  177SOPE  H11A20105   3.954  -0.073  10.720 -3.3366  1.1423  0.3565
  177SOPE  H11B20106   3.998   0.106  10.718  0.5610 -0.7477 -1.8613
  177SOPE     P20107   3.803   0.020  10.935  0.1506 -0.1601  0.1991
  177SOPE   O1320108   3.787   0.059  11.078  0.0541 -0.3984  0.4184
  177SOPE   O1420109   3.756  -0.115  10.897 -0.3979 -0.1684 -0.4330
  177SOPE   O1220110   3.959   0.021  10.907 -0.2487  0.4840  0.6227
  177SOPE   O1120111   3.725   0.122  10.843 -0.3005  0.1700  0.5446
  177SOPE    C120112   3.742   0.269  10.846 -0.2370 -0.2746  0.4432
  177SOPE    HA20113   3.822   0.300  10.776  0.6158  1.8891  2.2556
  177SOPE    HB20114   3.767   0.311  10.945 -1.5130 -0.1705  0.7442
  177SOPE    C220115   3.613   0.345  10.801  0.2266  0.2413 -0.4406
  177SOPE    HS20116   3.530   0.336  10.875  0.9178  2.3704  0.6993
  177SOPE   O2120117   3.572   0.285  10.679 -0.2464  0.6270 -0.2793
  177SOPE   C2120118   3.448   0.252  10.660 -0.2322  0.4500  0.0957
  177SOPE   O2220119   3.356   0.269  10.739 -0.7089 -0.2530  0.4191
  177SOPE   C2220120   3.436   0.169  10.531 -0.2147  0.8201  0.6378
  177SOPE   H2R20121   3.520   0.192  10.462 -1.2038 -1.7215 -1.5735
  177SOPE   H2S20122   3.334   0.185  10.490  0.0007  3.3615  0.9134
  177SOPE    C320123   3.650   0.490  10.780 -0.4079 -0.1530  0.0987
  177SOPE    HX20124   3.744   0.498  10.721  1.3196 -0.6077  2.6382
  177SOPE    HY20125   3.683   0.528  10.879  0.7305 -1.2402  0.1626
  177SOPE   O3120126   3.533   0.582  10.738 -0.3819  0.2187  0.0711
  177SOPE   C3120127   3.532   0.589  10.602  0.2533 -0.3517  0.6347
  177SOPE   O3220128   3.620   0.549  10.527  0.6317  0.1830  0.4407
  177SOPE   C3220129   3.414   0.670  10.557  0.6656  0.0242 -0.7013
  177SOPE   H2X20130   3.448   0.731  10.471 -1.4526  1.8625 -0.3169
  177SOPE   H2Y20131   3.385   0.743  10.635 -0.8100 -1.9103  0.6569
  177SOPE   C2320132   3.443   0.023  10.560 -0.3155  0.6403  0.9815
  177SOPE   H3R20133   3.353  -0.011  10.615  0.2979  1.1545  2.3464
  177SOPE   H3S20134   3.525  -0.008  10.628 -0.2573 -0.5546  0.4032
  177SOPE   C2420135   3.456  -0.063  10.422  0.8119  0.1873 -0.1470
  177SOPE   H4R20136   3.559  -0.056  10.383  1.3729  0.4580  1.3095
  177SOPE   H4S20137   3.441  -0.166  10.460  1.8692  0.0759 -0.0064
  177SOPE   C2520138   3.353  -0.035  10.313  0.2709 -0.0691 -0.6567
  177SOPE   H5R20139   3.254   0.000  10.348  0.3721  1.7683 -2.0972
  177SOPE   H5S20140   3.377   0.053  10.250 -0.6288  0.9389  0.3800
  177SOPE   C2620141   3.322  -0.140  10.220  0.4040 -0.0643  0.3913
  177SOPE   H6R20142   3.289  -0.229  10.278  1.2761  0.5605  1.8802
  177SOPE   H6S20143   3.236  -0.109  10.156  0.9773 -0.4611 -0.5978
  177SOPE   C2720144   3.436  -0.185  10.124  0.4971 -0.1552 -0.6291
  177SOPE   H7R20145   3.460  -0.105  10.052 -2.3935  0.7654 -0.6913
  177SOPE   H7S20146   3.527  -0.197  10.186 -0.7097  1.7750  1.7047
  177SOPE   C2820147   3.409  -0.317  10.049 -0.2654 -0.3278  0.1558
  177SOPE   H8R20148   3.495  -0.335   9.982 -0.5250  0.2937 -0.3566
  177SOPE   H8S20149   3.409  -0.398  10.125  2.6226  0.4380  1.0969
  177SOPE   C2920150   3.282  -0.330   9.967 -0.2595 -0.4808 -0.1232
  177SOPE   H9120151   3.197  -0.372  10.022  0.7824 -2.1242  0.3273
  177SOPE  C21020152   3.259  -0.270   9.846 -0.1412  0.2011  0.1984
  177SOPE  H10120153   3.169  -0.295   9.789  1.1924 -3.3110 -0.6308
  177SOPE  C21120154   3.360  -0.186   9.774 -0.6237  0.3159  0.4712
  177SOPE  H11R20155   3.433  -0.147   9.847 -0.9806  1.8269  0.0616
  177SOPE  H11S20156   3.315  -0.090   9.741  1.8145  1.0198 -1.0155
  177SOPE  C21220157   3.429  -0.248   9.648 -0.1025  0.5385 -0.0461
  177SOPE  H12R20158   3.459  -0.353   9.668  0.7087  0.5352 -1.1772
  177SOPE  H12S20159   3.522  -0.192   9.627  1.0827 -0.5973  1.9211
  177SOPE  C21320160   3.330  -0.250   9.530 -0.0452 -0.0883  0.6107
  177SOPE  H13R20161   3.276  -0.154   9.512 -0.7794 -0.3847  1.2070
  177SOPE  H13S20162   3.243  -0.316   9.548  1.9850 -2.4583  2.2632
  177SOPE  C21420163   3.406  -0.293   9.405 -0.0791  0.2988  0.0712
  177SOPE  H14R20164   3.435  -0.400   9.406 -0.3025  0.2345  1.4065
  177SOPE  H14S20165   3.484  -0.219   9.382  0.8369 -0.1005  1.7491
  177SOPE  C21520166   3.307  -0.276   9.285  0.2565  0.3569 -0.2006
  177SOPE  H15R20167   3.258  -0.176   9.294  0.1396  0.3360 -0.5936
  177SOPE  H15S20168   3.234  -0.359   9.297  2.4934 -1.5352  0.9136
  177SOPE  C21620169   3.366  -0.276   9.141 -0.4701  0.0017  0.3009
  177SOPE  H16R20170   3.473  -0.246   9.144  0.0107 -1.6424  0.7417
  177SOPE  H16S20171   3.314  -0.213   9.066 -1.0825 -1.7921 -0.8229
  177SOPE  C21720172   3.377  -0.419   9.094  0.2696  0.2898  0.5158
  177SOPE  H17R20173   3.274  -0.456   9.073  1.6267 -2.4910 -2.0141
  177SOPE  H17S20174   3.412  -0.479   9.181  0.8906  1.5742  1.1688
  177SOPE  C21820175   3.458  -0.424   8.966 -0.4607 -0.0316 -0.2533
  177SOPE  H18R20176   3.490  -0.526   8.936  1.8280  0.2004  1.1820
  177SOPE  H18S20177   3.551  -0.368   8.991 -0.7685  0.1388  0.5361
  177SOPE  H18T20178   3.418  -0.366   8.881  1.1037  1.8297  0.1997
  177SOPE   C3320179   3.294   0.576  10.542 -0.0846  0.1796 -0.0138
  177SOPE   H3X20180   3.214   0.652  10.528  0.9357  1.9251  2.8177
  177SOPE   H3Y20181   3.264   0.519  10.632  0.2193  0.5858  0.3489
  177SOPE   C3420182   3.292   0.483  10.419 -0.1511  0.2387  0.3245
  177SOPE   H4X20183   3.372   0.406  10.418  1.2406  1.6245 -0.8487
  177SOPE   H4Y20184   3.325   0.551  10.336  0.5279 -1.9786 -1.3245
  177SOPE   C3520185   3.151   0.434  10.386 -0.0359 -0.6833  0.2198
  177SOPE   H5X20186   3.088   0.525  10.381  0.9305 -0.0525 -0.8532
  177SOPE   H5Y20187   3.109   0.375  10.471  0.1686 -0.3753  0.5407
  177SOPE   C3620188   3.144   0.362  10.246 -0.1701  0.3860 -0.1385
  177SOPE   H6X20189   3.039   0.325  10.243 -0.5671  1.1117  2.2763
  177SOPE   H6Y20190   3.215   0.279  10.229  0.5290  0.9537 -0.0482
  177SOPE   C3720191   3.150   0.450  10.120 -0.3181  0.5373  0.1081
  177SOPE   H7X20192   3.251   0.496  10.113  0.9914 -1.8307  1.8605
  177SOPE   H7Y20193   3.079   0.534  10.128 -1.4267 -0.3574 -0.1256
  177SOPE   C3820194   3.137   0.376   9.986 -0.6793 -1.1859  0.0364
  177SOPE   H8X20195   3.038   0.325   9.981 -2.2476  1.7071 -1.1058
  177SOPE   H8Y20196   3.208   0.291   9.985  0.3025 -0.4480  1.6711
  177SOPE   C3920197   3.176   0.467   9.866  0.0265  0.2701  0.1292
  177SOPE   H9X20198   3.286   0.471   9.877  0.2642 -0.1467 -1.7341
  177SOPE   H9Y20199   3.136   0.570   9.871  0.2187  0.2914  1.3862
  177SOPE  C31020200   3.144   0.412   9.732 -0.2767  0.0899  0.5072
  177SOPE  H10X20201   3.035   0.394   9.743 -0.7622  3.4536  2.5014
  177SOPE  H10Y20202   3.181   0.307   9.723 -1.9596 -0.9111  3.5187
  177SOPE  C31120203   3.189   0.509   9.619  0.5048  0.1247  0.5013
  177SOPE  H11X20204   3.295   0.539   9.632  1.0780  0.3829 -3.4131
  177SOPE  H11Y20205   3.126   0.600   9.608  0.7479  0.3660  1.0550
  177SOPE  C31220206   3.197   0.442   9.485 -0.4656 -0.2713  0.3576
  177SOPE  H12X20207   3.103   0.392   9.451  0.0975 -2.0113  1.2739
  177SOPE  H12Y20208   3.284   0.373   9.483 -1.0693 -1.0345 -0.4552
  177SOPE  C31320209   3.240   0.548   9.382  0.0070  0.5356 -0.4058
  177SOPE  H13X20210   3.334   0.599   9.413 -0.2049  0.4655  0.3643
  177SOPE  H13Y20211   3.168   0.632   9.372 -1.3769 -0.3219  1.6480
  177SOPE  C31420212   3.275   0.492   9.252  0.2103 -0.0938  1.2303
  177SOPE  H14X20213   3.188   0.434   9.214  0.1692  0.2616  0.7678
  177SOPE  H14Y20214   3.361   0.422   9.255  0.8532  0.7276  2.7669
  177SOPE  C31520215   3.310   0.603   9.150 -0.2378  0.0161  0.2402
  177SOPE  H15X20216   3.347   0.695   9.201 -0.3626 -0.0336  0.4253
  177SOPE  H15Y20217   3.210   0.628   9.108 -0.7297 -2.0096  0.1087
  177SOPE  C31620218   3.417   0.565   9.050 -0.0603  0.3158  0.6212
  177SOPE  H16X20219   3.414   0.629   8.960  0.8399  3.0759  2.4256
  177SOPE  H16Y20220   3.387   0.461   9.023 -1.3808  0.7822  0.2444
  177SOPE  C31720221   3.560   0.544   9.101 -0.4717  0.0925  0.8864
  177SOPE  H17X20222   3.608   0.463   9.041  1.8583  1.4187  0.8127
  177SOPE  H17Y20223   3.557   0.502   9.203 -0.3089  0.5876  1.1005
  177SOPE  C31820224   3.658   0.661   9.083  0.4433  0.3823  0.1293
  177SOPE  H18X20225   3.700   0.653   8.980  0.6526  1.1124  0.1558
  177SOPE  H18Y20226   3.745   0.654   9.152 -0.0486 -0.3828  0.6800
  177SOPE  H18Z20227   3.607   0.756   9.107  1.4044  0.8196  0.4998
  178SOPE     N20228   0.987   6.582  10.931  0.5687 -0.7980  0.3078
  178SOPE   HN120229   0.943   6.488  10.926 -2.6217  0.4538  1.9086
  178SOPE   HN220230   1.056   6.584  11.008 -1.0568  2.5564  1.8603
  178SOPE   HN320231   0.901   6.635  10.954  1.1043 -0.7058  2.1968
  178SOPE   C1220232   1.036   6.631  10.801  0.1080 -0.1283 -0.1499
  178SOPE  H12A20233   1.124   6.571  10.767 -1.2910 -0.8927 -2.6977
  178SOPE  H12B20234   1.072   6.734  10.822  2.2436 -1.1442  1.6476
  178SOPE   C1120235   0.920   6.630  10.700  0.9241 -0.5238  0.1163
  178SOPE  H11A20236   0.905   6.520  10.687 -2.8013 -0.5242  2.6642
  178SOPE  H11B20237   0.961   6.684  10.612  0.8492 -2.0876 -0.9106
  178SOPE     P20238   0.653   6.630  10.735 -0.2964 -0.1537 -0.2696
  178SOPE   O1320239   0.559   6.706  10.830 -0.1051  0.0848  0.1648
  178SOPE   O1420240   0.649   6.483  10.730 -0.0646  0.0607 -0.1650
  178SOPE   O1220241   0.802   6.692  10.754 -0.0363  0.0540  0.6556
  178SOPE   O1120242   0.620   6.669  10.586  0.8646  0.1859  0.7237
  178SOPE    C120243   0.615   6.803  10.550 -0.2165  0.4870  0.2544
  178SOPE    HA20244   0.670   6.820  10.455 -0.9892 -1.7034 -0.6448
  178SOPE    HB20245   0.652   6.872  10.629  0.7191 -0.4638  0.6619
  178SOPE    C220246   0.477   6.846  10.506  0.5626  0.7340 -0.0649
  178SOPE    HS20247   0.424   6.836  10.603  1.4297  0.5485  0.4043
  178SOPE   O2120248   0.432   6.765  10.398  0.1216 -0.3425  0.2711
  178SOPE   C2120249   0.303   6.745  10.390 -0.4793  0.1921  0.1503
  178SOPE   O2220250   0.218   6.796  10.460 -0.0141  0.2896 -0.8833
  178SOPE   C2220251   0.273   6.669  10.264  0.4609 -0.6560  0.4850
  178SOPE   H2R20252   0.232   6.574  10.304 -0.4611 -0.0999  0.8807
  178SOPE   H2S20253   0.368   6.642  10.212 -0.8898 -2.8487 -1.0040
  178SOPE    C320254   0.469   6.999  10.464  0.6883 -0.8805  0.0168
  178SOPE    HX20255   0.480   7.047  10.563 -0.7417  2.3643 -1.2527
  178SOPE    HY20256   0.363   7.010  10.435  0.3602 -1.8827  0.7649
  178SOPE   O3120257   0.565   7.044  10.363 -0.2738 -0.0248 -0.0474
  178SOPE   C3120258   0.526   7.139  10.285  0.6858 -0.6884 -0.2409
  178SOPE   O3220259   0.414   7.189  10.283  0.9621 -0.0021  0.3793
  178SOPE   C3220260   0.639   7.181  10.197 -0.8883 -0.7522  0.2081
  178SOPE   H2X20261   0.688   7.086  10.165  0.1903 -0.3800  0.6791
  178SOPE   H2Y20262   0.714   7.234  10.260 -0.1876 -2.0797  0.5286
  178SOPE   C2320263   0.166   6.736  10.174  0.5770 -0.2252  0.6330
  178SOPE   H3R20264   0.069   6.753  10.226 -0.0126 -0.1992 -0.4554
  178SOPE   H3S20265   0.147   6.667  10.090 -0.1376 -0.5913  1.0859
  178SOPE   C2420266   0.222   6.862  10.112  0.7835  0.4990 -0.0607
  178SOPE   H4R20267   0.136   6.900  10.053 -0.1823  0.2563  1.1520
  178SOPE   H4S20268   0.230   6.944  10.187  1.1158  0.5473 -0.1452
  178SOPE   C2520269   0.355   6.839  10.037  0.2304 -0.2466 -0.3073
  178SOPE   H5R20270   0.437   6.860  10.109  1.7551 -1.2275 -1.6705
  178SOPE   H5S20271   0.367   6.739   9.989  0.9811 -0.2951 -0.0313
  178SOPE   C2620272   0.372   6.940   9.921  0.4859  0.1241 -0.4231
  178SOPE   H6R20273   0.355   7.045   9.952 -1.0607  0.4199 -2.0964
  178SOPE   H6S20274   0.479   6.951   9.893  1.0396  0.8900  1.7935
  178SOPE   C2720275   0.282   6.920   9.801  0.7749  0.7628  0.8731
  178SOPE   H7R20276   0.177   6.910   9.837 -0.1531 -1.4036 -2.0467
  178SOPE   H7S20277   0.287   7.017   9.748 -0.5000  1.0845  1.3065
  178SOPE   C2820278   0.338   6.806   9.711  0.1257  0.1352 -0.0466
  178SOPE   H8R20279   0.384   6.848   9.619  0.6175 -0.2729  0.0059
  178SOPE   H8S20280   0.417   6.757   9.772 -0.2079 -1.1712 -0.6266
  178SOPE   C2920281   0.239   6.704   9.667  0.2054 -0.3453 -0.2684
  178SOPE   H9120282   0.140   6.745   9.642  0.5806 -0.1599 -1.5448
  178SOPE  C21020283   0.255   6.571   9.660 -0.0346  0.7889 -0.2770
  178SOPE  H10120284   0.171   6.507   9.631  0.8269  0.1582 -1.4577
  178SOPE  C21120285   0.393   6.509   9.680 -0.1970  0.0920 -0.3733
  178SOPE  H11R20286   0.478   6.576   9.656  0.6345 -1.3670 -1.6813
  178SOPE  H11S20287   0.409   6.431   9.603  0.3067  1.0545 -1.2591
  178SOPE  C21220288   0.421   6.447   9.814 -0.4397  0.0988 -0.4519
  178SOPE  H12R20289   0.456   6.529   9.881 -1.2958  0.0521  0.0718
  178SOPE  H12S20290   0.513   6.387   9.795 -0.3274  0.8800 -2.5928
  178SOPE  C21320291   0.302   6.363   9.872 -0.1595 -0.1124  0.0704
  178SOPE  H13R20292   0.203   6.411   9.859 -1.1515 -2.0698  0.0287
  178SOPE  H13S20293   0.321   6.338   9.979 -0.9416  0.3767  0.3329
  178SOPE  C21420294   0.280   6.231   9.794 -0.5148  0.6251  0.1954
  178SOPE  H14R20295   0.236   6.263   9.697 -0.9498  0.5615  0.3682
  178SOPE  H14S20296   0.203   6.172   9.849 -1.9095 -1.1649 -3.3663
  178SOPE  C21520297   0.403   6.139   9.769  0.3373 -0.6674  0.6093
  178SOPE  H15R20298   0.396   6.039   9.817  0.5959 -0.9385  0.0920
  178SOPE  H15S20299   0.494   6.183   9.813  0.7592  0.7143 -1.4901
  178SOPE  C21620300   0.420   6.113   9.621  0.0667 -0.1511 -0.2949
  178SOPE  H16R20301   0.523   6.078   9.596  1.3466  1.3076  2.5433
  178SOPE  H16S20302   0.396   6.199   9.554 -0.4983 -0.6238 -0.7096
  178SOPE  C21720303   0.330   5.994   9.581  0.2058 -0.5712 -0.7320
  178SOPE  H17R20304   0.230   6.020   9.621 -0.5554 -1.3158 -2.0399
  178SOPE  H17S20305   0.361   5.902   9.635  1.0001 -0.6459 -1.2945
  178SOPE  C21820306   0.328   5.968   9.434  0.1209 -0.0058  0.0109
  178SOPE  H18R20307   0.410   5.896   9.411 -2.1755 -2.7741 -0.1010
  178SOPE  H18S20308   0.350   6.062   9.379 -1.4367  2.1861  2.8782
  178SOPE  H18T20309   0.234   5.920   9.402  0.5462  0.4285 -1.9904
  178SOPE   C3320310   0.590   7.255  10.070  0.7069 -0.2825 -0.4191
  178SOPE   H3X20311   0.509   7.325  10.096  2.3642  1.3318  0.6636
  178SOPE   H3Y20312   0.545   7.177  10.004  0.1703  0.5454 -1.0457
  178SOPE   C3420313   0.712   7.320  10.009  0.0215 -0.1515  0.2967
  178SOPE   H4X20314   0.783   7.236   9.990 -1.8369 -2.0418  1.3481
  178SOPE   H4Y20315   0.741   7.397  10.084 -0.9530  0.7684 -0.2497
  178SOPE   C3520316   0.676   7.405   9.882  0.3677 -0.1089  0.2396
  178SOPE   H5X20317   0.769   7.425   9.824 -0.5221 -0.5768 -1.4000
  178SOPE   H5Y20318   0.634   7.501   9.918  1.4158  0.5180 -0.1602
  178SOPE   C3620319   0.583   7.345   9.779 -0.4610  0.9866  0.3617
  178SOPE   H6X20320   0.564   7.414   9.694 -1.7925 -0.2256 -0.3590
  178SOPE   H6Y20321   0.483   7.312   9.814 -0.6756  0.3479 -0.8127
  178SOPE   C3720322   0.627   7.208   9.715  0.4171  0.4490  0.4426
  178SOPE   H7X20323   0.640   7.131   9.795  1.6865 -3.3263 -3.0482
  178SOPE   H7Y20324   0.724   7.228   9.665 -0.4514  0.3863 -1.3303
  178SOPE   C3820325   0.534   7.152   9.603  0.6866 -0.1119  0.1959
  178SOPE   H8X20326   0.520   7.235   9.530  1.2805 -0.6603 -0.5565
  178SOPE   H8Y20327   0.435   7.129   9.648  0.2396  2.1117  0.4374
  178SOPE   C3920328   0.590   7.034   9.521 -0.3039  0.2144 -0.4858
  178SOPE   H9X20329   0.600   6.954   9.598 -1.7346  2.6695  2.4761
  178SOPE   H9Y20330   0.691   7.060   9.484  0.7450 -0.4160  1.7539
  178SOPE  C31020331   0.493   7.006   9.409  0.5636 -0.0651 -0.1622
  178SOPE  H10X20332   0.451   7.098   9.363 -1.2075 -0.8218 -0.1681
  178SOPE  H10Y20333   0.401   6.954   9.444 -0.4023  0.6000 -1.6248
  178SOPE  C31120334   0.551   6.916   9.300 -0.1284 -0.1857  0.0127
  178SOPE  H11X20335   0.651   6.950   9.266  1.2181 -2.9739  0.9036
  178SOPE  H11Y20336   0.478   6.907   9.216 -1.4787  0.0587  1.1235
  178SOPE  C31220337   0.577   6.769   9.358  0.3412  0.0535  0.2180
  178SOPE  H12X20338   0.639   6.774   9.450  0.6897 -1.0300  0.0514
  178SOPE  H12Y20339   0.636   6.703   9.292  1.4422 -1.8377  2.9459
  178SOPE  C31320340   0.447   6.690   9.367 -0.9867  0.0150 -0.0637
  178SOPE  H13X20341   0.366   6.742   9.421 -2.3531 -1.5198 -0.5520
  178SOPE  H13Y20342   0.472   6.597   9.423 -1.3927  2.2436  4.2557
  178SOPE  C31420343   0.375   6.656   9.239  0.1647  0.2535  0.3811
  178SOPE  H14X20344   0.438   6.599   9.168 -0.3092  2.7959 -2.2360
  178SOPE  H14Y20345   0.343   6.747   9.185 -0.3363 -0.6465 -0.8898
  178SOPE  C31520346   0.246   6.573   9.251 -0.1737 -0.1459  0.5255
  178SOPE  H15X20347   0.172   6.609   9.176 -0.3935  0.1040  0.8593
  178SOPE  H15Y20348   0.203   6.607   9.347  0.8863  2.8883  0.0316
  178SOPE  C31620349   0.269   6.424   9.220 -0.4459 -0.3487 -0.1176
  178SOPE  H16X20350   0.352   6.382   9.281  1.7044  0.8646 -2.0777
  178SOPE  H16Y20351   0.307   6.422   9.116  3.0083  0.1827  1.0065
  178SOPE  C31720352   0.149   6.339   9.217  0.1849  1.2356 -0.1127
  178SOPE  H17X20353   0.184   6.235   9.233 -0.4488  1.1664  0.9280
  178SOPE  H17Y20354   0.095   6.359   9.122  0.4616 -2.1280 -1.1043
  178SOPE  C31820355   0.051   6.354   9.334  0.5582 -0.4081  0.2146
  178SOPE  H18X20356  -0.044   6.305   9.305  0.7414  0.1747 -1.5117
  178SOPE  H18Y20357   0.020   6.460   9.346  2.8742  0.5703 -1.6020
  178SOPE  H18Z20358   0.090   6.311   9.429 -0.9683 -0.5324  0.8058
  179SOPE     N20359   4.955   0.220   6.504 -0.1119  0.4049  0.5628
  179SOPE   HN120360   4.892   0.240   6.584  1.3805  3.4975  1.1166
  179SOPE   HN220361   4.935   0.288   6.428  1.7958  0.2167 -0.1628
  179SOPE   HN320362   4.925   0.129   6.463 -2.4380  2.1352 -1.9673
  179SOPE   C1220363   5.103   0.219   6.544  0.2685  0.3061  0.1096
  179SOPE  H12A20364   5.124   0.316   6.594  2.5760  0.8449 -1.7314
  179SOPE  H12B20365   5.159   0.225   6.448 -1.5102  0.1096 -0.9890
  179SOPE   C1120366   5.130   0.101   6.642 -0.0124  0.5626 -0.2395
  179SOPE  H11A20367   5.067   0.126   6.729 -0.2528  0.1104 -0.2833
  179SOPE  H11B20368   5.238   0.105   6.669  0.1720  2.3977 -1.0233
  179SOPE     P20369   5.191  -0.104   6.487 -0.0860  0.4786 -0.2263
  179SOPE   O1320370   5.261  -0.008   6.401 -0.5566  0.2154 -0.1567
  179SOPE   O1420371   5.119  -0.211   6.412 -0.0743  0.0698 -0.0825
  179SOPE   O1220372   5.093  -0.027   6.581 -0.1655  0.0074  0.2798
  179SOPE   O1120373   5.292  -0.180   6.583  0.1889 -0.8076 -0.3709
  179SOPE    C120374   5.262  -0.202   6.722 -0.1703 -0.3974  0.2240
  179SOPE    HA20375   5.256  -0.312   6.736 -0.9287 -0.2109  1.4901
  179SOPE    HB20376   5.158  -0.172   6.748 -0.5065  0.5950 -2.0052
  179SOPE    C220377   5.371  -0.152   6.823  0.1837 -1.2844 -0.4733
  179SOPE    HS20378   5.400  -0.046   6.806  0.2383 -1.0271  1.0706
  179SOPE   O2120379   5.485  -0.238   6.809  0.1938  0.2547  0.7658
  179SOPE   C2120380   5.608  -0.182   6.821  0.3292 -0.2490  0.3691
  179SOPE   O2220381   5.619  -0.061   6.837 -0.2758 -0.6045  0.2247
  179SOPE   C2220382   5.726  -0.277   6.807  0.0671 -0.2228 -0.1102
  179SOPE   H2R20383   5.810  -0.211   6.778  0.4132 -0.7856 -0.4168
  179SOPE   H2S20384   5.695  -0.351   6.730 -1.4234 -1.2477  1.3801
  179SOPE    C320385   5.309  -0.165   6.962  0.0640  0.3233 -0.5560
  179SOPE    HX20386   5.271  -0.269   6.973  3.4524 -1.2062 -1.7385
  179SOPE    HY20387   5.222  -0.096   6.963 -0.2442 -0.0666  0.0362
  179SOPE   O3120388   5.397  -0.147   7.077  1.0645 -0.7844  0.3026
  179SOPE   C3120389   5.402  -0.025   7.116  0.9485 -0.0262 -0.0740
  179SOPE   O3220390   5.348   0.071   7.061  0.3586  0.2930  0.3667
  179SOPE   C3220391   5.497  -0.015   7.239  0.2409 -0.5575 -0.4965
  179SOPE   H2X20392   5.602  -0.038   7.212  0.5247  0.5237 -0.3674
  179SOPE   H2Y20393   5.452  -0.083   7.314  0.7125  0.2478  0.5427
  179SOPE   C2320394   5.741  -0.365   6.937 -0.5075 -0.6374 -0.2263
  179SOPE   H3R20395   5.838  -0.416   6.920  1.9776  2.7700  2.3116
  179SOPE   H3S20396   5.658  -0.437   6.955  1.6785 -2.6437  2.7785
  179SOPE   C2420397   5.756  -0.278   7.066  0.2434  0.7109 -0.0132
  179SOPE   H4R20398   5.784  -0.172   7.046  2.8908  0.0715 -0.0650
  179SOPE   H4S20399   5.655  -0.287   7.111  1.1879 -1.0380  1.8997
  179SOPE   C2520400   5.852  -0.346   7.162  0.4675 -1.1680 -0.3474
  179SOPE   H5R20401   5.827  -0.452   7.181  2.1225 -1.2906  1.4995
  179SOPE   H5S20402   5.952  -0.346   7.114  0.0224  0.3249 -1.3452
  179SOPE   C2620403   5.860  -0.290   7.307 -0.3251  0.4906 -0.2460
  179SOPE   H6R20404   5.758  -0.312   7.345 -0.1619 -0.5704 -0.3885
  179SOPE   H6S20405   5.927  -0.353   7.368 -1.9600 -1.5454 -0.4379
  179SOPE   C2720406   5.895  -0.142   7.326 -0.1758  0.4313  0.0989
  179SOPE   H7R20407   5.994  -0.123   7.280 -0.6830  0.1467 -1.1490
  179SOPE   H7S20408   5.808  -0.087   7.284  0.1158  3.1249  2.6131
  179SOPE   C2820409   5.897  -0.114   7.475  0.2081 -0.7797 -0.0643
  179SOPE   H8R20410   5.985  -0.164   7.521  1.1308 -0.3356 -1.2962
  179SOPE   H8S20411   5.926  -0.008   7.493 -0.7301 -0.6843  1.0081
  179SOPE   C2920412   5.769  -0.146   7.538  0.3275 -0.5928 -0.8262
  179SOPE   H9120413   5.677  -0.155   7.478  0.7147  0.1630 -1.5527
  179SOPE  C21020414   5.750  -0.161   7.676 -0.7184 -0.6574  0.1071
  179SOPE  H10120415   5.655  -0.202   7.712 -0.6115 -0.1900  0.9419
  179SOPE  C21120416   5.866  -0.144   7.776  0.2831  0.0146 -0.3649
  179SOPE  H11R20417   5.830  -0.095   7.870 -1.7980  3.3910 -2.6658
  179SOPE  H11S20418   5.936  -0.077   7.722 -0.8399  1.6996  0.1801
  179SOPE  C21220419   5.938  -0.277   7.817 -0.3529  0.6165 -0.0157
  179SOPE  H12R20420   6.036  -0.262   7.868  0.2302  0.2773 -1.0077
  179SOPE  H12S20421   5.963  -0.336   7.726  1.6770 -1.1380  1.5850
  179SOPE  C21320422   5.852  -0.373   7.911 -0.3411  0.1114 -0.3141
  179SOPE  H13R20423   5.900  -0.468   7.944 -0.7007 -0.5202 -1.5445
  179SOPE  H13S20424   5.760  -0.406   7.858  1.4566 -0.9722 -2.9761
  179SOPE  C21420425   5.826  -0.307   8.050  1.0244 -0.2040 -1.1121
  179SOPE  H14R20426   5.772  -0.210   8.044 -0.7969 -1.1033 -0.0992
  179SOPE  H14S20427   5.923  -0.277   8.096  0.1211  3.1264 -1.0849
  179SOPE  C21520428   5.749  -0.408   8.141 -0.9716 -1.0347  0.3849
  179SOPE  H15R20429   5.816  -0.486   8.184 -0.0795 -0.6929 -0.3505
  179SOPE  H15S20430   5.684  -0.465   8.071 -0.2220 -0.6825 -0.6131
  179SOPE  C21620431   5.673  -0.345   8.256 -0.1345 -0.4899  0.7397
  179SOPE  H16R20432   5.596  -0.279   8.211 -0.3034 -0.7101  0.7046
  179SOPE  H16S20433   5.741  -0.277   8.312 -2.0522  0.8549  1.5505
  179SOPE  C21720434   5.592  -0.443   8.341  0.2234 -0.5919  0.6275
  179SOPE  H17R20435   5.543  -0.515   8.272  1.5897 -1.2954  0.3601
  179SOPE  H17S20436   5.508  -0.390   8.391 -0.4035 -0.2581 -0.7485
  179SOPE  C21820437   5.675  -0.524   8.446 -0.1352  0.1030  0.2168
  179SOPE  H18R20438   5.733  -0.458   8.513 -1.4378  2.5551 -0.9518
  179SOPE  H18S20439   5.754  -0.582   8.392 -0.8624 -0.6703 -0.0353
  179SOPE  H18T20440   5.612  -0.590   8.509 -1.1836  0.3330 -0.5591
  179SOPE   C3320441   5.504   0.129   7.298  0.6519 -0.5567  0.2278
  179SOPE   H3X20442   5.406   0.166   7.336  1.1346  2.2354 -0.9819
  179SOPE   H3Y20443   5.522   0.202   7.216  1.0669 -0.9995 -0.0808
  179SOPE   C3420444   5.603   0.137   7.418 -0.2016  0.4416 -0.0286
  179SOPE   H4X20445   5.690   0.095   7.363 -2.8219 -1.7976 -2.8403
  179SOPE   H4Y20446   5.578   0.070   7.503 -4.1883  1.1631 -0.4084
  179SOPE   C3520447   5.629   0.286   7.468 -0.8412 -0.0126 -0.4640
  179SOPE   H5X20448   5.535   0.330   7.507  0.2529  0.9558  1.1760
  179SOPE   H5Y20449   5.682   0.337   7.384  2.6522 -0.8281  1.0541
  179SOPE   C3620450   5.736   0.277   7.581  0.2700  0.0676  0.4646
  179SOPE   H6X20451   5.824   0.239   7.525 -0.5312  0.4217 -1.1294
  179SOPE   H6Y20452   5.701   0.195   7.647  0.6660  0.3634  1.0489
  179SOPE   C3720453   5.765   0.408   7.655  0.1608 -0.2583  0.4259
  179SOPE   H7X20454   5.750   0.491   7.582 -0.7293 -1.5921 -0.9793
  179SOPE   H7Y20455   5.875   0.396   7.670  0.3245 -0.3133 -0.7270
  179SOPE   C3820456   5.671   0.435   7.772  0.2854 -0.1672  0.0847
  179SOPE   H8X20457   5.689   0.360   7.852  0.1255  0.2553  0.5230
  179SOPE   H8Y20458   5.571   0.413   7.732  1.1176 -1.2914 -1.4583
  179SOPE   C3920459   5.673   0.577   7.831  0.2269 -0.1990  0.4630
  179SOPE   H9X20460   5.617   0.582   7.927  0.0759 -0.5460  0.3944
  179SOPE   H9Y20461   5.626   0.646   7.758  0.3704 -0.7141 -0.1257
  179SOPE  C31020462   5.816   0.636   7.849 -0.1168  0.2387 -0.4299
  179SOPE  H10X20463   5.797   0.730   7.905 -0.4971  1.4333 -2.4884
  179SOPE  H10Y20464   5.857   0.652   7.748 -0.9325 -1.3352 -1.0520
  179SOPE  C31120465   5.918   0.563   7.938 -0.3926 -0.5137 -1.3755
  179SOPE  H11X20466   6.017   0.613   7.930 -1.4298  1.8557 -0.3725
  179SOPE  H11Y20467   5.925   0.456   7.909 -0.2375 -0.9608  0.2420
  179SOPE  C31220468   5.877   0.563   8.083 -0.1896 -0.1224 -0.5323
  179SOPE  H12X20469   5.770   0.535   8.086 -0.9269  2.4461  0.8885
  179SOPE  H12Y20470   5.870   0.666   8.124 -0.3247  0.3640 -1.7483
  179SOPE  C31320471   5.976   0.485   8.176 -0.2170  0.2770 -0.1851
  179SOPE  H13X20472   5.985   0.378   8.147 -0.6745 -0.0763  0.9119
  179SOPE  H13Y20473   5.926   0.472   8.275 -0.5424 -0.9123 -0.4874
  179SOPE  C31420474   6.108   0.548   8.212  0.2706 -0.2855  0.0976
  179SOPE  H14X20475   6.158   0.584   8.120 -1.4449  3.7336  0.5127
  179SOPE  H14Y20476   6.175   0.473   8.259  1.4739  1.4597  1.2903
  179SOPE  C31520477   6.088   0.658   8.310  0.1955  0.5429  0.5370
  179SOPE  H15X20478   6.020   0.619   8.389  0.2233 -2.4778 -0.8068
  179SOPE  H15Y20479   6.032   0.743   8.263 -0.6678 -0.7597 -0.9109
  179SOPE  C31620480   6.223   0.711   8.368 -0.1191  0.0558 -0.2138
  179SOPE  H16X20481   6.276   0.620   8.402 -0.6463 -0.4179 -0.6375
  179SOPE  H16Y20482   6.206   0.777   8.456  0.9377  0.6554 -0.4467
  179SOPE  C31720483   6.324   0.758   8.263 -0.0449  0.4079 -0.9541
  179SOPE  H17X20484   6.278   0.789   8.167  1.4502 -0.7844 -2.0831
  179SOPE  H17Y20485   6.384   0.669   8.234  1.0893  1.0112 -0.5068
  179SOPE  C31820486   6.427   0.864   8.318  0.4924 -0.6277  0.0623
  179SOPE  H18X20487   6.499   0.815   8.386  0.0771  0.1045  1.0409
  179SOPE  H18Y20488   6.383   0.958   8.357  3.2289  2.1220 -2.9144
  179SOPE  H18Z20489   6.492   0.894   8.233 -0.7579  1.3599 -0.2526
  180SOPE     N20490   5.436   6.655   6.081 -0.0355  0.6145 -0.2256
  180SOPE   HN120491   5.452   6.751   6.044  0.1926  0.0387 -1.7134
  180SOPE   HN220492   5.335   6.632   6.086 -0.2003  1.6116  1.8113
  180SOPE   HN320493   5.462   6.666   6.181 -0.4566 -2.6087  0.3546
  180SOPE   C1220494   5.515   6.546   6.017  0.1595 -0.2201 -0.5120
  180SOPE  H12A20495   5.620   6.583   6.017  0.4036 -0.8888  0.1998
  180SOPE  H12B20496   5.482   6.525   5.913  3.1348  0.0519 -1.6023
  180SOPE   C1120497   5.512   6.417   6.102 -0.1644 -1.3404 -0.2465
  180SOPE  H11A20498   5.519   6.443   6.210 -1.1951  0.4185 -0.5636
  180SOPE  H11B20499   5.600   6.358   6.069  0.1284 -0.6997 -0.6274
  180SOPE     P20500   5.389   6.189   6.127  0.0646  0.2620 -0.2918
  180SOPE   O1320501   5.516   6.117   6.103  0.0813  0.7161  0.2728
  180SOPE   O1420502   5.265   6.129   6.074 -0.1484 -0.7440  0.3107
  180SOPE   O1220503   5.400   6.339   6.080  0.3985  0.0075 -0.2282
  180SOPE   O1120504   5.375   6.201   6.281 -0.1284  0.1777 -0.7889
  180SOPE    C120505   5.298   6.299   6.340 -0.4006  0.5614 -0.0344
  180SOPE    HA20506   5.220   6.339   6.272 -0.2738 -0.5017 -0.8343
  180SOPE    HB20507   5.360   6.386   6.371  0.5354 -0.8144  2.1014
  180SOPE    C220508   5.235   6.261   6.482 -0.4497  0.2133 -0.4212
  180SOPE    HS20509   5.234   6.358   6.536  0.8059  0.8077 -1.4270
  180SOPE   O2120510   5.317   6.170   6.551 -0.4932  0.3778  0.2125
  180SOPE   C2120511   5.454   6.206   6.566  1.0470 -0.2993  0.2026
  180SOPE   O2220512   5.509   6.306   6.525 -0.5194 -0.4394 -0.1354
  180SOPE   C2220513   5.526   6.083   6.614  0.4570 -0.5521  0.3696
  180SOPE   H2R20514   5.621   6.069   6.558  1.4552  1.9495  1.2991
  180SOPE   H2S20515   5.463   5.992   6.603  1.9120 -1.6995  1.1302
  180SOPE    C320516   5.096   6.199   6.461 -0.0763 -0.1700  0.3915
  180SOPE    HX20517   5.113   6.123   6.382 -0.3404 -0.1507  0.3160
  180SOPE    HY20518   5.026   6.274   6.417 -0.4694 -0.2230  0.9122
  180SOPE   O3120519   5.029   6.139   6.577 -0.5357  0.0471 -0.2599
  180SOPE   C3120520   4.971   6.220   6.670  0.1092 -0.4072 -0.1369
  180SOPE   O3220521   4.978   6.340   6.673 -0.0893  0.2037 -0.0276
  180SOPE   C3220522   4.907   6.126   6.776 -0.3041 -0.2950  1.0967
  180SOPE   H2X20523   4.900   6.021   6.738  0.3381  1.1892 -3.9218
  180SOPE   H2Y20524   4.811   6.177   6.796  0.2936  1.9379 -1.2409
  180SOPE   C2320525   5.552   6.102   6.766 -0.0216  0.0972 -0.3175
  180SOPE   H3R20526   5.579   6.207   6.790  2.8001 -0.4623 -0.6172
  180SOPE   H3S20527   5.643   6.042   6.791  0.1262  0.4833  0.0853
  180SOPE   C2420528   5.429   6.075   6.848 -0.4360  0.0648  0.8524
  180SOPE   H4R20529   5.344   6.128   6.802 -1.3337 -0.3859  1.9475
  180SOPE   H4S20530   5.406   5.967   6.851 -0.6840  0.1031  0.3953
  180SOPE   C2520531   5.432   6.134   6.985  0.5995  0.7571  0.1460
  180SOPE   H5R20532   5.446   6.244   6.978 -0.9989  1.1954  2.4780
  180SOPE   H5S20533   5.326   6.112   7.013  0.8555  1.3325  1.6434
  180SOPE   C2620534   5.515   6.062   7.083 -0.6152  0.3515 -0.2957
  180SOPE   H6R20535   5.465   5.969   7.116 -1.7426  0.2808 -2.0740
  180SOPE   H6S20536   5.607   6.022   7.037  0.5308  0.2004  2.0102
  180SOPE   C2720537   5.547   6.152   7.205  0.0705 -0.2771 -0.2357
  180SOPE   H7R20538   5.598   6.239   7.156  0.5956 -1.4946 -1.9512
  180SOPE   H7S20539   5.454   6.191   7.250  0.1736 -0.0767 -0.1921
  180SOPE   C2820540   5.634   6.098   7.323  0.1071 -0.0981 -0.3114
  180SOPE   H8R20541   5.579   6.013   7.369 -1.0261  1.2441  0.9160
  180SOPE   H8S20542   5.730   6.070   7.276  0.8126  0.0004  1.0013
  180SOPE   C2920543   5.666   6.200   7.429 -0.2665 -0.5905 -0.1760
  180SOPE   H9120544   5.592   6.276   7.457 -2.2719 -3.2520  2.3223
  180SOPE  C21020545   5.789   6.202   7.495 -0.0915  0.1866  0.0684
  180SOPE  H10120546   5.806   6.271   7.579  0.5837  0.3386 -0.1859
  180SOPE  C21120547   5.907   6.114   7.478  0.3829  0.1378 -0.0564
  180SOPE  H11R20548   5.972   6.181   7.418 -3.7498  2.2381 -2.6687
  180SOPE  H11S20549   5.886   6.032   7.405 -0.1897  0.8512 -0.6997
  180SOPE  C21220550   5.976   6.052   7.606  0.2220 -0.5212  1.1643
  180SOPE  H12R20551   5.975   6.138   7.677  1.4532 -1.2333  2.0891
  180SOPE  H12S20552   6.080   6.027   7.577 -0.3954 -0.5545 -1.1994
  180SOPE  C21320553   5.895   5.942   7.670 -0.2974  0.4578  1.4144
  180SOPE  H13R20554   5.891   5.854   7.603  0.6552 -0.9143  3.0703
  180SOPE  H13S20555   5.791   5.979   7.684 -0.1892  1.9946 -1.2330
  180SOPE  C21420556   5.963   5.887   7.792 -0.2575 -0.1686  0.0203
  180SOPE  H14R20557   6.052   5.840   7.744 -0.1540  1.6292 -1.6864
  180SOPE  H14S20558   5.893   5.812   7.832 -0.9645  1.0832  1.2280
  180SOPE  C21520559   6.007   5.987   7.899  0.5208  0.8158 -0.0142
  180SOPE  H15R20560   5.936   6.055   7.951  0.1813  1.3705 -1.1669
  180SOPE  H15S20561   6.076   6.053   7.842  0.9433 -1.5507 -2.4280
  180SOPE  C21620562   6.095   5.910   7.997  0.1294  0.2857  0.0794
  180SOPE  H16R20563   6.198   5.951   8.010  0.7882 -0.2450 -2.7408
  180SOPE  H16S20564   6.113   5.813   7.946  1.5300  0.3544  0.3949
  180SOPE  C21720565   6.059   5.874   8.139  0.5362  0.6829  0.2989
  180SOPE  H17R20566   6.138   5.802   8.170 -1.1185 -0.8646  1.0956
  180SOPE  H17S20567   5.968   5.813   8.122  1.6739 -0.7961 -0.7381
  180SOPE  C21820568   6.032   5.987   8.244 -0.3596 -0.4140 -0.4753
  180SOPE  H18R20569   5.976   5.937   8.326 -1.5860 -0.0558 -1.0768
  180SOPE  H18S20570   5.970   6.067   8.199  1.5789  1.1940 -0.4319
  180SOPE  H18T20571   6.131   6.024   8.279 -0.7339 -1.4355  1.9085
  180SOPE   C3320572   5.004   6.139   6.893 -0.2708  0.0683 -0.1148
  180SOPE   H3X20573   5.107   6.103   6.872 -0.2194 -0.0840  0.3827
  180SOPE   H3Y20574   4.982   6.067   6.974  0.5913  0.7071  0.7196
  180SOPE   C3420575   4.999   6.282   6.952 -0.0419  0.1658 -0.4492
  180SOPE   H4X20576   4.892   6.311   6.946 -0.4236 -1.3564 -1.5641
  180SOPE   H4Y20577   5.058   6.344   6.880 -0.9875 -3.0408 -4.3496
  180SOPE   C3520578   5.051   6.289   7.100  0.1244  0.3477  0.0642
  180SOPE   H5X20579   5.154   6.249   7.113 -0.8578 -1.8454  1.9710
  180SOPE   H5Y20580   5.002   6.206   7.156  0.0460  0.4638  0.1688
  180SOPE   C3620581   5.037   6.415   7.184  0.1813  0.1935 -0.6631
  180SOPE   H6X20582   4.929   6.442   7.194 -0.0493 -1.4100  2.1460
  180SOPE   H6Y20583   5.084   6.494   7.121  2.0174 -0.4208 -0.1147
  180SOPE   C3720584   5.116   6.418   7.318  0.4542 -0.4635  0.2244
  180SOPE   H7X20585   5.070   6.351   7.394 -0.5931  0.9773  0.9307
  180SOPE   H7Y20586   5.103   6.516   7.370 -0.7080 -0.5510  0.1307
  180SOPE   C3820587   5.267   6.396   7.308  0.0988  0.2155  0.7380
  180SOPE   H8X20588   5.302   6.448   7.217  2.3412 -0.5968  1.0835
  180SOPE   H8Y20589   5.273   6.289   7.282 -2.4986  0.0568  0.4760
  180SOPE   C3920590   5.345   6.444   7.434  0.3418  0.1105 -0.3805
  180SOPE   H9X20591   5.328   6.552   7.455  0.7950  0.5026 -1.9096
  180SOPE   H9Y20592   5.453   6.429   7.411  0.0113 -2.4348 -0.5679
  180SOPE  C31020593   5.319   6.378   7.573  0.5148  0.4735 -0.8520
  180SOPE  H10X20594   5.336   6.269   7.557  1.6965  0.0982  2.1110
  180SOPE  H10Y20595   5.215   6.403   7.602  1.0097  3.0214 -1.0682
  180SOPE  C31120596   5.431   6.419   7.678 -0.1422  0.6807 -1.0464
  180SOPE  H11X20597   5.419   6.526   7.704  1.4443  0.6355  0.0227
  180SOPE  H11Y20598   5.531   6.421   7.629  2.1934 -0.3720  3.1953
  180SOPE  C31220599   5.436   6.327   7.805 -0.4091 -0.3552  0.4812
  180SOPE  H12X20600   5.343   6.340   7.864  0.6317 -4.0107  3.2857
  180SOPE  H12Y20601   5.522   6.358   7.868  1.3136 -2.2566 -0.7917
  180SOPE  C31320602   5.463   6.179   7.779 -0.2715  0.2763  0.2348
  180SOPE  H13X20603   5.545   6.167   7.705  1.9037  0.2836  2.4956
  180SOPE  H13Y20604   5.367   6.144   7.736 -0.2741  2.0178 -1.3287
  180SOPE  C31420605   5.490   6.095   7.901 -0.1527  0.4960  0.6605
  180SOPE  H14X20606   5.413   6.109   7.980 -0.9903 -0.6021  0.0562
  180SOPE  H14Y20607   5.592   6.122   7.938  0.1688 -0.1240  0.2425
  180SOPE  C31520608   5.485   5.946   7.864 -0.0910 -0.4115  0.7284
  180SOPE  H15X20609   5.535   5.927   7.766  2.0250 -1.3777  1.9502
  180SOPE  H15Y20610   5.380   5.909   7.864 -1.1014  2.1834  2.0902
  180SOPE  C31620611   5.562   5.857   7.966  0.4805  0.0038  0.0602
  180SOPE  H16X20612   5.513   5.876   8.063 -0.5559  1.7708 -0.7560
  180SOPE  H16Y20613   5.665   5.896   7.977  0.3502  0.0814  1.0529
  180SOPE  C31720614   5.566   5.710   7.931 -0.1831 -0.2072  0.5127
  180SOPE  H17X20615   5.631   5.655   8.002  2.0366  0.4686 -0.9001
  180SOPE  H17Y20616   5.633   5.694   7.844  0.0786  0.9320  0.4890
  180SOPE  C31820617   5.421   5.638   7.917 -0.0510 -0.5449  0.3364
  180SOPE  H18X20618   5.436   5.529   7.934  0.1588 -0.4890  0.5128
  180SOPE  H18Y20619   5.375   5.656   7.818 -0.9252  0.9755  0.9865
  180SOPE  H18Z20620   5.346   5.671   7.992 -0.4464 -1.1570  0.2185
  181SOPE     N20621   5.976   4.897   6.388 -0.0501  0.1624  0.0173
  181SOPE   HN120622   6.002   4.870   6.485  1.2245  1.5913  0.0896
  181SOPE   HN220623   6.011   4.824   6.322  0.6039  1.6471 -1.3398
  181SOPE   HN320624   6.022   4.987   6.367 -1.0713  1.1071  1.6712
  181SOPE   C1220625   5.834   4.910   6.377  0.1359 -0.2235 -0.0215
  181SOPE  H12A20626   5.814   4.962   6.281 -1.0124 -1.8766 -0.7326
  181SOPE  H12B20627   5.803   4.964   6.469 -1.1132 -1.0614  0.0718
  181SOPE   C1120628   5.759   4.778   6.387 -0.3831  0.1301  0.0507
  181SOPE  H11A20629   5.659   4.786   6.341  0.2658  0.9611 -1.2816
  181SOPE  H11B20630   5.753   4.756   6.496  2.2742  2.1764  0.7419
  181SOPE     P20631   5.781   4.531   6.296  0.3426 -0.0388  0.4028
  181SOPE   O1320632   5.894   4.450   6.245  0.0516 -0.6921  0.0688
  181SOPE   O1420633   5.661   4.535   6.201  0.3011  0.4364 -0.0667
  181SOPE   O1220634   5.842   4.678   6.326 -0.4265 -0.0740  0.1521
  181SOPE   O1120635   5.741   4.490   6.445 -0.0181 -0.6523  0.0933
  181SOPE    C120636   5.832   4.403   6.519 -0.1442 -0.0963 -0.2641
  181SOPE    HA20637   5.899   4.343   6.455  0.5239  0.9450 -0.5625
  181SOPE    HB20638   5.780   4.337   6.592 -0.6449 -1.4282 -1.7690
  181SOPE    C220639   5.934   4.488   6.605  0.0427 -0.8707 -0.0973
  181SOPE    HS20640   5.984   4.559   6.535 -0.3146 -0.2938  0.2214
  181SOPE   O2120641   6.021   4.387   6.663 -0.5347 -0.1620 -0.4225
  181SOPE   C2120642   6.150   4.410   6.650 -0.3265  0.3916 -0.6682
  181SOPE   O2220643   6.197   4.508   6.602 -0.5177  0.1952  0.0946
  181SOPE   C2220644   6.227   4.277   6.692  0.2632 -0.6069 -1.2243
  181SOPE   H2R20645   6.329   4.275   6.648  1.2873 -0.7757  1.0385
  181SOPE   H2S20646   6.177   4.194   6.637  0.0830  0.4927 -2.7817
  181SOPE    C320647   5.864   4.578   6.717 -0.2084  0.3682 -0.2398
  181SOPE    HX20648   5.793   4.506   6.763 -1.7888  1.8065 -0.3404
  181SOPE    HY20649   5.793   4.655   6.680 -0.8875  0.2643  0.8180
  181SOPE   O3120650   5.959   4.636   6.808 -0.3820 -0.8881 -0.7671
  181SOPE   C3120651   6.018   4.738   6.767 -0.1522 -1.0033 -0.1507
  181SOPE   O3220652   5.992   4.800   6.666  0.3960 -0.2590  0.6073
  181SOPE   C3220653   6.135   4.768   6.876  0.1634  0.6774 -0.1986
  181SOPE   H2X20654   6.222   4.705   6.847 -0.4234 -2.9181  4.4952
  181SOPE   H2Y20655   6.109   4.737   6.980 -0.6760  0.3877 -0.4882
  181SOPE   C2320656   6.247   4.248   6.845 -0.5325  0.2052  0.4936
  181SOPE   H3R20657   6.326   4.317   6.879  1.1249 -1.8426  1.0127
  181SOPE   H3S20658   6.282   4.143   6.853  0.0570  0.2665 -0.9601
  181SOPE   C2420659   6.113   4.242   6.931 -0.6699 -0.1465  0.3296
  181SOPE   H4R20660   6.030   4.239   6.858 -2.4127 -0.3980  2.2267
  181SOPE   H4S20661   6.113   4.149   6.992 -1.5364 -0.1157  0.3868
  181SOPE   C2520662   6.098   4.366   7.013  0.5110  0.1068 -0.6267
  181SOPE   H5R20663   6.188   4.379   7.076  0.0477  1.9575 -0.2827
  181SOPE   H5S20664   6.093   4.460   6.954  4.6461  1.7701  1.2952
  181SOPE   C2620665   5.981   4.365   7.111  0.1225 -0.0958 -0.1845
  181SOPE   H6R20666   5.977   4.272   7.171 -1.0048  0.0925  0.0698
  181SOPE   H6S20667   5.977   4.455   7.176 -0.5748 -2.0682  2.6897
  181SOPE   C2720668   5.839   4.374   7.046 -0.2533  0.1325  0.4592
  181SOPE   H7R20669   5.830   4.478   7.007  2.0132  1.5906  3.4097
  181SOPE   H7S20670   5.834   4.306   6.959 -0.4759 -1.6580  1.8261
  181SOPE   C2820671   5.724   4.350   7.150  0.2211 -0.3198 -0.3293
  181SOPE   H8R20672   5.762   4.417   7.230 -1.2798 -0.5957  0.6483
  181SOPE   H8S20673   5.623   4.379   7.111 -0.6253 -0.5265  1.6139
  181SOPE   C2920674   5.719   4.209   7.193  0.3769  0.3411 -0.6246
  181SOPE   H9120675   5.783   4.150   7.126  0.7355  1.4755 -1.3290
  181SOPE  C21020676   5.648   4.155   7.299 -0.6525  0.0297 -0.9317
  181SOPE  H10120677   5.647   4.045   7.305  1.0115 -0.0598 -1.9112
  181SOPE  C21120678   5.559   4.231   7.398  0.0456  0.5515  0.0278
  181SOPE  H11R20679   5.600   4.238   7.501 -0.4807 -0.5208  0.3244
  181SOPE  H11S20680   5.470   4.165   7.406 -0.6796  1.3892 -0.9503
  181SOPE  C21220681   5.498   4.370   7.361 -0.0745  0.4866 -0.2216
  181SOPE  H12R20682   5.456   4.363   7.258 -0.8408  2.5554 -0.0883
  181SOPE  H12S20683   5.579   4.445   7.356  0.3365 -0.0302 -2.0281
  181SOPE  C21320684   5.397   4.436   7.456 -0.4088 -0.2978 -0.2329
  181SOPE  H13R20685   5.312   4.367   7.476 -0.6862  0.1398  0.0994
  181SOPE  H13S20686   5.357   4.524   7.403  0.4128 -0.0251 -0.4124
  181SOPE  C21420687   5.459   4.474   7.591  0.5576 -1.0656  0.8324
  181SOPE  H14R20688   5.540   4.545   7.563 -0.6403 -0.4744 -1.3930
  181SOPE  H14S20689   5.496   4.381   7.639  3.3767  0.3122  1.5078
  181SOPE  C21520690   5.365   4.559   7.680  0.9348  0.0931  0.1686
  181SOPE  H15R20691   5.281   4.497   7.718  0.9958  0.6208  1.2114
  181SOPE  H15S20692   5.316   4.642   7.624 -3.0038 -0.5472  2.2667
  181SOPE  C21620693   5.428   4.620   7.800  0.4442 -0.9133 -0.5652
  181SOPE  H16R20694   5.518   4.682   7.779 -0.7131  1.2071  0.3554
  181SOPE  H16S20695   5.461   4.543   7.873 -1.2513  0.1032  1.3720
  181SOPE  C21720696   5.324   4.711   7.877  1.1076 -0.1135  0.4793
  181SOPE  H17R20697   5.215   4.691   7.865  0.5590  2.0674  1.2861
  181SOPE  H17S20698   5.325   4.807   7.820 -0.9578 -1.3041 -1.7724
  181SOPE  C21820699   5.364   4.742   8.017 -0.7970 -0.0943  0.1340
  181SOPE  H18R20700   5.458   4.798   8.031 -0.7913 -0.0279 -0.1865
  181SOPE  H18S20701   5.371   4.653   8.084  1.2483  1.3918  2.0356
  181SOPE  H18T20702   5.291   4.801   8.077 -1.8364 -0.4220 -0.7778
  181SOPE   C3320703   6.176   4.916   6.886  0.1179 -0.4686  0.6206
  181SOPE   H3X20704   6.182   4.961   6.784  0.2100 -1.9599 -0.0522
  181SOPE   H3Y20705   6.276   4.934   6.931 -0.1217 -0.1558  1.0313
  181SOPE   C3420706   6.075   4.995   6.973 -0.6267  0.6967  0.8335
  181SOPE   H4X20707   6.103   4.978   7.079  1.2291  0.7251  0.3886
  181SOPE   H4Y20708   5.970   4.964   6.955 -0.4100 -0.7271  1.8777
  181SOPE   C3520709   6.094   5.142   6.948 -0.2862 -0.4340  0.2487
  181SOPE   H5X20710   6.044   5.162   6.851  0.6304  0.3384 -0.0810
  181SOPE   H5Y20711   6.203   5.163   6.952 -0.1844 -1.0512  0.9173
  181SOPE   C3620712   6.026   5.239   7.050 -0.9373  0.1722 -0.2625
  181SOPE   H6X20713   5.916   5.228   7.044 -1.3842  2.9590  1.3104
  181SOPE   H6Y20714   6.064   5.340   7.023  1.2330 -0.3884  0.4482
  181SOPE   C3720715   6.082   5.215   7.192 -0.3409 -0.2321 -0.1770
  181SOPE   H7X20716   6.192   5.221   7.185 -0.1682 -0.0314  1.9602
  181SOPE   H7Y20717   6.057   5.113   7.228 -0.5293 -0.7421 -1.6623
  181SOPE   C3820718   6.015   5.317   7.285 -0.3400 -0.4204 -0.1531
  181SOPE   H8X20719   5.905   5.303   7.275 -0.0938 -1.9738 -1.0954
  181SOPE   H8Y20720   6.041   5.418   7.246  0.8578 -1.1643 -1.3492
  181SOPE   C3920721   6.070   5.293   7.430  0.2013  0.1642  0.5118
  181SOPE   H9X20722   6.175   5.328   7.432 -0.3666  1.9446  1.3089
  181SOPE   H9Y20723   6.068   5.190   7.471  2.0319 -1.1272 -2.2989
  181SOPE  C31020724   5.988   5.361   7.536 -0.2472  0.3856 -0.8393
  181SOPE  H10X20725   5.886   5.317   7.544  0.1641 -0.5519 -0.7388
  181SOPE  H10Y20726   5.979   5.467   7.503 -1.2663  0.2871 -0.9161
  181SOPE  C31120727   6.065   5.375   7.670  0.3225 -0.1437  0.1176
  181SOPE  H11X20728   6.157   5.432   7.645  0.8245 -1.0256 -0.1096
  181SOPE  H11Y20729   6.099   5.271   7.692  0.8967 -0.3836 -1.6945
  181SOPE  C31220730   5.972   5.441   7.781  0.0043  0.8141 -0.3999
  181SOPE  H12X20731   5.889   5.373   7.813  1.6943 -1.0876  0.1667
  181SOPE  H12Y20732   5.931   5.533   7.736  0.8358  1.8728  0.9326
  181SOPE  C31320733   6.050   5.465   7.916 -0.1225  0.2890  0.1692
  181SOPE  H13X20734   5.979   5.509   7.989 -0.9387 -1.2270  0.3258
  181SOPE  H13Y20735   6.121   5.551   7.908 -2.7006  2.8387  2.3750
  181SOPE  C31420736   6.124   5.339   7.962  0.3975  0.2837  0.6005
  181SOPE  H14X20737   6.216   5.327   7.901 -0.1369 -0.6527 -0.0349
  181SOPE  H14Y20738   6.067   5.245   7.951  1.4997 -0.3206 -0.0956
  181SOPE  C31520739   6.138   5.351   8.113 -0.1872  0.0934  0.3782
  181SOPE  H15X20740   6.037   5.372   8.153 -0.7327 -2.2194  0.3015
  181SOPE  H15Y20741   6.200   5.443   8.129  0.7365 -0.2246 -1.2070
  181SOPE  C31620742   6.198   5.235   8.189 -0.0253  0.2199 -0.2654
  181SOPE  H16X20743   6.303   5.215   8.160  1.0400  1.3346  2.4420
  181SOPE  H16Y20744   6.137   5.144   8.171  0.4899 -0.0767 -0.5469
  181SOPE  C31720745   6.209   5.260   8.341  0.2535  0.3016  0.6495
  181SOPE  H17X20746   6.271   5.352   8.350  2.1354 -0.4901 -2.5767
  181SOPE  H17Y20747   6.267   5.181   8.392  0.6279  0.9543  1.2554
  181SOPE  C31820748   6.075   5.280   8.418 -0.2020  0.1167  0.6815
  181SOPE  H18X20749   6.024   5.378   8.409  0.2089  0.7228  3.8258
  181SOPE  H18Y20750   6.101   5.280   8.525 -0.5905  1.5333  0.7991
  181SOPE  H18Z20751   6.004   5.194   8.409  0.5732 -0.5335  0.7192
  182SOPE     N20752   6.484   5.649   6.138 -0.5802  0.9041 -0.3702
  182SOPE   HN120753   6.408   5.594   6.094 -0.9066  0.3065  0.8666
  182SOPE   HN220754   6.483   5.748   6.108 -2.4127  0.7944 -0.8094
  182SOPE   HN320755   6.570   5.604   6.103 -0.5617  0.4905  0.1917
  182SOPE   C1220756   6.467   5.624   6.290 -0.1335 -0.2780 -0.2455
  182SOPE  H12A20757   6.431   5.719   6.335 -0.1054 -2.0733  3.9878
  182SOPE  H12B20758   6.566   5.597   6.332 -0.1656  1.1433  0.7990
  182SOPE   C1120759   6.363   5.514   6.317 -0.0840  0.1608  0.4954
  182SOPE  H11A20760   6.260   5.550   6.300 -0.1198 -0.2706 -0.2646
  182SOPE  H11B20761   6.381   5.483   6.422  2.8572  0.5881  0.2224
  182SOPE     P20762   6.451   5.267   6.274 -0.0622 -0.2602  0.3732
  182SOPE   O1320763   6.585   5.301   6.331  0.0638  0.6336  0.4474
  182SOPE   O1420764   6.438   5.169   6.164 -0.4296 -0.0199  0.0976
  182SOPE   O1220765   6.393   5.410   6.224  0.6061  0.4885  0.5871
  182SOPE   O1120766   6.361   5.228   6.390 -0.2838  0.0551  0.2819
  182SOPE    C120767   6.374   5.109   6.465 -0.2149 -0.0007  0.3461
  182SOPE    HA20768   6.473   5.061   6.449  0.1977  1.0284 -0.2967
  182SOPE    HB20769   6.291   5.041   6.436  0.7769 -0.4681 -1.5631
  182SOPE    C220770   6.362   5.147   6.614  0.2317 -1.0571  0.5146
  182SOPE    HS20771   6.325   5.065   6.679 -1.1800  1.0518  2.4959
  182SOPE   O2120772   6.263   5.251   6.629  0.1353 -0.4333 -0.0653
  182SOPE   C2120773   6.134   5.213   6.603 -0.0260 -0.2265  0.4667
  182SOPE   O2220774   6.098   5.101   6.569 -0.3554  0.7148 -0.9033
  182SOPE   C2220775   6.043   5.337   6.599 -0.3912 -0.0204 -0.2061
  182SOPE   H2R20776   6.091   5.414   6.536  1.3451 -0.8993 -0.0064
  182SOPE   H2S20777   6.033   5.378   6.702 -1.9405  1.4027 -0.8749
  182SOPE    C320778   6.498   5.198   6.668 -0.4652  0.5661  0.2300
  182SOPE    HX20779   6.532   5.290   6.616 -0.1802  0.6735  0.6022
  182SOPE    HY20780   6.569   5.114   6.659  1.2668  2.0450 -0.4539
  182SOPE   O3120781   6.494   5.243   6.801 -0.0052  0.2613 -0.1005
  182SOPE   C3120782   6.502   5.153   6.901 -0.3818 -0.0620  0.6323
  182SOPE   O3220783   6.506   5.033   6.891  0.0433 -0.5909  0.4941
  182SOPE   C3220784   6.507   5.217   7.040 -0.3645 -0.6953 -0.4178
  182SOPE   H2X20785   6.416   5.279   7.047 -0.4856 -0.7286 -1.4430
  182SOPE   H2Y20786   6.591   5.289   7.044 -0.3004 -0.6905 -1.4496
  182SOPE   C2320787   5.899   5.316   6.553 -0.0763 -0.0441 -0.0298
  182SOPE   H3R20788   5.905   5.243   6.469  0.4845 -0.8668  0.6964
  182SOPE   H3S20789   5.856   5.411   6.515  1.6357  0.5703 -0.5195
  182SOPE   C2420790   5.830   5.250   6.671 -0.3949 -0.0425  0.3125
  182SOPE   H4R20791   5.886   5.159   6.701 -0.9061 -0.3566  0.3381
  182SOPE   H4S20792   5.822   5.324   6.754 -0.6150  0.3397 -0.0475
  182SOPE   C2520793   5.683   5.207   6.640 -0.1157 -0.0482  0.4965
  182SOPE   H5R20794   5.613   5.293   6.632 -0.3742 -0.2728  0.3063
  182SOPE   H5S20795   5.680   5.180   6.532 -1.3096 -0.1506  0.5421
  182SOPE   C2620796   5.631   5.098   6.738 -0.0314  0.3788 -0.6083
  182SOPE   H6R20797   5.697   5.012   6.714  0.3800  0.6915 -0.6064
  182SOPE   H6S20798   5.652   5.134   6.841 -1.1292 -3.2008  1.0053
  182SOPE   C2720799   5.482   5.068   6.712 -0.2439  0.5976 -0.2268
  182SOPE   H7R20800   5.422   5.158   6.741  0.0320  0.1931  1.7662
  182SOPE   H7S20801   5.464   5.054   6.604  1.2403 -2.1624 -0.1951
  182SOPE   C2820802   5.435   4.951   6.799  0.9486  0.6118 -0.4386
  182SOPE   H8R20803   5.436   4.968   6.908  2.5824 -3.0958  0.3008
  182SOPE   H8S20804   5.326   4.942   6.777  0.7604 -0.2226  0.7390
  182SOPE   C2920805   5.495   4.813   6.765  0.2039 -0.3359 -0.3916
  182SOPE   H9120806   5.491   4.792   6.657 -0.3715  2.0312 -0.9063
  182SOPE  C21020807   5.560   4.729   6.850 -0.4538 -0.9910  0.4250
  182SOPE  H10120808   5.586   4.629   6.812 -0.4466 -0.5861 -0.6771
  182SOPE  C21120809   5.582   4.748   7.000 -0.3759 -0.1096  0.3445
  182SOPE  H11R20810   5.538   4.653   7.038  0.2954 -1.6686 -2.5244
  182SOPE  H11S20811   5.526   4.829   7.051 -1.4270 -1.3768  1.2700
  182SOPE  C21220812   5.735   4.762   7.043 -0.0052  0.2864 -1.4429
  182SOPE  H12R20813   5.751   4.872   7.051 -0.2511  0.1870  2.2630
  182SOPE  H12S20814   5.800   4.701   6.977  3.0280 -0.4384  1.9109
  182SOPE  C21320815   5.767   4.721   7.186 -0.4201  0.0296  0.6896
  182SOPE  H13R20816   5.877   4.718   7.205 -0.9429 -1.9302  4.3377
  182SOPE  H13S20817   5.746   4.614   7.205  0.6439 -0.0469  1.5201
  182SOPE  C21420818   5.688   4.793   7.290 -0.4022 -0.5172 -0.0516
  182SOPE  H14R20819   5.582   4.760   7.286 -0.1467 -1.1735 -2.0613
  182SOPE  H14S20820   5.687   4.902   7.264  2.5154 -0.2752  0.4867
  182SOPE  C21520821   5.738   4.776   7.435 -0.1819 -1.7290 -0.4366
  182SOPE  H15R20822   5.845   4.803   7.439 -0.8384  1.0493  0.6573
  182SOPE  H15S20823   5.730   4.672   7.473  0.1090 -2.0956 -1.3464
  182SOPE  C21620824   5.676   4.874   7.540  0.6246  0.7873 -0.2491
  182SOPE  H16R20825   5.575   4.838   7.567  0.1536  3.0876  1.3240
  182SOPE  H16S20826   5.659   4.977   7.502 -1.5436  0.5974  0.0983
  182SOPE  C21720827   5.764   4.864   7.662 -0.4173 -0.1259 -0.8094
  182SOPE  H17R20828   5.867   4.901   7.643  1.3278 -4.2485 -0.3938
  182SOPE  H17S20829   5.777   4.754   7.675 -0.7445  0.0767  1.6397
  182SOPE  C21820830   5.705   4.913   7.799  0.2136 -0.7068 -0.1513
  182SOPE  H18R20831   5.734   5.020   7.808 -1.9509  0.0227 -1.1997
  182SOPE  H18S20832   5.749   4.847   7.876 -0.5974 -1.2981 -0.1840
  182SOPE  H18T20833   5.596   4.904   7.813  0.3584  0.1815  1.7963
  182SOPE   C3320834   6.515   5.120   7.163 -0.4799 -0.3021  0.5290
  182SOPE   H3X20835   6.572   5.028   7.136  1.4970  1.0437 -0.0256
  182SOPE   H3Y20836   6.411   5.086   7.183 -0.8675  0.1581 -0.6271
  182SOPE   C3420837   6.571   5.181   7.292  0.2033 -0.7768  0.1630
  182SOPE   H4X20838   6.680   5.197   7.275  0.1902 -1.0815 -0.2433
  182SOPE   H4Y20839   6.570   5.100   7.368  2.5551  0.7239  1.9254
  182SOPE   C3520840   6.501   5.307   7.346  0.4673  0.0813  0.6721
  182SOPE   H5X20841   6.392   5.305   7.365  0.4828 -1.7022  0.7411
  182SOPE   H5Y20842   6.516   5.393   7.276 -3.4137  0.6585  0.3588
  182SOPE   C3620843   6.561   5.358   7.483  0.1886  0.1217 -0.6214
  182SOPE   H6X20844   6.506   5.447   7.521 -0.1137  0.2171 -1.2692
  182SOPE   H6Y20845   6.669   5.378   7.465  0.4600 -2.1555 -2.0071
  182SOPE   C3720846   6.567   5.254   7.603 -0.3229  0.4275  0.1974
  182SOPE   H7X20847   6.658   5.191   7.594  0.6261  1.9150 -1.1834
  182SOPE   H7Y20848   6.474   5.193   7.602  0.3626 -0.6494  0.5652
  182SOPE   C3820849   6.582   5.337   7.733  0.3340  0.3525  0.8262
  182SOPE   H8X20850   6.486   5.389   7.749  1.1868  1.6183  2.1706
  182SOPE   H8Y20851   6.661   5.415   7.724  1.0947 -0.4180  0.7056
  182SOPE   C3920852   6.634   5.248   7.844 -0.4076  0.2308 -0.3569
  182SOPE   H9X20853   6.671   5.314   7.925 -2.1319 -1.0363  1.5753
  182SOPE   H9Y20854   6.719   5.184   7.811 -0.7232 -0.2633 -0.2129
  182SOPE  C31020855   6.534   5.149   7.903 -0.1741  1.1222  0.4048
  182SOPE  H10X20856   6.474   5.097   7.826  2.7361 -1.5212 -0.2767
  182SOPE  H10Y20857   6.452   5.189   7.966 -0.6136 -0.7555  1.0870
  182SOPE  C31120858   6.611   5.052   7.998 -0.0849  0.2233  0.2025
  182SOPE  H11X20859   6.663   5.110   8.077  1.0113 -1.7683  1.0197
  182SOPE  H11Y20860   6.687   5.001   7.935 -2.5551 -1.1469 -1.8621
  182SOPE  C31220861   6.521   4.943   8.052  0.4359  0.0199 -0.2410
  182SOPE  H12X20862   6.466   4.894   7.969 -0.6574  0.0218  0.4606
  182SOPE  H12Y20863   6.449   4.987   8.124  0.6807 -1.0802  0.7230
  182SOPE  C31320864   6.592   4.829   8.133  0.0664 -0.1524  0.8004
  182SOPE  H13X20865   6.674   4.878   8.190 -0.7674  1.7351  0.4650
  182SOPE  H13Y20866   6.630   4.757   8.058 -2.8219 -2.6200  1.4960
  182SOPE  C31420867   6.501   4.749   8.226 -0.2001 -0.0789 -0.1868
  182SOPE  H14X20868   6.526   4.641   8.227  1.3991  0.1708 -2.6178
  182SOPE  H14Y20869   6.395   4.753   8.193  0.0729 -0.1150 -1.0972
  182SOPE  C31520870   6.510   4.798   8.375 -0.3053  0.2908 -0.0676
  182SOPE  H15X20871   6.617   4.792   8.407 -0.3855  0.4721  0.2408
  182SOPE  H15Y20872   6.448   4.728   8.435  1.4188  0.0588  1.5808
  182SOPE  C31620873   6.458   4.942   8.394  0.1725 -0.0406 -0.6059
  182SOPE  H16X20874   6.371   4.957   8.326  1.1037  1.1754 -1.5725
  182SOPE  H16Y20875   6.532   5.022   8.373 -2.4852  2.8601  0.3628
  182SOPE  C31720876   6.399   4.959   8.535  0.3133 -0.1971 -0.5428
  182SOPE  H17X20877   6.394   5.069   8.555 -0.2728 -0.4371  0.7491
  182SOPE  H17Y20878   6.464   4.912   8.612 -0.7030  2.0133  1.7948
  182SOPE  C31820879   6.255   4.898   8.548  0.6171  0.5464  1.0874
  182SOPE  H18X20880   6.262   4.797   8.501  2.2048  1.5743 -1.1006
  182SOPE  H18Y20881   6.172   4.955   8.501 -0.7455 -0.6988  1.8963
  182SOPE  H18Z20882   6.224   4.890   8.654 -1.2300  0.4736  0.5839
  183SOPE     N20883   2.458   3.876   5.968 -0.0295  0.6355  0.0535
  183SOPE   HN120884   2.401   3.947   6.018 -0.0042  1.2335 -0.7417
  183SOPE   HN220885   2.442   3.888   5.866 -0.4863  0.6972  0.1301
  183SOPE   HN320886   2.427   3.786   6.008 -1.2170  1.2688  0.6219
  183SOPE   C1220887   2.608   3.892   5.997  0.2230 -0.0342 -0.2343
  183SOPE  H12A20888   2.632   4.000   5.984  0.3044 -0.3535 -3.6853
  183SOPE  H12B20889   2.660   3.835   5.917 -0.0613 -1.6668  0.6953
  183SOPE   C1120890   2.651   3.865   6.142  0.1869  0.5228 -0.6500
  183SOPE  H11A20891   2.591   3.913   6.222 -0.9700 -0.4608 -0.9005
  183SOPE  H11B20892   2.754   3.906   6.140  0.6163 -0.4950 -0.1374
  183SOPE     P20893   2.544   3.650   6.235  0.1037 -0.0838 -0.3571
  183SOPE   O1320894   2.572   3.505   6.241  0.1817  0.3848 -0.1740
  183SOPE   O1420895   2.421   3.690   6.167 -0.1759  0.1258 -0.0262
  183SOPE   O1220896   2.664   3.721   6.161 -0.1662  0.3999  0.1311
  183SOPE   O1120897   2.550   3.691   6.385  0.3058  0.1371 -0.0383
  183SOPE    C120898   2.678   3.685   6.456 -0.1933  0.4357  0.0291
  183SOPE    HA20899   2.760   3.733   6.399 -0.1379  0.7834  0.3952
  183SOPE    HB20900   2.709   3.580   6.474  1.1607  0.6922 -0.7135
  183SOPE    C220901   2.668   3.762   6.591  0.0925 -0.1298  0.0670
  183SOPE    HS20902   2.770   3.780   6.630 -1.1620  0.9911  3.1764
  183SOPE   O2120903   2.596   3.680   6.691  1.0624  0.5140 -0.6964
  183SOPE   C2120904   2.636   3.699   6.820  0.3188 -0.7768  0.0558
  183SOPE   O2220905   2.726   3.773   6.856 -0.0371  0.8104 -0.0800
  183SOPE   C2220906   2.552   3.605   6.924 -0.0004 -0.3283  0.2639
  183SOPE   H2R20907   2.578   3.498   6.915 -0.7194 -0.3491 -2.3384
  183SOPE   H2S20908   2.443   3.612   6.904 -0.5498 -1.9579  2.3096
  183SOPE    C320909   2.602   3.900   6.563 -0.4667  0.0995  0.6196
  183SOPE    HX20910   2.508   3.875   6.510  1.6436 -2.1467 -2.4358
  183SOPE    HY20911   2.666   3.952   6.489  0.4142 -0.3357  1.0572
  183SOPE   O3120912   2.592   3.984   6.681 -0.3285 -0.2479  0.2554
  183SOPE   C3120913   2.539   4.099   6.662  0.0556 -0.0192  0.8454
  183SOPE   O3220914   2.510   4.146   6.551  0.4420  0.0394  0.3532
  183SOPE   C3220915   2.500   4.164   6.798  1.1856 -0.2962  0.3082
  183SOPE   H2X20916   2.565   4.127   6.880  0.3696  0.2274  1.2016
  183SOPE   H2Y20917   2.392   4.141   6.809  0.3374  2.3999 -1.4043
  183SOPE   C2320918   2.570   3.669   7.066  0.2227  0.4930  0.3128
  183SOPE   H3R20919   2.545   3.777   7.063 -2.4946 -0.0775 -0.4726
  183SOPE   H3S20920   2.676   3.662   7.098  1.4201 -0.2005 -3.3834
  183SOPE   C2420921   2.492   3.601   7.179  0.2653  0.2913 -0.2564
  183SOPE   H4R20922   2.383   3.599   7.160 -0.1875 -1.4979  2.0427
  183SOPE   H4S20923   2.523   3.495   7.172 -0.5555  0.1707 -3.5403
  183SOPE   C2520924   2.514   3.672   7.314  0.0458  0.3828 -0.1347
  183SOPE   H5R20925   2.621   3.670   7.343 -0.0475  0.0384  0.1880
  183SOPE   H5S20926   2.491   3.779   7.294 -0.7383  0.2969  0.2565
  183SOPE   C2620927   2.416   3.597   7.405 -0.2255 -0.0087 -0.4172
  183SOPE   H6R20928   2.316   3.597   7.357 -2.4392  1.8184  3.7174
  183SOPE   H6S20929   2.452   3.492   7.401  0.1566  0.1428 -1.2591
  183SOPE   C2720930   2.418   3.651   7.550  1.1168 -0.0051  0.1844
  183SOPE   H7R20931   2.520   3.685   7.579  0.9356  1.4131 -0.7367
  183SOPE   H7S20932   2.349   3.737   7.533  1.7293  0.5250  0.3564
  183SOPE   C2820933   2.359   3.567   7.660 -0.0498  0.0541 -0.7856
  183SOPE   H8R20934   2.308   3.623   7.741  2.1531 -0.1927  0.8592
  183SOPE   H8S20935   2.282   3.506   7.608  0.6644 -0.1637 -1.6068
  183SOPE   C2920936   2.455   3.463   7.711 -1.0241 -0.0928 -0.8689
  183SOPE   H9120937   2.528   3.426   7.638  1.8316 -2.4240  2.8117
  183SOPE  C21020938   2.492   3.426   7.838 -0.2468  0.2594 -0.0338
  183SOPE  H10120939   2.567   3.346   7.852 -0.9970 -0.2210  1.4855
  183SOPE  C21120940   2.437   3.470   7.973 -0.2812 -0.2454  0.2828
  183SOPE  H11R20941   2.427   3.382   8.040  1.5854 -1.1322 -0.5160
  183SOPE  H11S20942   2.345   3.528   7.950  1.4619  2.5315 -0.1618
  183SOPE  C21220943   2.530   3.558   8.055 -0.0528 -0.0625 -0.0350
  183SOPE  H12R20944   2.565   3.636   7.984  1.8464  0.5444  1.4746
  183SOPE  H12S20945   2.622   3.498   8.075 -0.9228 -1.4252  0.0298
  183SOPE  C21320946   2.471   3.619   8.187  0.5013 -0.0524  0.1898
  183SOPE  H13R20947   2.382   3.682   8.162 -0.7987 -0.6372  2.8993
  183SOPE  H13S20948   2.550   3.683   8.231 -0.2146 -0.1071  1.6283
  183SOPE  C21420949   2.425   3.511   8.287  0.2967 -0.0505 -0.9543
  183SOPE  H14R20950   2.498   3.428   8.296 -4.4292 -4.5732  0.6827
  183SOPE  H14S20951   2.333   3.461   8.247 -1.1145 -1.6584  3.6902
  183SOPE  C21520952   2.389   3.558   8.423 -0.2461 -0.5668 -0.4329
  183SOPE  H15R20953   2.319   3.495   8.482  0.9260 -2.0634 -0.5619
  183SOPE  H15S20954   2.338   3.654   8.400 -2.7206 -1.6376  0.2676
  183SOPE  C21620955   2.523   3.578   8.511  0.6938 -0.1575  0.7289
  183SOPE  H16R20956   2.578   3.664   8.466  1.1302 -1.1318 -0.6544
  183SOPE  H16S20957   2.591   3.491   8.514  1.4845  0.4719  1.6211
  183SOPE  C21720958   2.483   3.596   8.657  0.6185 -0.4715  0.2201
  183SOPE  H17R20959   2.418   3.686   8.658  0.7450 -0.3773  1.2156
  183SOPE  H17S20960   2.574   3.631   8.710  1.3595  1.4748 -2.1698
  183SOPE  C21820961   2.429   3.477   8.739 -0.0290  0.2663  0.1601
  183SOPE  H18R20962   2.332   3.446   8.695  0.9515 -0.4605 -1.6048
  183SOPE  H18S20963   2.410   3.518   8.841 -0.5984  0.5727 -0.0685
  183SOPE  H18T20964   2.509   3.400   8.733  1.0202  1.4721 -3.6806
  183SOPE   C3320965   2.507   4.322   6.790 -0.5779  0.1280 -0.3211
  183SOPE   H3X20966   2.457   4.346   6.694 -1.4372 -1.0667 -0.1952
  183SOPE   H3Y20967   2.613   4.352   6.775 -1.1058  1.7998 -0.8767
  183SOPE   C3420968   2.449   4.401   6.909  0.1770  0.9854  0.4289
  183SOPE   H4X20969   2.344   4.365   6.920  0.5277 -0.4756 -0.6796
  183SOPE   H4Y20970   2.448   4.506   6.875  3.0949  0.7098 -0.8094
  183SOPE   C3520971   2.524   4.387   7.040  0.5791  0.2945  0.2298
  183SOPE   H5X20972   2.628   4.421   7.024  0.7014  0.9084  2.0569
  183SOPE   H5Y20973   2.530   4.282   7.076  3.7917  0.1270 -0.5306
  183SOPE   C3620974   2.460   4.485   7.134  0.1427 -0.5759 -0.5799
  183SOPE   H6X20975   2.350   4.465   7.138  0.3597 -1.6029  2.4471
  183SOPE   H6Y20976   2.476   4.586   7.090  0.8836 -1.4819 -2.5163
  183SOPE   C3720977   2.525   4.465   7.270  0.4197 -0.2248  0.7294
  183SOPE   H7X20978   2.634   4.481   7.255  0.4075 -1.0955 -0.4718
  183SOPE   H7Y20979   2.516   4.359   7.302  1.5388 -0.7708 -0.6688
  183SOPE   C3820980   2.486   4.574   7.371 -0.1466  0.4023 -0.0929
  183SOPE   H8X20981   2.379   4.602   7.365 -0.5996 -1.2175 -0.1274
  183SOPE   H8Y20982   2.554   4.659   7.351  0.6187 -0.5759 -1.8641
  183SOPE   C3920983   2.512   4.549   7.515 -0.4258  0.2105  0.2369
  183SOPE   H9X20984   2.519   4.645   7.570 -1.7359  1.4347 -1.6256
  183SOPE   H9Y20985   2.607   4.492   7.525 -0.7280 -0.3379  0.0562
  183SOPE  C31020986   2.397   4.469   7.587 -0.1730  0.1627  0.1241
  183SOPE  H10X20987   2.401   4.363   7.553  2.7181 -0.0795  0.8937
  183SOPE  H10Y20988   2.299   4.514   7.563  0.6906  0.9225 -2.2135
  183SOPE  C31120989   2.399   4.466   7.740  0.0776 -0.0492  0.8127
  183SOPE  H11X20990   2.308   4.413   7.774  0.1630 -0.7370  0.0023
  183SOPE  H11Y20991   2.399   4.566   7.788  0.2367  1.0014 -1.2536
  183SOPE  C31220992   2.528   4.403   7.787 -0.0556 -0.3590 -0.2924
  183SOPE  H12X20993   2.611   4.466   7.749 -0.8266  2.6796  2.5228
  183SOPE  H12Y20994   2.549   4.296   7.763  0.5321 -0.5958  1.1555
  183SOPE  C31320995   2.564   4.416   7.941  0.1664 -0.2590  0.8725
  183SOPE  H13X20996   2.579   4.525   7.962 -1.0634 -0.3364  2.3189
  183SOPE  H13Y20997   2.661   4.367   7.963  1.6728  1.0382 -2.2842
  183SOPE  C31420998   2.454   4.361   8.034  0.0769 -0.0158 -0.6015
  183SOPE  H14X20999   2.470   4.252   8.040  3.3611  0.3718 -0.3063
  183SOPE  H14Y21000   2.364   4.405   7.985  1.1296  0.4122 -2.2319
  183SOPE  C31521001   2.460   4.409   8.180  0.1267 -0.6228 -0.6539
  183SOPE  H15X21002   2.462   4.520   8.190 -0.7607 -0.8013  2.3895
  183SOPE  H15Y21003   2.559   4.377   8.218  0.4387  1.0234  0.0303
  183SOPE  C31621004   2.345   4.355   8.261 -0.1244  0.7031  0.2900
  183SOPE  H16X21005   2.378   4.370   8.366  0.9204 -1.5116  0.3341
  183SOPE  H16Y21006   2.331   4.247   8.239  0.9489  0.8035 -1.0332
  183SOPE  C31721007   2.212   4.426   8.237  0.6735 -0.2783  0.0605
  183SOPE  H17X21008   2.175   4.420   8.132 -0.0818  3.8739 -0.0990
  183SOPE  H17Y21009   2.231   4.536   8.245 -1.1060  0.1769 -1.3075
  183SOPE  C31821010   2.091   4.389   8.321  0.0032 -0.0168  0.0507
  183SOPE  H18X21011   2.028   4.315   8.269 -2.6473  2.7764 -1.0128
  183SOPE  H18Y21012   2.020   4.470   8.348 -0.6323  0.1872 -2.0642
  183SOPE  H18Z21013   2.135   4.335   8.408 -0.8037 -0.4798  0.1751
  184SOPE     N21014   1.637   3.131   6.375 -0.5625  0.2943  0.5283
  184SOPE   HN121015   1.581   3.043   6.365 -0.1831  0.2338 -1.4422
  184SOPE   HN221016   1.643   3.164   6.276 -1.6340 -2.9608 -0.7686
  184SOPE   HN321017   1.734   3.108   6.403 -0.7604 -0.1597  0.8580
  184SOPE   C1221018   1.578   3.251   6.444  0.4935  0.2028 -0.7944
  184SOPE  H12A21019   1.525   3.210   6.532  0.9075  0.5636 -0.3707
  184SOPE  H12B21020   1.500   3.298   6.380  0.9910  1.6798 -0.3724
  184SOPE   C1121021   1.688   3.351   6.485  0.1241 -0.4384 -0.0819
  184SOPE  H11A21022   1.757   3.298   6.555 -1.5144  0.8600  2.6840
  184SOPE  H11B21023   1.648   3.440   6.537  1.8257  0.7708 -0.7681
  184SOPE     P21024   1.706   3.512   6.275  0.1671 -0.0447 -0.4614
  184SOPE   O1321025   1.596   3.452   6.197 -0.2790 -0.4915  0.0631
  184SOPE   O1421026   1.819   3.563   6.197 -0.0100  0.5341  0.3080
  184SOPE   O1221027   1.763   3.396   6.373  0.3331  0.2705  0.6151
  184SOPE   O1121028   1.654   3.633   6.361  0.0514  0.1896 -0.2018
  184SOPE    C121029   1.735   3.726   6.424  0.1638 -0.8839  0.2891
  184SOPE    HA21030   1.716   3.829   6.386 -2.3707 -0.9184  1.2606
  184SOPE    HB21031   1.843   3.700   6.416  0.5121  0.9442 -2.0966
  184SOPE    C221032   1.702   3.730   6.580 -0.1835 -0.1207 -0.0933
  184SOPE    HS21033   1.750   3.640   6.623  0.6758  0.9685  1.3164
  184SOPE   O2121034   1.558   3.737   6.597 -0.1693  0.0396  0.0755
  184SOPE   C2121035   1.510   3.667   6.700  0.1102 -0.1899 -0.5178
  184SOPE   O2221036   1.563   3.576   6.757 -0.3046 -0.2424 -0.2829
  184SOPE   C2221037   1.364   3.710   6.728  0.1100  0.1421  0.5989
  184SOPE   H2R21038   1.309   3.615   6.747 -1.0685  1.0368  1.8058
  184SOPE   H2S21039   1.334   3.772   6.641  0.3181  0.4658  0.7532
  184SOPE    C321040   1.790   3.841   6.662  1.2001  0.4322  0.9248
  184SOPE    HX21041   1.750   3.935   6.620  0.0892 -0.5836 -0.4140
  184SOPE    HY21042   1.892   3.834   6.620  0.1253 -1.5346 -1.6783
  184SOPE   O3121043   1.762   3.841   6.803 -0.0184 -1.1253 -0.2545
  184SOPE   C3121044   1.830   3.763   6.880  0.0327  0.0677  0.2098
  184SOPE   O3221045   1.926   3.692   6.844 -0.2117 -0.2983  0.6388
  184SOPE   C3221046   1.784   3.774   7.028  0.5436  0.3042 -0.3268
  184SOPE   H2X21047   1.691   3.714   7.035 -0.6461  2.2322  1.6780
  184SOPE   H2Y21048   1.758   3.877   7.062  0.4139  0.2621 -0.2991
  184SOPE   C2321049   1.351   3.793   6.859 -0.1409  0.5988 -0.1915
  184SOPE   H3R21050   1.264   3.863   6.866 -0.4158  0.4552 -1.8109
  184SOPE   H3S21051   1.440   3.859   6.859 -0.2750  0.8010  0.8342
  184SOPE   C2421052   1.368   3.707   6.988  0.7483 -0.1634 -0.7136
  184SOPE   H4R21053   1.280   3.646   7.015  1.0911 -1.2820 -1.9644
  184SOPE   H4S21054   1.449   3.631   6.976  0.2270 -0.5548 -1.9550
  184SOPE   C2521055   1.387   3.796   7.109  0.0381  0.1874  0.1917
  184SOPE   H5R21056   1.462   3.878   7.104  1.3923 -0.8760  1.7425
  184SOPE   H5S21057   1.290   3.845   7.133 -0.3918 -0.8450  0.5945
  184SOPE   C2621058   1.416   3.711   7.234  1.1260 -0.0939  0.6079
  184SOPE   H6R21059   1.337   3.637   7.255  1.1373 -0.9887 -2.0831
  184SOPE   H6S21060   1.515   3.667   7.210  0.9074  1.1296 -3.2106
  184SOPE   C2721061   1.415   3.789   7.369  0.5678 -0.5041  0.3006
  184SOPE   H7R21062   1.454   3.891   7.347  0.1427  0.0651  2.0329
  184SOPE   H7S21063   1.311   3.814   7.397  1.5211  1.3943  2.4435
  184SOPE   C2821064   1.493   3.726   7.488  0.1991  0.3390  0.2129
  184SOPE   H8R21065   1.589   3.695   7.441 -0.2609 -1.2328  0.2563
  184SOPE   H8S21066   1.523   3.799   7.566 -0.8627  1.9115 -0.7826
  184SOPE   C2921067   1.429   3.596   7.538 -0.7798  0.5611 -0.2469
  184SOPE   H9121068   1.437   3.514   7.465 -1.6616  0.4253 -0.2052
  184SOPE  C21021069   1.357   3.583   7.653  0.9817  0.4076  0.8057
  184SOPE  H10121070   1.319   3.483   7.679  1.8889 -0.6916 -1.8124
  184SOPE  C21121071   1.320   3.699   7.741  0.9146 -0.3791  0.1264
  184SOPE  H11R21072   1.233   3.764   7.719  1.1683  0.0123  0.2554
  184SOPE  H11S21073   1.409   3.760   7.768  1.0231 -1.2488  1.8981
  184SOPE  C21221074   1.300   3.634   7.880  0.6053  0.2488 -0.2891
  184SOPE  H12R21075   1.384   3.564   7.902 -0.9765 -2.5048 -2.2515
  184SOPE  H12S21076   1.206   3.579   7.902  1.3752  0.0542  2.8882
  184SOPE  C21321077   1.305   3.745   7.984  1.0063 -0.1057 -0.6001
  184SOPE  H13R21078   1.218   3.813   7.973  0.8724 -0.2276 -0.3092
  184SOPE  H13S21079   1.392   3.810   7.960  0.5510  0.2511 -1.2997
  184SOPE  C21421080   1.312   3.705   8.131  0.0552 -0.1734 -0.2616
  184SOPE  H14R21081   1.398   3.635   8.138 -1.3419 -1.9951 -0.4666
  184SOPE  H14S21082   1.220   3.645   8.151 -0.1345  0.4827  0.9522
  184SOPE  C21521083   1.342   3.830   8.225  0.3545  0.4138 -0.5915
  184SOPE  H15R21084   1.316   3.804   8.330  1.6634 -0.1585 -0.3841
  184SOPE  H15S21085   1.265   3.899   8.185 -1.2727 -2.1536 -2.2030
  184SOPE  C21621086   1.484   3.886   8.229 -0.5188  0.4335 -0.1864
  184SOPE  H16R21087   1.523   3.920   8.131  1.0374 -3.5101 -1.1268
  184SOPE  H16S21088   1.552   3.807   8.269 -0.0404  0.4735 -0.8984
  184SOPE  C21721089   1.514   4.003   8.323 -0.0588  0.0626 -0.1234
  184SOPE  H17R21090   1.455   3.995   8.416  1.5093 -0.9912  0.8217
  184SOPE  H17S21091   1.478   4.097   8.274  1.4736  0.3892 -0.6864
  184SOPE  C21821092   1.660   4.017   8.366  0.0797 -0.1882  0.0601
  184SOPE  H18R21093   1.726   3.984   8.283 -2.2624 -2.4408 -1.0498
  184SOPE  H18S21094   1.682   3.941   8.443  2.8377  1.8145  1.4056
  184SOPE  H18T21095   1.687   4.113   8.414 -2.2422  0.1816  0.7708
  184SOPE   C3321096   1.900   3.730   7.122  0.6992 -0.1221  0.0995
  184SOPE   H3X21097   1.994   3.788   7.107 -0.1227  0.5941 -3.0186
  184SOPE   H3Y21098   1.933   3.626   7.102  0.0265 -0.1914 -0.6957
  184SOPE   C3421099   1.855   3.751   7.264 -0.2587  0.0272 -0.3873
  184SOPE   H4X21100   1.758   3.698   7.281  0.3742 -1.2910 -0.7033
  184SOPE   H4Y21101   1.830   3.857   7.287 -0.4531 -0.3017  1.0832
  184SOPE   C3521102   1.952   3.705   7.376  0.4598  0.2460  0.1910
  184SOPE   H5X21103   2.029   3.785   7.385  1.5368 -0.8672  1.1273
  184SOPE   H5Y21104   1.999   3.613   7.336  2.4072  0.9015  0.8565
  184SOPE   C3621105   1.886   3.679   7.511 -0.3360  0.0589  0.7323
  184SOPE   H6X21106   1.829   3.584   7.517  2.1229 -1.5278  0.0502
  184SOPE   H6Y21107   1.810   3.752   7.547 -1.1863 -1.2264  1.6560
  184SOPE   C3721108   1.996   3.670   7.622 -0.1183  0.4815  0.4716
  184SOPE   H7X21109   2.055   3.764   7.627 -1.4888  1.2937  2.4240
  184SOPE   H7Y21110   2.063   3.585   7.601  0.4112  1.0157 -0.0594
  184SOPE   C3821111   1.955   3.624   7.758  0.3943  0.1611  0.2263
  184SOPE   H8X21112   2.051   3.621   7.813  1.7217 -1.8434 -2.0059
  184SOPE   H8Y21113   1.909   3.524   7.742 -0.2800  0.4902  0.1028
  184SOPE   C3921114   1.849   3.710   7.839  1.1810  0.2917 -0.1348
  184SOPE   H9X21115   1.761   3.721   7.772  0.8801  0.7653  0.3372
  184SOPE   H9Y21116   1.893   3.811   7.853  0.1255  0.4898  2.2704
  184SOPE  C31021117   1.808   3.655   7.975 -0.0589  0.2574  0.0599
  184SOPE  H10X21118   1.788   3.547   7.962  0.5437  0.1262  0.2014
  184SOPE  H10Y21119   1.716   3.704   8.013 -1.4017 -0.6578 -1.8581
  184SOPE  C31121120   1.921   3.669   8.085  0.1067 -0.1278  0.1580
  184SOPE  H11X21121   1.935   3.778   8.101 -1.5143  0.1325 -0.0967
  184SOPE  H11Y21122   2.010   3.619   8.041  0.0439 -0.2123  0.1289
  184SOPE  C31221123   1.875   3.612   8.224  0.1743  0.0918  0.1815
  184SOPE  H12X21124   1.854   3.503   8.216  1.4094 -0.1150 -0.4483
  184SOPE  H12Y21125   1.778   3.661   8.242 -0.3312 -0.7760 -0.0909
  184SOPE  C31321126   1.967   3.649   8.337 -0.3784 -0.0985  0.1174
  184SOPE  H13X21127   2.041   3.727   8.310  2.0116 -2.2779 -0.0277
  184SOPE  H13Y21128   2.033   3.559   8.341  0.3783  0.2120 -2.9236
  184SOPE  C31421129   1.897   3.669   8.470  0.1981 -0.6468  0.5087
  184SOPE  H14X21130   1.824   3.585   8.474 -1.4635  0.7795  1.0840
  184SOPE  H14Y21131   1.830   3.757   8.457  1.9028  0.8226  1.2533
  184SOPE  C31521132   1.984   3.695   8.597 -0.7674  0.6860  0.1328
  184SOPE  H15X21133   2.059   3.613   8.600 -0.4726  0.9175 -0.5666
  184SOPE  H15Y21134   1.920   3.692   8.687  1.2350  0.1049  1.6178
  184SOPE  C31621135   2.060   3.824   8.580 -0.1571 -0.5223  0.2386
  184SOPE  H16X21136   1.988   3.908   8.568  1.5790  0.9162 -0.5949
  184SOPE  H16Y21137   2.118   3.843   8.488 -0.4547  1.9792  0.4739
  184SOPE  C31721138   2.152   3.857   8.702 -0.4938 -0.0112  0.2100
  184SOPE  H17X21139   2.245   3.797   8.702 -0.9615 -1.0830  4.4923
  184SOPE  H17Y21140   2.100   3.838   8.799 -1.4647  0.5850 -0.1754
  184SOPE  C31821141   2.196   4.008   8.702  0.0118  0.0491  0.3104
  184SOPE  H18X21142   2.277   4.014   8.627 -0.6149 -1.3588 -0.5307
  184SOPE  H18Y21143   2.224   4.045   8.803 -0.2717 -2.2879  1.3250
  184SOPE  H18Z21144   2.124   4.081   8.660  0.9326  0.7020 -0.1471
  185SAPI   C1221145   3.476   1.255  11.265 -0.3874  0.2220 -0.1701
  185SAPI    H221146   3.574   1.277  11.217 -1.0664 -0.4957 -1.9691
  185SAPI    O221147   3.479   1.125  11.327 -0.0207 -0.4147 -0.3928
  185SAPI   HO221148   3.515   1.128  11.415  3.6664 -0.2563 -1.7461
  185SAPI   C1321149   3.445   1.359  11.367  0.3362  0.0263 -0.3723
  185SAPI    H321150   3.432   1.452  11.307 -0.4177  0.3354  0.2407
  185SAPI    O321151   3.554   1.379  11.461 -0.5523 -0.2365 -0.3304
  185SAPI   HO321152   3.580   1.308  11.520 -2.0307  0.9170  1.8706
  185SAPI   C1421153   3.308   1.344  11.442  0.0498  0.5557 -0.4290
  185SAPI    H421154   3.316   1.241  11.482 -1.4344  0.6344  0.1402
  185SAPI    O421155   3.283   1.430  11.555  0.0017  0.3273  0.4512
  185SAPI   HO421156   3.307   1.375  11.630 -0.7871 -0.8390 -0.1394
  185SAPI   C1521157   3.197   1.351  11.334 -0.0610  0.8816  0.5986
  185SAPI    H521158   3.205   1.449  11.282 -1.9095  0.5170 -0.4741
  185SAPI    O521159   3.071   1.345  11.392 -0.6255 -0.3518 -0.7921
  185SAPI   HO521160   3.033   1.429  11.368 -0.7030  0.0483  0.6360
  185SAPI   C1621161   3.226   1.239  11.233 -0.1391  0.6391 -0.6633
  185SAPI    H621162   3.227   1.140  11.285  3.8359  0.9761  0.2665
  185SAPI    O621163   3.120   1.225  11.133  0.3063  0.0031 -0.1355
  185SAPI   HO621164   3.108   1.134  11.105 -1.6522  0.2969 -0.4027
  185SAPI   C1121165   3.366   1.250  11.164 -0.0438  0.4824 -0.5093
  185SAPI    H121166   3.364   1.353  11.121 -1.5824  0.1659 -1.2261
  185SAPI     P21167   3.456   1.166  10.933  0.3305  0.7643  0.4460
  185SAPI   O1321168   3.477   1.030  10.873  0.4100  0.2401  0.7257
  185SAPI   O1421169   3.572   1.255  10.952 -0.7229  0.0538 -0.2068
  185SAPI   O1221170   3.377   1.137  11.072 -0.3112 -0.1353  0.6848
  185SAPI   O1121171   3.359   1.242  10.844 -0.6887  0.0990 -0.4505
  185SAPI    C121172   3.250   1.188  10.777  1.0053  0.4560  0.2128
  185SAPI    HA21173   3.185   1.121  10.837  1.5838 -0.5031 -0.2254
  185SAPI    HB21174   3.180   1.274  10.763 -0.2684 -0.0484  2.8653
  185SAPI    C221175   3.279   1.137  10.635 -0.0441  0.2354 -0.4868
  185SAPI    HS21176   3.313   1.032  10.642 -0.8346 -0.1952 -2.4378
  185SAPI   O2121177   3.371   1.228  10.575 -0.3695 -0.4269 -0.0715
  185SAPI   C2121178   3.458   1.179  10.484  0.3548  0.3883 -0.3850
  185SAPI   O2221179   3.467   1.062  10.462 -0.1402  0.3470  0.4082
  185SAPI   C2221180   3.506   1.298  10.399 -0.0045  0.3891 -0.0407
  185SAPI   H2R21181   3.416   1.360  10.378 -0.2353 -0.1272 -0.6309
  185SAPI   H2S21182   3.584   1.358  10.451 -2.3152  1.8336  1.9751
  185SAPI    C321183   3.156   1.118  10.543  0.0474 -0.5984  0.0353
  185SAPI    HX21184   3.102   1.214  10.528  1.1261 -0.3012 -2.5340
  185SAPI    HY21185   3.071   1.055  10.576  0.6254 -1.4841 -0.1341
  185SAPI   O3121186   3.201   1.084  10.410  0.0307  0.4705  0.0837
  185SAPI   C3121187   3.197   0.953  10.373  0.2000 -0.1089 -0.4813
  185SAPI   O3221188   3.168   0.861  10.451 -0.8169  0.3654 -0.5745
  185SAPI   C3221189   3.226   0.948  10.222  0.0823 -0.3562 -0.0960
  185SAPI   H2X21190   3.289   1.034  10.191 -0.1980  0.5927  1.7755
  185SAPI   H2Y21191   3.125   0.946  10.177 -0.3896 -0.3825  0.9432
  185SAPI   C2321192   3.559   1.254  10.264  1.1427 -0.4889 -0.8813
  185SAPI   H3R21193   3.549   1.342  10.198 -2.6495  0.0828  0.2145
  185SAPI   H3S21194   3.484   1.187  10.217  0.5999 -0.8947  0.4967
  185SAPI   C2421195   3.694   1.188  10.273 -0.2978 -0.4651 -0.1217
  185SAPI   H4R21196   3.714   1.138  10.176 -0.3170  0.2954 -0.5260
  185SAPI   H4S21197   3.697   1.109  10.351 -0.9777 -0.8302 -0.4562
  185SAPI   C2521198   3.801   1.292  10.302 -0.6659  0.4592 -0.0580
  185SAPI   H5R21199   3.799   1.317  10.409 -2.1975 -1.2515  0.3655
  185SAPI   C2621200   3.893   1.335  10.211 -0.6667 -0.0180 -0.5220
  185SAPI   H6R21201   3.975   1.392  10.257 -0.1289 -1.3700  0.2310
  185SAPI   C2721202   3.912   1.305  10.066  0.3235  0.0924  0.1038
  185SAPI   H7R21203   3.897   1.196  10.055 -3.0723  0.4855 -0.4054
  185SAPI   H7S21204   4.017   1.334  10.044  0.8761 -1.4513  0.5558
  185SAPI   C2821205   3.815   1.370   9.975 -0.2708 -0.3822 -0.2332
  185SAPI   H8R21206   3.713   1.388  10.014 -0.0656  0.6783 -0.1519
  185SAPI   C2921207   3.845   1.430   9.858  0.9037 -0.5281 -0.7932
  185SAPI   H9R21208   3.771   1.488   9.802 -0.6547 -1.5697  0.1149
  185SAPI  C21021209   3.977   1.435   9.802  0.0757 -0.3374 -0.2886
  185SAPI  H10R21210   3.974   1.424   9.691  2.3709 -1.1970 -0.3119
  185SAPI  H10S21211   4.046   1.360   9.846  0.3370  0.2545  0.3325
  185SAPI  C21121212   4.033   1.568   9.836  0.0151  0.6956 -0.3680
  185SAPI  H11R21213   4.049   1.584   9.944  1.5836 -0.0577 -0.4516
  185SAPI  C21221214   4.062   1.661   9.747  0.3475 -0.5613  0.5871
  185SAPI  H12R21215   4.107   1.752   9.791 -1.4753 -0.3722  2.2070
  185SAPI  C21321216   4.043   1.648   9.593 -0.4641 -0.5464 -1.0742
  185SAPI  H13R21217   3.936   1.656   9.561 -0.4725  3.3569 -0.6203
  185SAPI  H13S21218   4.076   1.547   9.561  1.9059  0.3861 -1.7376
  185SAPI  C21421219   4.122   1.744   9.510 -0.2820 -0.6296 -0.1518
  185SAPI  H14R21220   4.225   1.763   9.546 -1.1559  0.5080  1.9228
  185SAPI  C21521221   4.075   1.821   9.412  0.2390  0.2683  0.3858
  185SAPI  H15R21222   4.141   1.890   9.357  1.5796 -1.4522 -0.2663
  185SAPI  C21621223   3.933   1.825   9.358  0.0275  0.1851  0.5269
  185SAPI  H16R21224   3.880   1.903   9.416  0.3188 -0.9640  2.4082
  185SAPI  H16S21225   3.873   1.736   9.384  0.1566 -0.2020 -0.4646
  185SAPI  C21721226   3.915   1.863   9.210  0.1503 -0.3256 -0.1865
  185SAPI  H17R21227   3.961   1.790   9.141 -0.3257  1.5056 -2.5884
  185SAPI  H17S21228   3.962   1.962   9.187 -2.7615  1.1470 -0.2577
  185SAPI  C21821229   3.760   1.882   9.179 -0.5073 -0.6184  0.6733
  185SAPI  H18R21230   3.712   1.939   9.262 -3.2619  0.4301 -1.4630
  185SAPI  H18S21231   3.729   1.776   9.181 -0.7354 -0.6064 -0.9678
  185SAPI  C21921232   3.744   1.941   9.038 -0.1913  0.0846 -0.2527
  185SAPI  H19R21233   3.640   1.911   9.013 -0.0770 -0.0173 -0.6236
  185SAPI  H19S21234   3.819   1.892   8.972  0.5524 -1.2356  1.4869
  185SAPI  C22021235   3.763   2.094   9.041 -0.1019  0.3076  0.4479
  185SAPI  H20R21236   3.848   2.135   9.100  1.4542 -0.6302 -1.0602
  185SAPI  H20S21237   3.680   2.131   9.106 -0.1372 -3.2202  2.6478
  185SAPI  H20T21238   3.767   2.120   8.933 -1.4020 -2.3445 -0.3292
  185SAPI   C3321239   3.283   0.813  10.179  0.0407  0.2406  0.8259
  185SAPI   H3X21240   3.204   0.739  10.201  0.3465 -0.5954 -0.7651
  185SAPI   H3Y21241   3.371   0.780  10.239  0.3119  0.2379  0.4270
  185SAPI   C3421242   3.329   0.793  10.032 -0.4184 -0.5957  0.4271
  185SAPI   H4X21243   3.243   0.802   9.963  0.9894 -0.0595 -1.3241
  185SAPI   H4Y21244   3.365   0.688  10.024 -1.4845 -0.9475  0.1358
  185SAPI   C3521245   3.440   0.899  10.001  0.0764 -0.0721 -0.8568
  185SAPI   H5X21246   3.501   0.911  10.093 -1.9443  1.5303  0.3673
  185SAPI   H5Y21247   3.389   0.998   9.989  0.3277  0.0801 -0.6869
  185SAPI   C3621248   3.534   0.868   9.878 -0.2427 -0.0745 -0.1348
  185SAPI   H6X21249   3.598   0.779   9.894  1.3756  0.7925 -1.4421
  185SAPI   H6Y21250   3.604   0.955   9.876 -0.5900  0.1932 -0.9916
  185SAPI   C3721251   3.448   0.853   9.753  0.4702 -0.2951  0.3641
  185SAPI   H7X21252   3.362   0.923   9.747 -1.2435 -2.2520  0.9856
  185SAPI   H7Y21253   3.407   0.750   9.743 -2.4413  1.0126 -3.3197
  185SAPI   C3821254   3.537   0.876   9.632  0.1230  0.1238 -0.1437
  185SAPI   H8X21255   3.622   0.804   9.644 -0.1217 -0.6242 -2.4974
  185SAPI   H8Y21256   3.594   0.970   9.651  1.1110 -0.5662  0.4597
  185SAPI   C3921257   3.463   0.886   9.503  0.0717  0.3589  0.1813
  185SAPI   H9X21258   3.399   0.977   9.506  0.6743  0.9322 -2.1516
  185SAPI   H9Y21259   3.387   0.805   9.508  0.7057 -0.1836  1.4213
  185SAPI  C31021260   3.551   0.876   9.373  0.2613 -0.7866  1.0101
  185SAPI  H10X21261   3.500   0.912   9.281  1.6253 -0.5742  0.3082
  185SAPI  H10Y21262   3.584   0.772   9.355 -1.3269 -1.3965  1.4270
  185SAPI  C31121263   3.678   0.964   9.372  0.7210 -0.6889 -0.6818
  185SAPI  H11X21264   3.721   0.944   9.473 -1.7649 -0.3926  0.5142
  185SAPI  H11Y21265   3.654   1.072   9.362  0.4641 -0.7647 -0.8976
  185SAPI  C31221266   3.775   0.936   9.260  0.5723  0.5853 -0.9973
  185SAPI  H12X21267   3.719   0.924   9.165 -1.4718  1.1942  0.0883
  185SAPI  H12Y21268   3.826   0.839   9.280  0.7692  0.2949 -2.7907
  185SAPI  C31321269   3.882   1.046   9.239  0.1456 -0.0241  0.6382
  185SAPI  H13X21270   3.945   1.050   9.331  0.3688  0.1060  0.4815
  185SAPI  H13Y21271   3.824   1.139   9.221  2.8538  1.6314 -0.0212
  185SAPI  C31421272   3.971   1.024   9.114 -0.0692 -0.1747  0.5793
  185SAPI  H14X21273   3.911   0.992   9.026  0.0053  0.1503  0.4095
  185SAPI  H14Y21274   4.047   0.943   9.116 -1.5300 -1.7365 -1.9446
  185SAPI  C31521275   4.052   1.150   9.068  0.3842 -0.5898  0.8196
  185SAPI  H15X21276   4.134   1.116   9.000  0.3273 -0.2185  0.5585
  185SAPI  H15Y21277   4.095   1.184   9.165  2.2434 -0.9876  0.1815
  185SAPI  C31621278   3.969   1.255   9.001  0.0692  0.1494  0.3628
  185SAPI  H16X21279   3.911   1.310   9.078 -0.3369  0.1213  0.0798
  185SAPI  H16Y21280   3.894   1.215   8.929  0.4361 -0.0012  0.0626
  185SAPI  C31721281   4.054   1.351   8.926  0.3533 -0.3158  0.3405
  185SAPI  H17X21282   4.096   1.298   8.838  2.0074  1.0124  0.2939
  185SAPI  H17Y21283   4.136   1.379   8.996 -1.3676 -0.3563  2.4780
  185SAPI  C31821284   3.984   1.475   8.882  0.1093 -0.8003  0.0684
  185SAPI  H18X21285   3.913   1.450   8.800 -0.3729  1.5089 -0.2804
  185SAPI  H18Y21286   4.053   1.553   8.842  0.4237 -1.3195 -0.4279
  185SAPI  H18Z21287   3.931   1.513   8.972 -1.7713 -2.4494 -0.2540
  186SAPI   C1221288   3.209   5.504  11.037  0.2492  0.0232 -0.3099
  186SAPI    H221289   3.112   5.553  11.013 -0.5954 -2.3467 -2.0858
  186SAPI    O221290   3.236   5.533  11.173  0.3876  0.2824 -0.2853
  186SAPI   HO221291   3.228   5.628  11.188 -0.9042  0.0062  1.0678
  186SAPI   C1321292   3.196   5.355  11.010 -1.0657 -0.5899  0.7470
  186SAPI    H321293   3.189   5.334  10.901 -0.1757 -1.5291  0.8511
  186SAPI    O321294   3.090   5.294  11.080 -0.0275  0.2434  0.0178
  186SAPI   HO321295   3.109   5.201  11.087  0.8702  0.2786 -1.5319
  186SAPI   C1421296   3.329   5.289  11.051  0.2372  0.2438 -0.5773
  186SAPI    H421297   3.351   5.311  11.158 -1.7367  1.1936 -0.3117
  186SAPI    O421298   3.329   5.142  11.040  0.7506 -0.3325  0.3797
  186SAPI   HO421299   3.418   5.106  11.039  0.2297 -1.6938 -0.2625
  186SAPI   C1521300   3.434   5.345  10.961  0.9027  0.3095  0.5264
  186SAPI    H521301   3.405   5.335  10.854  2.3152  2.0191 -0.0675
  186SAPI    O521302   3.558   5.279  10.970 -0.5845  0.2856 -0.5413
  186SAPI   HO521303   3.592   5.276  10.880  3.7483  1.2855  0.8194
  186SAPI   C1621304   3.438   5.501  10.966  0.3875  0.5336 -0.3946
  186SAPI    H621305   3.477   5.528  11.067 -1.0461 -0.7543  0.5501
  186SAPI    O621306   3.541   5.545  10.876  0.7825  0.8990 -0.1569
  186SAPI   HO621307   3.601   5.593  10.933  0.2275  0.9748  0.3729
  186SAPI   C1121308   3.312   5.561  10.938  0.0672  0.2089  0.2433
  186SAPI    H121309   3.282   5.539  10.834 -1.3336 -0.0824  0.6880
  186SAPI     P21310   3.244   5.801  10.851  0.0275  0.3316  0.0029
  186SAPI   O1321311   3.226   5.935  10.910 -0.2725 -0.7422 -0.2233
  186SAPI   O1421312   3.117   5.738  10.805  0.0915 -0.3353 -0.4191
  186SAPI   O1221313   3.326   5.706  10.957 -0.5042  0.3204 -0.0012
  186SAPI   O1121314   3.348   5.809  10.730  0.6095 -0.0464 -0.1176
  186SAPI    C121315   3.478   5.865  10.746 -0.6525 -0.2782  0.6728
  186SAPI    HA21316   3.488   5.943  10.825  3.0108 -1.3160  1.4195
  186SAPI    HB21317   3.554   5.785  10.745 -1.1829 -0.7841  0.5263
  186SAPI    C221318   3.511   5.950  10.621 -0.6978 -0.1856  0.1004
  186SAPI    HS21319   3.431   6.027  10.608 -2.4833 -1.8153  1.0097
  186SAPI   O2121320   3.500   5.859  10.511 -0.6565  0.5846 -0.9549
  186SAPI   C2121321   3.468   5.912  10.401 -0.4268 -0.2293 -0.0452
  186SAPI   O2221322   3.464   6.033  10.374  0.6717  0.2471  0.0883
  186SAPI   C2221323   3.436   5.802  10.304  0.3029  0.4876  0.3093
  186SAPI   H2R21324   3.490   5.715  10.345 -1.6524 -1.3856 -0.8879
  186SAPI   H2S21325   3.330   5.769  10.307  0.4588 -0.1107 -0.4080
  186SAPI    C321326   3.658   6.019  10.637 -0.2435 -0.5739 -0.7074
  186SAPI    HX21327   3.727   5.952  10.692  2.4689  2.0241 -0.6882
  186SAPI    HY21328   3.642   6.102  10.709  1.0944 -3.1992  2.9336
  186SAPI   O3121329   3.724   6.068  10.519 -0.0144  0.1001  0.1500
  186SAPI   C3121330   3.828   6.004  10.468  0.3498  0.7613  0.2702
  186SAPI   O3221331   3.871   5.895  10.505  0.3249 -0.5265  0.2195
  186SAPI   C3221332   3.884   6.079  10.344 -0.2974  0.1871  0.4686
  186SAPI   H2X21333   3.991   6.050  10.335 -0.5558 -0.0803 -2.6327
  186SAPI   H2Y21334   3.878   6.188  10.365 -1.3178  0.1525  0.3761
  186SAPI   C2321335   3.473   5.828  10.153 -0.3228  0.2055 -0.1741
  186SAPI   H3R21336   3.581   5.830  10.131 -0.4279 -1.6350 -1.1253
  186SAPI   H3S21337   3.425   5.925  10.128  1.8879  1.2396 -0.5427
  186SAPI   C2421338   3.415   5.738  10.052  0.7043  0.0237 -0.0715
  186SAPI   H4R21339   3.459   5.769   9.955 -1.7732 -0.9466 -1.5974
  186SAPI   H4S21340   3.306   5.755  10.040 -0.2560 -3.8487  1.5981
  186SAPI   C2521341   3.448   5.596  10.089 -0.7782  0.6440  1.2800
  186SAPI   H5R21342   3.397   5.544  10.170  2.3563 -1.2087  2.2345
  186SAPI   C2621343   3.543   5.520  10.024  1.1570 -0.5499 -0.1869
  186SAPI   H6R21344   3.565   5.426  10.078 -0.0252  0.5283  2.3465
  186SAPI   C2721345   3.623   5.561   9.904  0.4143  0.5794 -0.3566
  186SAPI   H7R21346   3.561   5.619   9.831 -0.1636  2.1407  1.2863
  186SAPI   H7S21347   3.656   5.474   9.843 -0.9559 -0.0060 -0.3061
  186SAPI   C2821348   3.736   5.646   9.942  0.2450 -1.2062  0.7013
  186SAPI   H8R21349   3.768   5.658  10.046  3.1778  1.2193 -0.3356
  186SAPI   C2921350   3.803   5.723   9.856 -0.4257  0.3339 -0.2954
  186SAPI   H9R21351   3.888   5.774   9.904 -0.9329  1.3600 -0.4762
  186SAPI  C21021352   3.779   5.736   9.703 -0.4227 -0.7130  0.0041
  186SAPI  H10R21353   3.835   5.823   9.662 -0.5857 -0.3485  0.5285
  186SAPI  H10S21354   3.673   5.748   9.671 -0.4875  0.3423  0.5753
  186SAPI  C21121355   3.830   5.622   9.616  0.1991 -0.0538  0.4544
  186SAPI  H11R21356   3.894   5.554   9.674  2.3192  2.5229  1.3807
  186SAPI  C21221357   3.798   5.588   9.492 -0.3478  0.3005  0.4882
  186SAPI  H12R21358   3.852   5.506   9.443 -0.4386  1.0540 -0.9245
  186SAPI  C21321359   3.694   5.662   9.406  0.1614  0.3658  0.4400
  186SAPI  H13R21360   3.703   5.632   9.300  1.6439  1.5495  0.1997
  186SAPI  H13S21361   3.723   5.769   9.412 -2.5891  1.2918 -1.2661
  186SAPI  C21421362   3.548   5.663   9.454 -0.4007 -0.0227  0.4637
  186SAPI  H14R21363   3.526   5.661   9.561  0.0585  1.9733  0.6532
  186SAPI  C21521364   3.446   5.664   9.363  0.7070  0.0564  0.5181
  186SAPI  H15R21365   3.347   5.647   9.407 -0.6110  0.4458 -2.0834
  186SAPI  C21621366   3.460   5.669   9.207  0.4856 -0.0634  0.2986
  186SAPI  H16R21367   3.562   5.694   9.171 -0.2381  0.8382 -1.2393
  186SAPI  H16S21368   3.398   5.756   9.177  2.7108  1.4064 -0.2191
  186SAPI  C21721369   3.407   5.548   9.131  0.2314  0.6572 -0.0101
  186SAPI  H17R21370   3.301   5.540   9.163  0.4114  0.0535  0.4595
  186SAPI  H17S21371   3.460   5.460   9.174 -0.3914  1.7967  3.3910
  186SAPI  C21821372   3.441   5.532   8.973  0.5790 -0.7236  0.0878
  186SAPI  H18R21373   3.395   5.439   8.934  0.3638 -0.8002  0.5206
  186SAPI  H18S21374   3.551   5.538   8.962  0.5426  1.4822  0.4699
  186SAPI  C21921375   3.395   5.658   8.896  0.1600  0.6727  1.0176
  186SAPI  H19R21376   3.448   5.743   8.944  0.7191  0.3049  1.0550
  186SAPI  H19S21377   3.287   5.681   8.909  0.2759  0.9199  1.5514
  186SAPI  C22021378   3.434   5.640   8.744  0.3845  0.0012 -0.1253
  186SAPI  H20R21379   3.540   5.609   8.731 -0.5067 -1.9638 -4.3534
  186SAPI  H20S21380   3.416   5.731   8.684  0.1400 -1.5552 -2.5621
  186SAPI  H20T21381   3.377   5.559   8.694 -0.7004  1.2272 -0.9057
  186SAPI   C3321382   3.817   6.040  10.207 -0.1255  0.4816  0.6966
  186SAPI   H3X21383   3.713   6.010  10.232 -0.4735  0.7516 -0.3830
  186SAPI   H3Y21384   3.857   5.945  10.165 -2.3563 -0.4225  0.4688
  186SAPI   C3421385   3.805   6.160  10.109  0.3496 -0.8902 -0.2131
  186SAPI   H4X21386   3.901   6.216  10.100 -0.1337 -0.3080 -2.4070
  186SAPI   H4Y21387   3.729   6.237  10.137  0.2016 -1.3569  0.6966
  186SAPI   C3521388   3.772   6.118   9.962 -0.2517 -0.1911  0.0924
  186SAPI   H5X21389   3.859   6.056   9.931  2.1168  3.0324 -0.2532
  186SAPI   H5Y21390   3.772   6.204   9.891 -0.5034 -1.2489 -1.2146
  186SAPI   C3621391   3.634   6.051   9.951 -0.2160  0.8524  0.5141
  186SAPI   H6X21392   3.552   6.108   9.999  0.1130  0.5075  1.5050
  186SAPI   H6Y21393   3.630   5.949   9.996  0.6227 -0.0509 -1.3231
  186SAPI   C3721394   3.603   6.038   9.798 -0.3774  0.2125 -0.0860
  186SAPI   H7X21395   3.543   5.944   9.792  2.0393 -1.6197  2.0242
  186SAPI   H7Y21396   3.694   6.006   9.744  0.1880  0.8690  0.4617
  186SAPI   C3821397   3.528   6.154   9.739  0.2248 -0.1771  0.7746
  186SAPI   H8X21398   3.583   6.250   9.745 -0.0262 -0.0606  1.3756
  186SAPI   H8Y21399   3.434   6.168   9.798 -0.2439 -0.1890  0.0357
  186SAPI   C3921400   3.480   6.135   9.595  0.9034  0.1939  0.2821
  186SAPI   H9X21401   3.410   6.216   9.567  1.1326  0.4697  0.5063
  186SAPI   H9Y21402   3.424   6.039   9.587 -0.8992  1.1836  0.4920
  186SAPI  C31021403   3.582   6.132   9.491  0.0772 -0.2149 -0.4878
  186SAPI  H10X21404   3.668   6.070   9.527 -0.4111 -0.4724  0.2717
  186SAPI  H10Y21405   3.629   6.231   9.476 -2.0066  0.6393 -1.8627
  186SAPI  C31121406   3.543   6.084   9.357  0.0120  0.2865 -0.7547
  186SAPI  H11X21407   3.465   6.144   9.305 -0.2481  0.0030 -0.6929
  186SAPI  H11Y21408   3.500   5.982   9.366  1.0027  0.0086  5.2292
  186SAPI  C31221409   3.670   6.070   9.262 -0.3505 -0.0149  0.3759
  186SAPI  H12X21410   3.750   5.999   9.290  0.0017 -0.1658 -0.9693
  186SAPI  H12Y21411   3.722   6.169   9.263 -1.0017  0.3460  2.1398
  186SAPI  C31321412   3.627   6.045   9.117  0.4077  0.0788  0.1191
  186SAPI  H13X21413   3.555   6.126   9.091  1.0226 -0.0253 -2.0896
  186SAPI  H13Y21414   3.579   5.945   9.114  3.1773 -1.2999 -1.0249
  186SAPI  C31421415   3.737   6.061   9.013 -0.1498 -0.8180  0.3248
  186SAPI  H14X21416   3.779   6.163   9.027 -0.6032 -0.8057  1.8360
  186SAPI  H14Y21417   3.694   6.068   8.911  0.2489  0.2694  0.2219
  186SAPI  C31521418   3.855   5.960   9.024  0.0168 -0.2538 -0.6698
  186SAPI  H15X21419   3.877   5.950   9.132 -0.8229  1.1995 -0.3374
  186SAPI  H15Y21420   3.941   6.007   8.971 -1.0199  0.2755 -1.9393
  186SAPI  C31621421   3.839   5.823   8.947  0.0891 -0.1007  0.3498
  186SAPI  H16X21422   3.837   5.836   8.836  0.2529 -2.2673  0.0524
  186SAPI  H16Y21423   3.740   5.789   8.984  0.1174  1.7210  2.2996
  186SAPI  C31721424   3.949   5.718   8.974 -0.3759 -0.4390  0.0117
  186SAPI  H17X21425   3.954   5.714   9.085 -0.2344  0.3125  0.0379
  186SAPI  H17Y21426   4.044   5.759   8.934 -0.3520 -0.5619 -0.0575
  186SAPI  C31821427   3.918   5.583   8.908 -0.1748  1.3283  0.0195
  186SAPI  H18X21428   3.898   5.591   8.799  0.8657 -0.1646 -0.3180
  186SAPI  H18Y21429   3.828   5.538   8.956 -1.7973  2.5521 -1.7259
  186SAPI  H18Z21430   4.009   5.520   8.920 -0.5718  0.1123 -2.6913
  187SAPI   C1221431   6.632   0.768   6.116 -0.3230  0.5232  0.0704
  187SAPI    H221432   6.634   0.670   6.166  1.6119  0.8959  0.7913
  187SAPI    O221433   6.726   0.853   6.181 -0.3474  0.0124  0.3433
  187SAPI   HO221434   6.712   0.846   6.276  2.6000 -1.3910  0.7993
  187SAPI   C1321435   6.666   0.751   5.968  0.1540  0.2641  0.1944
  187SAPI    H321436   6.583   0.696   5.917 -1.7769  1.2625  2.0657
  187SAPI    O321437   6.787   0.670   5.960  0.1621 -0.2888  0.5434
  187SAPI   HO321438   6.868   0.722   5.967  0.3876 -0.7889  1.7455
  187SAPI   C1421439   6.665   0.882   5.895 -0.5253 -0.2535  0.0799
  187SAPI    H421440   6.745   0.944   5.940  2.2895 -2.5093 -1.4577
  187SAPI    O421441   6.702   0.870   5.754 -0.6188  0.1464 -0.4799
  187SAPI   HO421442   6.771   0.937   5.749 -0.5536  0.3699  2.2341
  187SAPI   C1521443   6.534   0.955   5.917 -0.7835 -0.7603  0.3549
  187SAPI    H521444   6.458   0.889   5.870 -0.8790 -1.9812  2.1320
  187SAPI    O521445   6.521   1.084   5.843  0.2541 -0.3754 -0.0181
  187SAPI   HO521446   6.544   1.161   5.895  0.6241 -1.5822  1.7293
  187SAPI   C1621447   6.493   0.964   6.067  0.0751 -0.1158  0.9199
  187SAPI    H621448   6.563   1.031   6.122 -0.6048  1.1821  0.2366
  187SAPI    O621449   6.361   1.022   6.081 -0.6575  0.4371  0.2187
  187SAPI   HO621450   6.348   1.032   6.175 -0.0556 -0.0160  0.3554
  187SAPI   C1121451   6.490   0.825   6.123 -0.1308  0.0012  0.0425
  187SAPI    H121452   6.412   0.760   6.078 -0.8733  0.4595  0.6356
  187SAPI     P21453   6.373   0.719   6.344 -0.3707  0.1564  0.3930
  187SAPI   O1321454   6.297   0.621   6.259  0.4711 -0.4163  0.1895
  187SAPI   O1421455   6.291   0.789   6.445  0.5768  0.1026  0.5968
  187SAPI   O1221456   6.447   0.837   6.256 -0.5464  1.2708 -0.5655
  187SAPI   O1121457   6.496   0.649   6.418 -0.2519 -0.2430 -0.1237
  187SAPI    C121458   6.520   0.502   6.424  0.4531 -0.7426 -0.2035
  187SAPI    HA21459   6.418   0.460   6.432 -0.7318  1.6982 -1.4915
  187SAPI    HB21460   6.574   0.464   6.334  0.0117  1.1376 -1.3234
  187SAPI    C221461   6.590   0.460   6.556 -0.4914  0.3321 -0.1510
  187SAPI    HS21462   6.566   0.352   6.566  0.8575 -0.4107 -3.5092
  187SAPI   O2121463   6.545   0.536   6.674 -0.0059 -0.5234 -0.2334
  187SAPI   C2121464   6.439   0.488   6.738  0.1750 -1.1239 -0.0672
  187SAPI   O2221465   6.376   0.392   6.700 -0.3850 -0.5624 -0.5065
  187SAPI   C2221466   6.423   0.578   6.867  0.2888 -1.1252  0.5160
  187SAPI   H2R21467   6.521   0.606   6.910 -0.3631  0.7191  0.8717
  187SAPI   H2S21468   6.387   0.675   6.827 -2.0359 -1.6736  1.1423
  187SAPI    C321469   6.752   0.468   6.544  0.3897 -0.2593  0.2649
  187SAPI    HX21470   6.770   0.572   6.510 -3.3496  0.1891 -0.7812
  187SAPI    HY21471   6.774   0.401   6.459  1.1882  0.7408 -0.3417
  187SAPI   O3121472   6.824   0.430   6.662  0.0719 -0.4936 -0.2167
  187SAPI   C3121473   6.961   0.459   6.646 -0.3769 -0.8718 -0.0674
  187SAPI   O3221474   7.009   0.518   6.548  0.5339 -0.2122  0.2463
  187SAPI   C3221475   7.040   0.419   6.777 -0.0289  0.3077 -0.0768
  187SAPI   H2X21476   7.075   0.314   6.783  0.4964  0.4859 -0.0367
  187SAPI   H2Y21477   6.957   0.429   6.850 -1.2981 -0.6160 -1.3307
  187SAPI   C2321478   6.337   0.524   6.983  0.2659  0.5158  0.0908
  187SAPI   H3R21479   6.242   0.484   6.943  0.5101  0.9954 -1.0074
  187SAPI   H3S21480   6.309   0.613   7.044 -3.9091 -0.3258 -0.2807
  187SAPI   C2421481   6.416   0.428   7.068  0.7501  0.1605  0.5673
  187SAPI   H4R21482   6.397   0.425   7.177  0.6410  0.2255  0.5511
  187SAPI   H4S21483   6.514   0.480   7.058 -1.3546  4.5539  0.0181
  187SAPI   C2521484   6.434   0.298   7.006  0.2134 -0.0495 -0.6979
  187SAPI   H5R21485   6.345   0.234   6.998  2.9738 -4.6257  1.4215
  187SAPI   C2621486   6.549   0.240   6.955  0.0444  0.1940 -0.7725
  187SAPI   H6R21487   6.544   0.146   6.897  0.6619 -2.2638  2.8327
  187SAPI   C2721488   6.681   0.306   6.951 -0.7437 -0.0963  0.8367
  187SAPI   H7R21489   6.697   0.372   7.039 -0.6000  1.9327 -0.6326
  187SAPI   H7S21490   6.682   0.374   6.863  0.4434 -0.2598  0.7124
  187SAPI   C2821491   6.795   0.208   6.952 -0.9396 -0.0003 -0.0999
  187SAPI   H8R21492   6.828   0.181   6.850 -2.3432  2.4987 -1.3221
  187SAPI   C2921493   6.871   0.176   7.056 -0.7600  0.0431  0.7278
  187SAPI   H9R21494   6.935   0.091   7.032 -0.9568 -0.1889  1.0155
  187SAPI  C21021495   6.850   0.219   7.196 -0.1596 -0.3522 -0.2882
  187SAPI  H10R21496   6.745   0.215   7.232  0.1373 -1.6008  0.4807
  187SAPI  H10S21497   6.880   0.326   7.202  2.6802 -1.1209  0.4309
  187SAPI  C21121498   6.925   0.137   7.300 -0.5630 -0.2057  0.7214
  187SAPI  H11R21499   7.011   0.088   7.254 -1.6602  0.8417 -2.6868
  187SAPI  C21221500   6.886   0.113   7.428 -0.2845  0.4462  1.1193
  187SAPI  H12R21501   6.953   0.043   7.479 -0.5320  0.0158  0.8586
  187SAPI  C21321502   6.759   0.162   7.501 -0.0473 -0.1426  0.9622
  187SAPI  H13R21503   6.687   0.080   7.477  0.0969  0.3155 -1.2153
  187SAPI  H13S21504   6.703   0.248   7.459 -1.7688 -1.0708  1.2744
  187SAPI  C21421505   6.789   0.175   7.648  0.5587 -0.2547 -0.4166
  187SAPI  H14R21506   6.839   0.271   7.670  1.3568 -0.7356 -0.0748
  187SAPI  C21521507   6.746   0.106   7.749  0.1164  0.3410  0.0879
  187SAPI  H15R21508   6.785   0.134   7.848  0.8382  1.7457 -0.5658
  187SAPI  C21621509   6.666  -0.022   7.742  0.3627 -0.0583 -0.1621
  187SAPI  H16R21510   6.724  -0.104   7.695  0.9482 -0.3488  1.0528
  187SAPI  H16S21511   6.575  -0.004   7.679  0.8076 -0.3306 -0.8986
  187SAPI  C21721512   6.628  -0.078   7.881  0.6583 -0.3672  0.1384
  187SAPI  H17R21513   6.716  -0.131   7.922  0.3136  0.4608  2.0684
  187SAPI  H17S21514   6.547  -0.149   7.854 -1.8845  1.7715  1.6106
  187SAPI  C21821515   6.564   0.013   7.985 -0.3223  0.6042  0.2695
  187SAPI  H18R21516   6.486   0.074   7.934  2.8286  2.9010 -2.2040
  187SAPI  H18S21517   6.637   0.081   8.033  0.2344 -0.5787  1.1626
  187SAPI  C21921518   6.498  -0.073   8.094 -0.3707 -0.2600  0.4984
  187SAPI  H19R21519   6.428  -0.153   8.064  1.2246 -0.3167 -3.8892
  187SAPI  H19S21520   6.439  -0.004   8.158  2.4618  1.6764  1.2158
  187SAPI  C22021521   6.592  -0.136   8.202 -0.0145 -0.0583  1.4651
  187SAPI  H20R21522   6.671  -0.196   8.152  0.4024  2.1508 -0.7331
  187SAPI  H20S21523   6.539  -0.203   8.273  0.2654  0.2501  1.9715
  187SAPI  H20T21524   6.635  -0.058   8.268  1.0249  1.6310 -1.0416
  187SAPI   C3321525   7.159   0.513   6.811  0.7944  0.1719  0.0971
  187SAPI   H3X21526   7.113   0.615   6.812  1.3185  0.5916  4.6882
  187SAPI   H3Y21527   7.241   0.523   6.737  1.3169  1.3976  0.8182
  187SAPI   C3421528   7.222   0.479   6.946 -0.3931 -0.2145 -0.3297
  187SAPI   H4X21529   7.318   0.535   6.937 -1.1031  0.9160 -1.1959
  187SAPI   H4Y21530   7.241   0.370   6.950 -2.5964 -0.6529 -0.4698
  187SAPI   C3521531   7.139   0.519   7.075 -0.2187  0.5730  0.1879
  187SAPI   H5X21532   7.045   0.459   7.070  1.6230 -2.8320  2.3884
  187SAPI   H5Y21533   7.112   0.627   7.066  0.4230  0.6281 -1.3535
  187SAPI   C3621534   7.216   0.491   7.204  0.1784 -1.0979  0.0587
  187SAPI   H6X21535   7.273   0.584   7.222  1.4083 -1.4330 -1.8371
  187SAPI   H6Y21536   7.291   0.411   7.189 -1.3689 -2.5084 -0.5603
  187SAPI   C3721537   7.114   0.480   7.314 -0.5567 -0.2424 -0.0767
  187SAPI   H7X21538   7.059   0.384   7.308 -0.0274 -0.9781  3.8338
  187SAPI   H7Y21539   7.047   0.567   7.299  0.2866  0.0130 -2.9734
  187SAPI   C3821540   7.172   0.469   7.453 -0.2205  0.8637  0.1295
  187SAPI   H8X21541   7.250   0.547   7.462 -0.7813  1.6067 -1.1260
  187SAPI   H8Y21542   7.206   0.363   7.454  0.3325  1.0169 -0.6578
  187SAPI   C3921543   7.067   0.487   7.556 -0.0144  0.4973 -0.3414
  187SAPI   H9X21544   6.992   0.406   7.555  1.8668 -1.4412  2.1784
  187SAPI   H9Y21545   7.022   0.587   7.535 -0.0059  0.4516 -0.5802
  187SAPI  C31021546   7.140   0.481   7.695  0.0229  0.4495 -0.6390
  187SAPI  H10X21547   7.193   0.572   7.729 -2.3302  2.0602 -1.0634
  187SAPI  H10Y21548   7.215   0.400   7.707 -0.9055 -0.5866 -1.5639
  187SAPI  C31121549   7.035   0.467   7.805 -0.2601  0.3660 -0.3308
  187SAPI  H11X21550   6.991   0.365   7.805  2.1911 -0.7527  0.4338
  187SAPI  H11Y21551   6.957   0.545   7.794  0.7476  1.5843  0.8609
  187SAPI  C31221552   7.118   0.484   7.936  0.3909 -0.4900 -0.4309
  187SAPI  H12X21553   7.131   0.593   7.950  1.3362 -0.5771 -0.5849
  187SAPI  H12Y21554   7.218   0.436   7.937  0.0175 -1.3365 -1.6398
  187SAPI  C31321555   7.037   0.439   8.062  0.6418  0.2723 -0.6811
  187SAPI  H13X21556   7.045   0.332   8.092  0.9037  1.3987  3.9461
  187SAPI  H13Y21557   6.931   0.464   8.039  0.6916  0.0654 -1.1476
  187SAPI  C31421558   7.079   0.516   8.189  0.2476 -0.0500 -0.6239
  187SAPI  H14X21559   7.096   0.623   8.163  0.3397 -0.1428 -0.9599
  187SAPI  H14Y21560   7.181   0.480   8.216  0.4474  1.3074  0.5551
  187SAPI  C31521561   6.973   0.500   8.303  0.9479 -0.2057  0.0491
  187SAPI  H15X21562   6.964   0.390   8.315  1.9435 -0.7991 -3.3928
  187SAPI  H15Y21563   6.870   0.532   8.278  0.5312 -0.1939  1.6682
  187SAPI  C31621564   7.019   0.571   8.437 -0.0957 -0.6344 -0.2777
  187SAPI  H16X21565   7.069   0.666   8.408  2.4144 -1.2077  1.8693
  187SAPI  H16Y21566   7.088   0.491   8.469 -1.5138 -1.1650  1.6276
  187SAPI  C31721567   6.911   0.605   8.545  0.5151  0.1034  0.0516
  187SAPI  H17X21568   6.828   0.532   8.532  0.6154 -0.0245  0.1319
  187SAPI  H17Y21569   6.869   0.705   8.520 -0.3983  0.2308  1.9203
  187SAPI  C31821570   6.953   0.594   8.691  0.2678 -0.1250  0.4664
  187SAPI  H18X21571   7.008   0.502   8.721 -1.1912 -1.4048 -0.6364
  187SAPI  H18Y21572   6.863   0.627   8.747 -0.2446  1.5005 -1.2307
  187SAPI  H18Z21573   7.017   0.683   8.709 -0.8990  0.6174  1.0650
  188SAPI   C1221574   3.959   3.742   6.153  0.9190 -0.3338 -0.2795
  188SAPI    H221575   4.044   3.785   6.212  0.2627 -1.4623  1.5709
  188SAPI    O221576   3.893   3.845   6.079 -0.0825  0.0123  0.2354
  188SAPI   HO221577   3.891   3.925   6.132 -0.8388  0.7246 -0.8142
  188SAPI   C1321578   4.009   3.636   6.062  0.0852  0.0527 -0.3066
  188SAPI    H321579   4.062   3.566   6.129  0.9078  1.8332  0.9782
  188SAPI    O321580   4.108   3.682   5.968 -0.5903  0.6402  0.0842
  188SAPI   HO321581   4.180   3.620   5.982 -1.7831 -0.4121  1.9838
  188SAPI   C1421582   3.894   3.571   5.988  0.5755 -0.0721 -0.1818
  188SAPI    H421583   3.836   3.652   5.938  0.3173  1.3324  2.2211
  188SAPI    O421584   3.939   3.480   5.889 -0.8314  0.2523  0.2906
  188SAPI   HO421585   4.007   3.423   5.927 -2.1281 -1.7235 -0.2354
  188SAPI   C1521586   3.787   3.510   6.075  0.0381  0.0695  0.9100
  188SAPI    H521587   3.823   3.425   6.136  0.4898 -0.1011  0.4148
  188SAPI    O521588   3.679   3.456   5.997  0.0307  0.8355  0.5490
  188SAPI   HO521589   3.621   3.528   5.974 -1.5379  0.5463  3.1663
  188SAPI   C1621590   3.744   3.616   6.179  0.0532  0.7523  0.1405
  188SAPI    H621591   3.675   3.689   6.131 -0.7377 -0.6355 -0.9382
  188SAPI    O621592   3.664   3.564   6.286  0.4782  0.5417  0.0387
  188SAPI   HO621593   3.617   3.635   6.330 -0.3556 -0.0381  0.1066
  188SAPI   C1121594   3.869   3.678   6.254 -0.0089  0.4305  1.3031
  188SAPI    H121595   3.927   3.601   6.309  0.1627 -0.0137  0.5062
  188SAPI     P21596   3.907   3.833   6.474  0.1192 -0.2506 -0.3825
  188SAPI   O1321597   3.902   3.986   6.474  0.2741 -0.5616 -0.2109
  188SAPI   O1421598   4.048   3.779   6.465 -0.2842 -0.0050  0.3764
  188SAPI   O1221599   3.823   3.775   6.348  0.0710 -0.0225  0.0343
  188SAPI   O1121600   3.826   3.786   6.607  0.2285  0.5179  0.4292
  188SAPI    C121601   3.687   3.802   6.622  0.0472  0.6621 -0.4144
  188SAPI    HA21602   3.625   3.769   6.536  0.3234  0.4808 -0.5410
  188SAPI    HB21603   3.657   3.734   6.704  1.2681  0.6389  0.0237
  188SAPI    C221604   3.629   3.940   6.662 -0.1510 -0.1803 -0.1759
  188SAPI    HS21605   3.670   4.009   6.585 -2.0776  1.4107  0.1396
  188SAPI   O2121606   3.688   3.968   6.789  0.9044  1.1036 -0.1773
  188SAPI   C2121607   3.694   4.093   6.818  0.3836 -0.0708  0.1534
  188SAPI   O2221608   3.657   4.179   6.740 -0.0492 -0.3834  0.2232
  188SAPI   C2221609   3.739   4.126   6.958  0.1226  0.9370  0.1683
  188SAPI   H2R21610   3.651   4.118   7.025 -1.2322 -1.6799 -1.7486
  188SAPI   H2S21611   3.805   4.047   6.999  0.8568  1.4033 -0.0770
  188SAPI    C321612   3.476   3.961   6.649 -0.1546 -0.0588  0.4608
  188SAPI    HX21613   3.453   3.943   6.542  0.8962 -2.7522  0.6005
  188SAPI    HY21614   3.462   4.067   6.679  2.0588  0.9976 -1.9345
  188SAPI   O3121615   3.418   3.875   6.745  1.1207 -0.1782  0.5654
  188SAPI   C3121616   3.329   3.785   6.701 -0.3585  0.6834  0.2157
  188SAPI   O3221617   3.290   3.765   6.588 -0.7677 -0.4177  0.1417
  188SAPI   C3221618   3.283   3.712   6.828 -0.0866 -0.1065 -0.2719
  188SAPI   H2X21619   3.218   3.628   6.795 -1.1409  0.3289  0.6263
  188SAPI   H2Y21620   3.222   3.776   6.895 -0.2280 -0.8910  0.3685
  188SAPI   C2321621   3.804   4.264   6.967  0.4926  0.1098  0.1763
  188SAPI   H3R21622   3.728   4.327   6.916 -1.0663 -2.3017 -0.6712
  188SAPI   H3S21623   3.902   4.270   6.915  0.4059  1.2729  0.1251
  188SAPI   C2421624   3.818   4.302   7.115 -0.0515  0.7551  0.5221
  188SAPI   H4R21625   3.727   4.266   7.167  0.5969 -2.8344 -0.5776
  188SAPI   H4S21626   3.833   4.411   7.130  0.6942  0.4349  2.3216
  188SAPI   C2521627   3.931   4.235   7.181  0.0400  0.6000  0.5249
  188SAPI   H5R21628   3.999   4.202   7.101 -1.1499  2.5099 -1.3779
  188SAPI   C2621629   3.944   4.204   7.311  0.1407 -0.1575  0.2107
  188SAPI   H6R21630   4.037   4.159   7.348 -0.3347 -0.2928  1.2959
  188SAPI   C2721631   3.846   4.241   7.415  0.2119 -0.3348  0.0442
  188SAPI   H7R21632   3.750   4.272   7.369  0.3423 -2.1473 -1.5544
  188SAPI   H7S21633   3.883   4.339   7.455  1.4294 -0.5873 -0.4317
  188SAPI   C2821634   3.819   4.121   7.506 -0.2003  0.1994 -0.7082
  188SAPI   H8R21635   3.747   4.049   7.464 -0.6486 -0.2673  0.8212
  188SAPI   C2921636   3.865   4.095   7.631 -0.5135  0.1378  0.4341
  188SAPI   H9R21637   3.836   3.995   7.667 -0.2205  0.2747  1.0536
  188SAPI  C21021638   3.966   4.173   7.713  0.3855 -0.1635 -0.3084
  188SAPI  H10R21639   3.925   4.251   7.781 -0.4694 -1.1469  0.3464
  188SAPI  H10S21640   4.042   4.224   7.652  2.6929 -1.3510  1.4073
  188SAPI  C21121641   4.049   4.080   7.805  0.2573 -0.4185 -0.2587
  188SAPI  H11R21642   4.101   4.005   7.743 -2.0196 -2.6870  0.4088
  188SAPI  C21221643   4.041   4.072   7.936  0.0452  0.0218 -0.2919
  188SAPI  H12R21644   4.108   4.004   7.991  1.8926  2.9311  1.3982
  188SAPI  C21321645   3.945   4.150   8.026  0.5292 -0.3485  0.0809
  188SAPI  H13R21646   3.847   4.100   8.018 -0.7751  2.2003 -1.0074
  188SAPI  H13S21647   3.917   4.249   7.983 -0.2831 -0.5158  0.2103
  188SAPI  C21421648   3.999   4.162   8.165  0.1764  0.8106 -0.7349
  188SAPI  H14R21649   4.059   4.249   8.194 -0.0264  0.6184  0.3237
  188SAPI  C21521650   3.972   4.068   8.265 -0.6465 -0.1048 -0.7156
  188SAPI  H15R21651   4.017   4.088   8.364  1.7544 -3.3547 -0.9995
  188SAPI  C21621652   3.896   3.940   8.261  0.1494  1.2131 -0.0056
  188SAPI  H16R21653   3.854   3.918   8.160 -1.5233  1.6523  0.5519
  188SAPI  H16S21654   3.803   3.948   8.321 -0.8372  0.4124 -1.3596
  188SAPI  C21721655   3.977   3.819   8.319 -0.7357 -0.0977 -0.0085
  188SAPI  H17R21656   3.905   3.734   8.320 -1.3108  0.3777 -0.1573
  188SAPI  H17S21657   3.995   3.848   8.424 -2.8628  0.8686  0.1402
  188SAPI  C21821658   4.107   3.782   8.247 -0.2735 -0.8939  0.0044
  188SAPI  H18R21659   4.158   3.698   8.299 -1.0103 -1.1264  0.3683
  188SAPI  H18S21660   4.193   3.852   8.234 -2.0847  0.9669 -3.2120
  188SAPI  C21921661   4.074   3.723   8.111 -0.0039  0.3363  0.6987
  188SAPI  H19R21662   4.036   3.807   8.048  0.3239  0.1447  0.2397
  188SAPI  H19S21663   3.997   3.645   8.124  0.2504 -0.3375 -1.5301
  188SAPI  C22021664   4.190   3.672   8.024 -0.1405 -0.0728 -0.1550
  188SAPI  H20R21665   4.264   3.753   8.008  0.7282 -0.9204 -0.5965
  188SAPI  H20S21666   4.140   3.624   7.937  0.0539 -2.7680  1.1289
  188SAPI  H20T21667   4.228   3.578   8.070 -3.1531 -0.3331  2.0760
  188SAPI   C3321668   3.403   3.651   6.905  0.2164  0.1402 -0.6314
  188SAPI   H3X21669   3.458   3.739   6.944  0.9085 -0.5514 -0.0072
  188SAPI   H3Y21670   3.473   3.596   6.838  3.1078  1.6735  0.9434
  188SAPI   C3421671   3.360   3.553   7.014  0.1788  0.8148  0.1407
  188SAPI   H4X21672   3.312   3.469   6.958  3.2370 -1.6236  0.8750
  188SAPI   H4Y21673   3.284   3.598   7.081  1.2906  0.5382  1.6585
  188SAPI   C3521674   3.485   3.502   7.086  1.0189  0.7059  0.1065
  188SAPI   H5X21675   3.558   3.585   7.092 -0.0468  1.5721  1.6913
  188SAPI   H5Y21676   3.536   3.432   7.016 -0.2614 -0.4572  0.2830
  188SAPI   C3621677   3.459   3.421   7.215  0.1652 -0.2845 -0.4197
  188SAPI   H6X21678   3.555   3.374   7.244 -0.9707 -1.5811  1.4763
  188SAPI   H6Y21679   3.390   3.339   7.186 -2.3771  1.7127 -0.3666
  188SAPI   C3721680   3.399   3.490   7.335 -0.2129 -0.2456  0.4392
  188SAPI   H7X21681   3.296   3.528   7.321  0.8141  2.9989  0.6659
  188SAPI   H7Y21682   3.457   3.585   7.342 -0.9939  0.3250 -0.5602
  188SAPI   C3821683   3.424   3.406   7.463  0.5351 -0.0857 -0.0675
  188SAPI   H8X21684   3.532   3.381   7.458  0.6341  0.4414 -0.7835
  188SAPI   H8Y21685   3.370   3.309   7.471  1.3808 -0.5808 -0.1798
  188SAPI   C3921686   3.388   3.480   7.593 -0.0154 -0.5820  0.5723
  188SAPI   H9X21687   3.286   3.524   7.589  1.0414  1.9972  0.0859
  188SAPI   H9Y21688   3.466   3.557   7.615  0.2741 -0.0532 -1.9639
  188SAPI  C31021689   3.414   3.397   7.709 -0.1116 -0.0501  0.2303
  188SAPI  H10X21690   3.516   3.358   7.685  0.4571  1.2879  0.4032
  188SAPI  H10Y21691   3.336   3.319   7.721  0.4371 -0.2405  3.4484
  188SAPI  C31121692   3.403   3.463   7.853 -0.6097  0.4227  0.1519
  188SAPI  H11X21693   3.298   3.492   7.873  0.1056  2.3991  1.3289
  188SAPI  H11Y21694   3.472   3.550   7.850  1.5055 -1.1415 -2.8546
  188SAPI  C31221695   3.445   3.382   7.972  0.1530 -0.2875  0.2990
  188SAPI  H12X21696   3.552   3.353   7.964  0.1830  0.0181 -0.5270
  188SAPI  H12Y21697   3.377   3.295   7.983 -0.8213  0.3381 -0.5348
  188SAPI  C31321698   3.432   3.464   8.106  0.4150  0.4130  0.2179
  188SAPI  H13X21699   3.331   3.509   8.097  0.1430  0.3222  2.1920
  188SAPI  H13Y21700   3.501   3.551   8.106  1.0256 -0.0484 -1.4018
  188SAPI  C31421701   3.442   3.379   8.231 -0.6052  0.6550  0.1510
  188SAPI  H14X21702   3.549   3.365   8.260 -0.8859 -0.5798  0.6441
  188SAPI  H14Y21703   3.401   3.278   8.212  0.0972  0.3357  0.2886
  188SAPI  C31521704   3.362   3.450   8.350 -0.3777 -0.2048  0.0362
  188SAPI  H15X21705   3.332   3.386   8.435 -3.1705  0.5297 -0.3125
  188SAPI  H15Y21706   3.264   3.483   8.311  0.0704  1.6880  0.4153
  188SAPI  C31621707   3.436   3.582   8.394  0.4785  0.0024 -0.0472
  188SAPI  H16X21708   3.381   3.630   8.478  1.9608 -2.6430  2.6321
  188SAPI  H16Y21709   3.434   3.647   8.304 -1.5817  0.3216  0.1776
  188SAPI  C31721710   3.579   3.549   8.434 -0.2262 -0.5476  0.1055
  188SAPI  H17X21711   3.641   3.541   8.342  0.0262 -2.1686  0.3913
  188SAPI  H17Y21712   3.595   3.452   8.485 -0.1578 -1.6325 -1.8819
  188SAPI  C31821713   3.630   3.665   8.527 -0.4099 -0.0421  0.0884
  188SAPI  H18X21714   3.576   3.666   8.624 -2.1158  2.4413 -0.7991
  188SAPI  H18Y21715   3.619   3.762   8.475 -0.6384  0.1247  0.4526
  188SAPI  H18Z21716   3.739   3.652   8.546 -0.5733  0.1078  1.1991
  189POPC     N21717   2.252   4.709  10.925 -0.1610 -0.2435 -0.0653
  189POPC   C1221718   2.281   4.571  10.863 -0.7916 -0.3068 -0.2468
  189POPC  H12A21719   2.380   4.571  10.820 -1.1989 -0.4275 -1.2283
  189POPC  H12B21720   2.223   4.562  10.772  0.2730 -4.1711 -0.7295
  189POPC   C1321721   2.303   4.808  10.828  0.2394 -0.1913  0.0563
  189POPC  H13A21722   2.293   4.902  10.879 -1.5030 -0.9579  1.2102
  189POPC  H13B21723   2.407   4.791  10.803  0.6319  1.4179  0.5150
  189POPC  H13C21724   2.244   4.807  10.738  1.5021  2.7922 -0.9066
  189POPC   C1421725   2.102   4.722  10.944 -0.0329  0.2858  0.9112
  189POPC  H14A21726   2.042   4.701  10.856 -0.0091  1.2989  0.6425
  189POPC  H14B21727   2.075   4.646  11.016 -0.5709 -0.4392 -0.0201
  189POPC  H14C21728   2.073   4.823  10.967 -0.5047  0.9027 -1.9634
  189POPC   C1521729   2.311   4.728  11.058 -0.4143 -0.1477 -0.2825
  189POPC  H15A21730   2.287   4.826  11.099  1.4276  0.1004  0.2805
  189POPC  H15B21731   2.418   4.720  11.054 -0.2300  1.7866 -0.3407
  189POPC  H15C21732   2.279   4.645  11.120  0.0852  0.1129  0.3378
  189POPC   C1121733   2.247   4.447  10.941  0.1556 -0.4571 -0.1898
  189POPC  H11A21734   2.258   4.356  10.878  1.7366  0.5194 -1.3965
  189POPC  H11B21735   2.147   4.463  10.988  1.1086 -0.4097  1.9303
  189POPC     P21736   2.480   4.363  11.045  0.1715 -0.0263 -0.0119
  189POPC   O1321737   2.496   4.295  11.173  1.0468 -0.5143 -0.3099
  189POPC   O1421738   2.582   4.470  11.009 -0.4452  0.3213  0.5971
  189POPC   O1221739   2.338   4.436  11.046 -0.1227 -0.2265  0.1002
  189POPC   O1121740   2.470   4.259  10.928 -0.5667  0.1951  0.0420
  189POPC    C121741   2.519   4.125  10.937  0.0451  0.8397  0.2564
  189POPC    HA21742   2.464   4.066  11.014  1.0058 -0.7271 -0.2137
  189POPC    HB21743   2.623   4.129  10.975  0.9753  1.8047 -2.2243
  189POPC    C221744   2.515   4.045  10.802  0.7979 -0.4395  0.5747
  189POPC    HS21745   2.420   3.988  10.806  2.4867 -3.4653  0.6073
  189POPC   O2121746   2.630   3.965  10.796 -0.2235 -0.2958  0.2026
  189POPC   C2121747   2.607   3.854  10.720 -0.5858 -0.3824 -0.3895
  189POPC   O2221748   2.499   3.820  10.675 -0.0189 -0.0227  0.1884
  189POPC   C2221749   2.743   3.792  10.681  0.2135  0.4546 -0.6294
  189POPC   H2R21750   2.726   3.682  10.684 -0.7001  0.6052  0.8656
  189POPC   H2S21751   2.822   3.816  10.755 -0.0558 -1.1541  0.2287
  189POPC    C321752   2.509   4.146  10.681 -0.0317  0.2750  0.7384
  189POPC    HX21753   2.602   4.206  10.693  1.0377 -0.9294 -1.1724
  189POPC    HY21754   2.418   4.205  10.707 -0.5185 -0.6358  1.1379
  189POPC   O3121755   2.489   4.095  10.543 -0.3994 -0.3371 -0.2490
  189POPC   C3121756   2.462   4.178  10.449 -0.2137 -0.1100 -0.3308
  189POPC   O3221757   2.436   4.297  10.460 -0.3378 -0.1950  0.1729
  189POPC   C3221758   2.453   4.100  10.313 -0.1359 -0.2176  0.4187
  189POPC   H2X21759   2.374   4.025  10.336 -1.6668  1.7844  2.1515
  189POPC   H2Y21760   2.542   4.034  10.312  0.9762  1.1647  2.0224
  189POPC   C2321761   2.790   3.854  10.550 -0.5631 -0.3343  0.1260
  189POPC   H3R21762   2.898   3.828  10.542 -0.4740 -0.9412  2.5720
  189POPC   H3S21763   2.773   3.964  10.545  0.0454 -0.1914  0.9557
  189POPC   C2421764   2.726   3.795  10.426 -0.1321 -0.0885  0.8358
  189POPC   H4R21765   2.615   3.799  10.432 -0.1024 -0.9178  2.6642
  189POPC   H4S21766   2.761   3.690  10.419 -0.5291 -0.1635 -0.2090
  189POPC   C2521767   2.783   3.857  10.294 -0.3961  0.6211 -0.0133
  189POPC   H5R21768   2.886   3.817  10.305 -1.3457 -2.0935 -0.2622
  189POPC   H5S21769   2.774   3.968  10.300 -0.5109  0.5436  1.8957
  189POPC   C2621770   2.735   3.797  10.163  0.3228 -0.3962 -0.6859
  189POPC   H6R21771   2.627   3.778  10.182  0.2382  2.4492  2.6416
  189POPC   H6S21772   2.784   3.700  10.138  0.8781 -0.6035  1.0473
  189POPC   C2721773   2.765   3.888  10.045 -0.0429  0.5910 -0.2656
  189POPC   H7R21774   2.875   3.874  10.030  0.3322  0.9310  1.8858
  189POPC   H7S21775   2.763   3.992  10.082  0.5846  0.5786 -0.1864
  189POPC   C2821776   2.703   3.849   9.908 -0.4614  0.0698  0.4674
  189POPC   H8R21777   2.741   3.917   9.828 -0.4373 -1.4385 -0.8480
  189POPC   H8S21778   2.596   3.877   9.915 -0.4252  1.1660 -1.9348
  189POPC   C2921779   2.711   3.703   9.856  0.6374 -0.4951 -0.1434
  189POPC   H9121780   2.659   3.629   9.919  0.8277 -0.7383 -0.2729
  189POPC  C21021781   2.775   3.668   9.738  0.0186 -0.9386  0.1099
  189POPC  H10121782   2.785   3.563   9.707  3.2155 -0.8466  0.4067
  189POPC  C21121783   2.848   3.764   9.652 -0.9017  0.8304 -0.2986
  189POPC  H11R21784   2.930   3.705   9.606 -1.6406 -1.1341  0.7855
  189POPC  H11S21785   2.897   3.850   9.702 -1.0788 -0.3619  2.0995
  189POPC  C21221786   2.751   3.831   9.554 -0.3808 -0.7678 -0.4609
  189POPC  H12R21787   2.705   3.916   9.608  3.5880  0.7435  0.9254
  189POPC  H12S21788   2.682   3.757   9.509 -0.0180 -1.1576 -0.3808
  189POPC  C21321789   2.829   3.903   9.444  0.8481  0.4281  0.1687
  189POPC  H13R21790   2.914   3.965   9.480  0.5951  0.3214  0.9888
  189POPC  H13S21791   2.756   3.976   9.405  2.1721  0.1875 -3.0535
  189POPC  C21421792   2.870   3.816   9.323 -0.1696 -0.0025  0.4516
  189POPC  H14R21793   2.779   3.789   9.266 -0.4675  0.5915  0.6278
  189POPC  H14S21794   2.909   3.721   9.363 -1.4039 -0.0450  1.6530
  189POPC  C21521795   2.975   3.871   9.236 -0.3899  0.1839  0.6186
  189POPC  H15R21796   3.029   3.790   9.183 -0.5767  0.9695 -0.8412
  189POPC  H15S21797   3.048   3.930   9.297 -0.1211 -1.0978  1.5799
  189POPC  C21621798   2.919   3.956   9.117 -0.2478  0.0678  0.1532
  189POPC  H16R21799   2.861   4.041   9.158 -0.2128 -0.2394  0.8516
  189POPC  H16S21800   2.833   3.912   9.061 -0.8795  0.5440  0.7352
  189POPC  C21721801   3.022   4.002   9.012  0.0486 -0.7895 -0.7674
  189POPC  H17R21802   3.060   3.905   8.973  0.0718 -1.6103  1.1610
  189POPC  H17S21803   3.111   4.055   9.053  0.7415  0.2502 -3.4119
  189POPC  C21821804   2.965   4.071   8.894 -0.7451 -0.0337  0.1016
  189POPC  H18R21805   3.037   4.133   8.837 -0.7881  0.8823  1.0106
  189POPC  H18S21806   2.885   4.143   8.924 -1.8283 -0.5969 -1.3202
  189POPC  H18T21807   2.902   4.013   8.823 -0.5318 -1.0381  0.7156
  189POPC   C3321808   2.443   4.186  10.186  0.8084 -0.8621  0.8042
  189POPC   H3X21809   2.369   4.268  10.202  3.8296  2.6186 -1.4427
  189POPC   H3Y21810   2.398   4.120  10.109  0.0195 -0.1630  0.6543
  189POPC   C3421811   2.574   4.249  10.133  0.0963  0.7273 -0.0920
  189POPC   H4X21812   2.647   4.170  10.103  0.6444  0.8262  0.9499
  189POPC   H4Y21813   2.612   4.306  10.220  1.4227 -1.6944  1.0128
  189POPC   C3521814   2.549   4.341  10.013 -0.5444 -0.2045 -0.2588
  189POPC   H5X21815   2.644   4.394   9.990 -2.1357  2.8811 -0.2334
  189POPC   H5Y21816   2.462   4.406  10.036 -1.6825 -2.4349  2.2753
  189POPC   C3621817   2.518   4.258   9.889  0.5911 -0.4161 -0.0119
  189POPC   H6X21818   2.416   4.214   9.896  0.3237  0.4452  4.1087
  189POPC   H6Y21819   2.589   4.173   9.884  2.5982  1.2211 -1.3076
  189POPC   C3721820   2.529   4.341   9.761 -0.4663 -0.9289 -0.5909
  189POPC   H7X21821   2.633   4.377   9.765 -0.0193 -2.2598  0.9947
  189POPC   H7Y21822   2.461   4.427   9.778 -0.0461 -1.0624  2.1170
  189POPC   C3821823   2.499   4.267   9.631 -0.4296 -0.0448 -0.4167
  189POPC   H8X21824   2.412   4.198   9.641 -0.9563  0.5190 -1.0207
  189POPC   H8Y21825   2.585   4.201   9.605  1.2617  1.6515  0.5771
  189POPC   C3921826   2.492   4.349   9.502 -0.1049 -0.2756 -0.6239
  189POPC   H9X21827   2.588   4.404   9.491  1.3401 -2.8067 -1.6634
  189POPC   H9Y21828   2.414   4.426   9.514 -0.0047 -0.3558  0.7077
  189POPC  C31021829   2.475   4.257   9.379  0.4304 -0.1693  0.7737
  189POPC  H10X21830   2.380   4.201   9.391  1.6762 -2.8349 -0.8600
  189POPC  H10Y21831   2.555   4.181   9.369 -0.1220 -0.5177 -1.7491
  189POPC  C31121832   2.470   4.361   9.261 -0.7940  0.2300 -0.1250
  189POPC  H11X21833   2.565   4.416   9.243 -1.4035  1.0282 -1.0043
  189POPC  H11Y21834   2.387   4.433   9.279 -0.3766 -0.0507  3.6020
  189POPC  C31221835   2.448   4.288   9.122  0.2279  0.1102 -0.1317
  189POPC  H12X21836   2.369   4.211   9.137  0.4580  0.0228  0.6652
  189POPC  H12Y21837   2.543   4.233   9.102  1.0643  1.8019 -0.9606
  189POPC  C31321838   2.415   4.374   9.003 -0.1175 -0.3335  0.4948
  189POPC  H13X21839   2.490   4.455   8.997  0.8795 -1.2600  0.1393
  189POPC  H13Y21840   2.317   4.422   9.028 -0.5382 -1.5665  1.2809
  189POPC  C31421841   2.403   4.296   8.866  0.1160  0.1008  0.1796
  189POPC  H14X21842   2.349   4.359   8.791 -2.1628  0.5014  2.0401
  189POPC  H14Y21843   2.349   4.200   8.883  0.7118 -0.6835 -2.0011
  189POPC  C31521844   2.540   4.258   8.802 -0.0987 -0.5293 -0.6705
  189POPC  H15X21845   2.590   4.190   8.873 -1.1219  0.1221  0.7129
  189POPC  H15Y21846   2.606   4.347   8.799  0.5972 -1.0619 -2.0872
  189POPC  C31621847   2.536   4.191   8.666 -0.7339  0.1169 -0.1083
  189POPC  H16X21848   2.633   4.142   8.642 -0.9907 -0.3020 -0.3121
  189POPC  H16Y21849   2.514   4.272   8.594  1.3518 -0.1659 -1.1348
  189POPC  H16Z21850   2.458   4.112   8.655  1.4384 -2.0046 -1.2743
  190POPC     N21851   5.167   1.705  11.033  0.1216  0.0907 -0.4785
  190POPC   C1221852   5.214   1.696  11.178  0.0492 -0.5421 -0.3700
  190POPC  H12A21853   5.213   1.597  11.220 -1.6754 -1.2300 -1.8814
  190POPC  H12B21854   5.153   1.768  11.229 -0.9892 -0.8301 -1.1616
  190POPC   C1321855   5.262   1.621  10.950  0.2495 -0.2244  0.2477
  190POPC  H13A21856   5.362   1.629  10.988 -0.3184 -1.9512  2.3123
  190POPC  H13B21857   5.237   1.516  10.953 -0.9738  0.0093 -0.7315
  190POPC  H13C21858   5.254   1.653  10.847  0.8288 -0.5896  0.0824
  190POPC   C1421859   5.031   1.649  11.010 -0.4641 -0.3955  0.5631
  190POPC  H14A21860   5.005   1.579  11.087 -1.4112  2.6184  3.2147
  190POPC  H14B21861   4.964   1.732  11.028 -1.2303 -0.6524 -0.8973
  190POPC  H14C21862   5.020   1.610  10.909  3.3575 -0.3218 -0.0054
  190POPC   C1521863   5.157   1.843  10.987 -0.9048  0.0678 -0.2662
  190POPC  H15A21864   5.071   1.893  11.028 -1.7267 -0.6191 -1.0866
  190POPC  H15B21865   5.121   1.855  10.885 -0.3899  2.7997 -0.2019
  190POPC  H15C21866   5.251   1.896  10.993 -0.3944 -0.6524 -1.4235
  190POPC   C1121867   5.361   1.738  11.212 -0.0383  0.0615  0.0920
  190POPC  H11A21868   5.374   1.712  11.320  0.2538 -1.3015 -0.2624
  190POPC  H11B21869   5.369   1.848  11.199  1.3965  0.2034  1.6323
  190POPC     P21870   5.615   1.686  11.198 -0.0383 -0.3188 -0.1602
  190POPC   O1321871   5.650   1.578  11.298 -0.5295  0.2701  0.5035
  190POPC   O1421872   5.631   1.830  11.237  0.3728  0.2260 -0.1981
  190POPC   O1221873   5.464   1.675  11.142 -0.9057 -0.7485  0.0558
  190POPC   O1121874   5.706   1.661  11.069 -0.0347  0.1280  0.0311
  190POPC    C121875   5.656   1.671  10.936  0.0581 -0.2237 -0.1301
  190POPC    HA21876   5.597   1.765  10.940  1.3401  0.5742  0.7106
  190POPC    HB21877   5.585   1.590  10.909 -0.7761  0.1489  0.8710
  190POPC    C221878   5.769   1.696  10.823  0.5450  0.9068  0.4609
  190POPC    HS21879   5.708   1.745  10.744  0.3291 -0.8285 -0.4939
  190POPC   O2121880   5.824   1.565  10.786  0.3592 -0.1799 -0.1792
  190POPC   C2121881   5.758   1.514  10.684 -0.6863  0.7031  0.1360
  190POPC   O2221882   5.649   1.548  10.644  0.1517  0.7085  0.2527
  190POPC   C2221883   5.853   1.413  10.619 -0.7796 -0.0541 -0.9065
  190POPC   H2R21884   5.824   1.312  10.656 -2.8945  0.6258 -0.5521
  190POPC   H2S21885   5.959   1.428  10.647 -0.3635 -0.9235 -1.9350
  190POPC    C321886   5.888   1.778  10.885  0.2191  0.2038 -0.7712
  190POPC    HX21887   5.915   1.729  10.981 -1.1581  1.7065  0.4393
  190POPC    HY21888   5.855   1.880  10.913 -0.9079 -0.1620 -0.6939
  190POPC   O3121889   6.014   1.786  10.807  0.2113  0.6090 -0.3251
  190POPC   C3121890   6.007   1.838  10.682  0.5076 -0.7310 -0.3999
  190POPC   O3221891   5.908   1.887  10.634  0.2384  0.6188 -0.3467
  190POPC   C3221892   6.139   1.824  10.611 -0.2584 -0.1940 -0.1135
  190POPC   H2X21893   6.206   1.768  10.679  1.7000  2.1857  0.0582
  190POPC   H2Y21894   6.186   1.925  10.615  0.0731 -0.3616  0.2829
  190POPC   C2321895   5.840   1.405  10.461 -0.2102 -0.5102  0.3508
  190POPC   H3R21896   5.932   1.357  10.422  1.5197  2.7455  0.0908
  190POPC   H3S21897   5.827   1.504  10.413  2.2049  0.9836  2.5423
  190POPC   C2421898   5.729   1.311  10.401 -0.1137  0.0745 -1.1254
  190POPC   H4R21899   5.638   1.345  10.455 -0.6351  0.9999 -2.5450
  190POPC   H4S21900   5.746   1.204  10.425  0.3617  0.1197 -1.2448
  190POPC   C2521901   5.697   1.326  10.253  0.3388  0.4106 -0.3052
  190POPC   H5R21902   5.660   1.430  10.248  1.1832  0.7366 -0.0460
  190POPC   H5S21903   5.604   1.274  10.223 -0.7908  2.7059 -0.9464
  190POPC   C2621904   5.821   1.316  10.158  0.3066  0.5533 -0.8828
  190POPC   H6R21905   5.870   1.218  10.176  0.6790  1.0325  0.9167
  190POPC   H6S21906   5.893   1.390  10.198  0.9336  0.1992 -1.3395
  190POPC   C2721907   5.796   1.371  10.021  0.1950  0.1944  0.3624
  190POPC   H7R21908   5.751   1.472  10.033 -0.2516 -0.1873  2.2583
  190POPC   H7S21909   5.720   1.315   9.963 -0.9981  1.9196  0.1862
  190POPC   C2821910   5.927   1.379   9.935  0.2533 -1.1179  0.4498
  190POPC   H8R21911   5.994   1.457   9.977 -0.5311  0.7617 -1.5747
  190POPC   H8S21912   5.880   1.425   9.845  0.0355 -0.5817  0.8314
  190POPC   C2921913   5.996   1.248   9.892  0.1227 -0.4881 -0.5023
  190POPC   H9121914   6.088   1.227   9.948 -1.1482  0.2009  1.9742
  190POPC  C21021915   5.958   1.176   9.792 -0.3601  0.0534  1.2272
  190POPC  H10121916   6.005   1.081   9.762  0.8293  1.4147 -1.5660
  190POPC  C21121917   5.837   1.195   9.700 -0.0082 -0.3604 -0.0585
  190POPC  H11R21918   5.760   1.263   9.743  0.6429  0.9046 -0.8222
  190POPC  H11S21919   5.775   1.103   9.693 -0.8787  0.1366  0.8583
  190POPC  C21221920   5.874   1.250   9.560 -0.0705 -0.6770  0.1135
  190POPC  H12R21921   5.775   1.264   9.510 -0.7399  0.3016  1.6508
  190POPC  H12S21922   5.931   1.174   9.502 -1.1934 -0.4376 -1.3512
  190POPC  C21321923   5.946   1.385   9.555 -0.7124 -0.2846 -0.1091
  190POPC  H13R21924   6.041   1.358   9.606 -1.1832 -3.2630 -0.6368
  190POPC  H13S21925   5.896   1.470   9.606  0.4799 -0.0900  0.7973
  190POPC  C21421926   5.974   1.431   9.404 -0.5985 -0.3092  0.3086
  190POPC  H14R21927   6.036   1.353   9.355  0.1594  0.6696 -0.3246
  190POPC  H14S21928   6.048   1.514   9.401 -1.9660  0.9118 -1.5462
  190POPC  C21521929   5.854   1.475   9.321  0.3659  0.4246 -0.0977
  190POPC  H15R21930   5.866   1.578   9.282 -0.8706  1.5489  2.2870
  190POPC  H15S21931   5.754   1.466   9.370 -0.7204 -2.6898 -2.5241
  190POPC  C21621932   5.840   1.381   9.197  0.1192 -0.0888 -0.3040
  190POPC  H16R21933   5.807   1.279   9.226  1.3859  0.1788  2.3920
  190POPC  H16S21934   5.939   1.369   9.148  0.3844  0.0979  0.1684
  190POPC  C21721935   5.759   1.451   9.090  0.4350  0.5270  0.4153
  190POPC  H17R21936   5.774   1.561   9.091 -3.5864  1.2490 -1.3946
  190POPC  H17S21937   5.652   1.432   9.112 -0.6213  0.3634 -3.8283
  190POPC  C21821938   5.785   1.393   8.955 -0.1806  0.3935  0.1776
  190POPC  H18R21939   5.889   1.412   8.919 -1.0628  1.9299 -1.7500
  190POPC  H18S21940   5.721   1.436   8.875 -0.4217  0.6650  0.5130
  190POPC  H18T21941   5.780   1.282   8.946  0.4091  0.2851  1.0481
  190POPC   C3321942   6.114   1.775  10.470  0.3521 -0.3649 -1.0928
  190POPC   H3X21943   6.068   1.864  10.423  0.3674  0.0975 -0.2508
  190POPC   H3Y21944   6.044   1.689  10.474  0.4130 -0.3613  0.6228
  190POPC   C3421945   6.233   1.742  10.384 -0.1118 -0.4518  0.7306
  190POPC   H4X21946   6.298   1.663  10.427  1.1488 -0.1969 -0.6073
  190POPC   H4Y21947   6.292   1.834  10.363  0.1624 -0.9150 -0.6358
  190POPC   C3521948   6.187   1.682  10.249 -0.4397 -0.7600  0.9565
  190POPC   H5X21949   6.102   1.741  10.209 -0.9121 -2.3577 -0.5656
  190POPC   H5Y21950   6.139   1.582  10.262 -1.7796 -0.1275  1.0016
  190POPC   C3621951   6.304   1.674  10.150 -0.3394  0.0864  0.7936
  190POPC   H6X21952   6.377   1.597  10.183  1.5312  1.5403  0.2193
  190POPC   H6Y21953   6.357   1.772  10.157 -2.7842  1.4802  0.7357
  190POPC   C3721954   6.260   1.651  10.005  0.5168 -0.0096  0.6678
  190POPC   H7X21955   6.172   1.710   9.969  0.2237 -2.0477 -2.2399
  190POPC   H7Y21956   6.222   1.547  10.006 -0.2398  0.2566  0.4789
  190POPC   C3821957   6.380   1.679   9.914  0.1645 -0.1959 -0.4737
  190POPC   H8X21958   6.469   1.618   9.941 -0.4716 -1.2250 -0.6282
  190POPC   H8Y21959   6.406   1.785   9.931  3.0350 -0.3568 -3.0634
  190POPC   C3921960   6.350   1.662   9.767 -0.2082 -0.4074  0.6412
  190POPC   H9X21961   6.288   1.744   9.724 -1.7257 -0.9011  1.7700
  190POPC   H9Y21962   6.300   1.564   9.749 -0.3423 -0.3906  0.9197
  190POPC  C31021963   6.479   1.669   9.688 -0.3486  0.4359 -0.6202
  190POPC  H10X21964   6.543   1.578   9.695 -2.5198 -1.0886  0.1731
  190POPC  H10Y21965   6.538   1.751   9.734  0.8129  0.2382 -1.6801
  190POPC  C31121966   6.457   1.723   9.551  0.3555  0.0613  0.3176
  190POPC  H11X21967   6.549   1.739   9.491  0.2353 -2.8517 -0.8186
  190POPC  H11Y21968   6.392   1.813   9.556  0.0499 -0.1331 -0.0757
  190POPC  C31221969   6.376   1.615   9.468  0.2306 -0.6625  0.5042
  190POPC  H12X21970   6.276   1.605   9.516  0.2424  1.1350  0.9466
  190POPC  H12Y21971   6.422   1.514   9.467  0.9156 -0.3570 -0.5570
  190POPC  C31321972   6.367   1.648   9.319  0.8449 -0.0638 -0.8658
  190POPC  H13X21973   6.305   1.568   9.274  0.4817  1.1321 -2.5740
  190POPC  H13Y21974   6.470   1.639   9.277  0.8414  0.6141 -1.0245
  190POPC  C31421975   6.312   1.793   9.295 -0.4878 -0.4340 -0.0498
  190POPC  H14X21976   6.392   1.869   9.308 -0.7133 -0.4199  1.4638
  190POPC  H14Y21977   6.246   1.813   9.382  0.9310  2.4184  0.5013
  190POPC  C31521978   6.226   1.811   9.169  0.3781 -0.6798  0.1172
  190POPC  H15X21979   6.300   1.804   9.086  1.4988  1.6786  0.8277
  190POPC  H15Y21980   6.185   1.914   9.161  0.6775 -0.0940  4.1625
  190POPC  C31621981   6.103   1.715   9.159 -0.0049  0.3013  0.0282
  190POPC  H16X21982   6.055   1.730   9.060  0.2076 -0.5176 -0.2073
  190POPC  H16Y21983   6.034   1.745   9.241  0.4770 -0.2917  0.6733
  190POPC  H16Z21984   6.141   1.611   9.175 -1.9693 -0.7538 -1.6453
  191POPC     N21985   5.408   1.943   6.196  0.4917 -0.3533 -0.1524
  191POPC   C1221986   5.336   1.915   6.319 -0.3031 -0.0654  0.1982
  191POPC  H12A21987   5.389   1.839   6.375  2.4447  0.5573 -1.4170
  191POPC  H12B21988   5.242   1.865   6.298  0.7232 -1.6802 -0.7318
  191POPC   C1321989   5.547   1.973   6.224 -0.2351 -0.3108  0.2150
  191POPC  H13A21990   5.600   1.899   6.283  1.5541  2.3215  2.1676
  191POPC  H13B21991   5.600   1.987   6.130  0.3231  0.3673  0.6220
  191POPC  H13C21992   5.551   2.063   6.282 -1.9589 -1.4194  2.1735
  191POPC   C1421993   5.405   1.827   6.108  0.1971  0.0833  0.5512
  191POPC  H14A21994   5.300   1.802   6.097 -0.0200 -0.1389  2.8142
  191POPC  H14B21995   5.450   1.845   6.011 -0.0854 -0.3324  0.3372
  191POPC  H14C21996   5.444   1.740   6.159 -1.6886 -1.1052  0.0841
  191POPC   C1521997   5.362   2.070   6.120  0.0322 -0.0292  0.2010
  191POPC  H15A21998   5.440   2.101   6.052 -1.8891 -1.2596 -2.8379
  191POPC  H15B21999   5.349   2.152   6.188  2.1186 -0.9357  1.8256
  191POPC  H15C22000   5.269   2.047   6.069 -0.6712 -1.5822  2.0345
  191POPC   C1122001   5.316   2.031   6.414  0.3221  0.4216 -1.0403
  191POPC  H11A22002   5.417   2.075   6.434  0.4843  0.2723 -1.5159
  191POPC  H11B22003   5.278   1.980   6.505  3.1795 -1.4183 -0.7598
  191POPC     P22004   5.237   2.272   6.445  0.3234 -0.0658 -0.1599
  191POPC   O1322005   5.128   2.357   6.388  0.3920 -0.1017  0.5526
  191POPC   O1422006   5.369   2.332   6.428 -0.2286 -0.1417 -0.0745
  191POPC   O1222007   5.224   2.134   6.366 -0.8902  0.4520  0.0592
  191POPC   O1122008   5.202   2.220   6.588 -0.4094  0.2018  0.1687
  191POPC    C122009   5.071   2.235   6.640  0.2034 -0.3132 -0.2245
  191POPC    HA22010   5.001   2.166   6.588 -0.2822  0.5630 -0.7552
  191POPC    HB22011   5.022   2.333   6.623  1.1386  0.5247  1.6681
  191POPC    C222012   5.056   2.208   6.787 -0.6680 -0.5018  0.0929
  191POPC    HS22013   4.947   2.202   6.806 -0.5657  1.4356  1.6648
  191POPC   O2122014   5.126   2.314   6.860  0.3770 -0.3190 -1.0201
  191POPC   C2122015   5.072   2.431   6.872  0.0128 -0.6104  0.0309
  191POPC   O2222016   4.973   2.468   6.814  0.1890  0.1092 -0.2898
  191POPC   C2222017   5.170   2.522   6.954 -0.0730 -0.5037  0.2813
  191POPC   H2R22018   5.123   2.622   6.946  1.3713  0.0751 -2.2302
  191POPC   H2S22019   5.261   2.524   6.890 -1.2684  1.5554 -1.4900
  191POPC    C322020   5.126   2.071   6.818  0.0749  0.0238  0.1092
  191POPC    HX22021   5.233   2.068   6.787  0.1703  1.3568  0.2222
  191POPC    HY22022   5.071   1.992   6.762 -0.8247 -1.0879  2.4393
  191POPC   O3122023   5.100   2.038   6.957  0.2519  0.0847 -0.1373
  191POPC   C3122024   5.190   2.083   7.050  0.2576  0.4488  0.0151
  191POPC   O3222025   5.291   2.149   7.021  0.0738  0.0186  0.2173
  191POPC   C3222026   5.159   2.024   7.193  0.0393 -0.8526 -0.3507
  191POPC   H2X22027   5.217   2.094   7.257 -2.1639  1.2722 -0.5201
  191POPC   H2Y22028   5.217   1.929   7.191  0.3921 -0.6395 -1.4139
  191POPC   C2322029   5.199   2.489   7.104  0.5276  0.3253  0.7717
  191POPC   H3R22030   5.263   2.564   7.156  2.5485 -0.1606 -0.8752
  191POPC   H3S22031   5.261   2.397   7.120  0.1225 -0.3197 -1.1461
  191POPC   C2422032   5.071   2.473   7.179 -0.1918 -0.2563  0.3721
  191POPC   H4R22033   5.003   2.417   7.111  1.2797 -0.3047 -1.1249
  191POPC   H4S22034   5.021   2.571   7.197  0.6386  0.1826  0.3146
  191POPC   C2522035   5.088   2.409   7.315 -0.3180  0.0460 -0.5563
  191POPC   H5R22036   5.159   2.324   7.324 -0.0668  0.4589  1.9566
  191POPC   H5S22037   4.990   2.371   7.350 -0.6466  1.2770 -0.0994
  191POPC   C2622038   5.130   2.509   7.421  0.0829 -0.3040  0.4611
  191POPC   H6R22039   5.097   2.614   7.414 -1.8113 -0.9329 -1.0114
  191POPC   H6S22040   5.241   2.518   7.413  0.1008 -1.8294 -3.5707
  191POPC   C2722041   5.104   2.475   7.575 -0.0639  0.6488  0.6841
  191POPC   H7R22042   5.179   2.395   7.596 -0.3645  0.0730 -0.3677
  191POPC   H7S22043   5.001   2.435   7.584 -0.3257  0.8486 -0.9933
  191POPC   C2822044   5.148   2.597   7.669 -1.0578 -0.7671 -0.0724
  191POPC   H8R22045   5.095   2.692   7.646 -0.7813 -0.3026  1.1382
  191POPC   H8S22046   5.249   2.627   7.635 -0.6418 -1.1945  0.7511
  191POPC   C2922047   5.142   2.561   7.814 -0.0480  0.5654 -0.5193
  191POPC   H9122048   5.067   2.483   7.836 -0.7710  1.8401  1.8102
  191POPC  C21022049   5.230   2.609   7.909  0.0989 -0.5804  1.0606
  191POPC  H10122050   5.205   2.580   8.012  0.9520  1.3905  1.8671
  191POPC  C21122051   5.341   2.705   7.893 -0.4797  0.5333  0.4150
  191POPC  H11R22052   5.340   2.739   7.787 -3.8466  0.6820  0.3804
  191POPC  H11S22053   5.441   2.673   7.928 -0.4053 -0.7309 -0.8734
  191POPC  C21222054   5.315   2.835   7.961  0.7904  0.1797 -0.4769
  191POPC  H12R22055   5.326   2.832   8.072  2.2037 -0.2795 -0.6108
  191POPC  H12S22056   5.216   2.881   7.943 -0.0489 -2.0325 -1.8635
  191POPC  C21322057   5.420   2.946   7.941 -0.6153 -0.3570 -0.0805
  191POPC  H13R22058   5.434   2.959   7.832 -1.1796  0.5149 -0.0571
  191POPC  H13S22059   5.516   2.918   7.990  0.1721  0.7641 -0.9456
  191POPC  C21422060   5.381   3.076   8.002  0.1989 -0.2861  0.1746
  191POPC  H14R22061   5.361   3.070   8.111 -0.6052  1.4977  0.1761
  191POPC  H14S22062   5.283   3.111   7.962  1.0503 -0.8557 -2.5883
  191POPC  C21522063   5.476   3.184   7.962 -0.0224  0.3307  0.0312
  191POPC  H15R22064   5.475   3.207   7.853 -1.2205  0.0496 -0.0305
  191POPC  H15S22065   5.579   3.150   7.985 -0.5036  0.3023  2.3688
  191POPC  C21622066   5.448   3.317   8.040  0.4585 -0.1532 -0.3325
  191POPC  H16R22067   5.446   3.296   8.149  1.7385 -1.0778 -0.4591
  191POPC  H16S22068   5.345   3.347   8.011  0.4469 -0.9566 -1.1748
  191POPC  C21722069   5.532   3.434   7.990 -0.6087 -0.6958  0.1325
  191POPC  H17R22070   5.507   3.456   7.884 -3.3015 -1.2160  0.5883
  191POPC  H17S22071   5.637   3.401   8.005 -0.4692  0.4822  2.0243
  191POPC  C21822072   5.524   3.565   8.077 -0.1292 -0.3684  0.2666
  191POPC  H18R22073   5.536   3.551   8.186  0.9724  0.7772  0.3187
  191POPC  H18S22074   5.424   3.611   8.062  0.5970  1.0698 -0.4563
  191POPC  H18T22075   5.602   3.632   8.034 -0.0584 -1.3464 -1.1998
  191POPC   C3322076   5.010   2.013   7.233 -0.5956  0.0193 -0.1289
  191POPC   H3X22077   4.962   1.961   7.147  0.6274  0.7972 -1.3196
  191POPC   H3Y22078   4.963   2.113   7.242 -1.0463 -0.0586 -1.4544
  191POPC   C3422079   4.986   1.932   7.362  0.2720 -0.0065 -0.4107
  191POPC   H4X22080   5.035   1.832   7.363  0.4000  0.0598  0.7289
  191POPC   H4Y22081   4.877   1.911   7.371  0.4968 -0.1333  5.2866
  191POPC   C3522082   5.028   2.000   7.489 -0.3888 -0.2340 -0.4070
  191POPC   H5X22083   4.971   2.095   7.498 -1.9410 -1.2471  0.9249
  191POPC   H5Y22084   5.137   2.016   7.475 -0.2124 -0.9726  0.0885
  191POPC   C3622085   4.983   1.913   7.616 -0.5512 -0.2655  0.3242
  191POPC   H6X22086   5.030   1.813   7.608 -1.8304 -0.7422 -2.1107
  191POPC   H6Y22087   4.873   1.904   7.608 -0.6580  1.6649 -1.2546
  191POPC   C3722088   5.030   1.980   7.743 -0.0361 -0.3454  0.0456
  191POPC   H7X22089   4.981   2.077   7.768  0.9901 -0.0623  1.0854
  191POPC   H7Y22090   5.133   2.017   7.723 -0.6910  0.8925 -1.2204
  191POPC   C3822091   5.021   1.897   7.867 -0.4987  0.1502 -0.5667
  191POPC   H8X22092   5.087   1.808   7.860  1.6501  1.5597  0.4848
  191POPC   H8Y22093   4.915   1.865   7.876 -0.8084  1.3746  0.4259
  191POPC   C3922094   5.057   1.972   7.998 -0.1884 -0.5423 -0.5159
  191POPC   H9X22095   4.974   2.041   8.022  2.5446  2.4093  1.2153
  191POPC   H9Y22096   5.146   2.039   7.989 -0.3473 -0.2624 -0.0357
  191POPC  C31022097   5.075   1.876   8.118  0.1077  0.1674 -1.1786
  191POPC  H10X22098   5.159   1.804   8.112 -1.3162 -1.5827 -1.0358
  191POPC  H10Y22099   4.989   1.806   8.131  2.2309 -2.5700 -0.9263
  191POPC  C31122100   5.112   1.933   8.259 -0.0193  0.1127 -0.3324
  191POPC  H11X22101   5.052   2.026   8.266  0.5277  0.4237  0.4355
  191POPC  H11Y22102   5.219   1.963   8.264  0.3540 -1.3163  1.2807
  191POPC  C31222103   5.095   1.840   8.382  0.5763  0.7952 -0.6206
  191POPC  H12X22104   5.157   1.753   8.352 -1.4278 -0.5442 -1.0718
  191POPC  H12Y22105   4.990   1.803   8.379  0.6413  0.5698 -0.2015
  191POPC  C31322106   5.118   1.895   8.526  1.0408  0.8812  0.2013
  191POPC  H13X22107   5.016   1.894   8.570  0.2650 -1.3167 -1.5031
  191POPC  H13Y22108   5.150   2.002   8.531 -0.6229  1.5172 -1.7326
  191POPC  C31422109   5.207   1.804   8.610 -0.3228  0.1932  0.2737
  191POPC  H14X22110   5.197   1.846   8.712  0.4208 -0.3376  0.5777
  191POPC  H14Y22111   5.310   1.823   8.570 -0.7952  1.6451 -0.3347
  191POPC  C31522112   5.164   1.657   8.612 -0.3039 -0.0995  0.1922
  191POPC  H15X22113   5.238   1.600   8.673 -0.9747 -2.4589 -1.0756
  191POPC  H15Y22114   5.168   1.609   8.512  0.5335 -0.5730  0.4419
  191POPC  C31622115   5.033   1.627   8.676  0.0745  0.4109 -0.2060
  191POPC  H16X22116   5.017   1.695   8.762  0.1456 -1.0985  1.0509
  191POPC  H16Y22117   5.028   1.524   8.719 -0.2806 -0.0229 -1.2652
  191POPC  H16Z22118   4.949   1.654   8.609  0.3000 -0.1715 -0.7411
  192POPC     N22119   4.148   5.200   6.317 -0.6487  0.9540  0.2339
  192POPC   C1222120   4.217   5.088   6.238  0.3955  0.0616 -0.1632
  192POPC  H12A22121   4.274   5.133   6.159 -1.3032 -0.3130 -1.6660
  192POPC  H12B22122   4.138   5.032   6.190 -0.7041  0.6920  0.8525
  192POPC   C1322123   4.046   5.137   6.414 -0.3454  0.0251  0.2775
  192POPC  H13A22124   4.095   5.088   6.497  1.8561  1.1731 -0.2639
  192POPC  H13B22125   3.995   5.223   6.455  2.6336  0.8393  2.7130
  192POPC  H13C22126   3.976   5.077   6.358 -0.8732  0.7835  0.1233
  192POPC   C1422127   4.251   5.281   6.391  0.1678  0.1735 -0.2614
  192POPC  H14A22128   4.319   5.327   6.322  1.7243  0.9220  1.6584
  192POPC  H14B22129   4.199   5.361   6.444 -0.9977 -1.5937  1.4155
  192POPC  H14C22130   4.313   5.221   6.456 -0.4412  0.6077  0.7531
  192POPC   C1522131   4.064   5.280   6.225 -0.8324  0.5602 -0.5560
  192POPC  H15A22132   3.982   5.223   6.183 -1.1114  2.1892 -2.3626
  192POPC  H15B22133   4.129   5.310   6.145  2.4004 -3.8987  0.0485
  192POPC  H15C22134   4.022   5.365   6.277 -0.1958 -0.5513  1.9130
  192POPC   C1122135   4.316   4.990   6.309 -0.3475  0.2429  0.0195
  192POPC  H11A22136   4.332   4.898   6.248  2.1798  0.5174  0.1356
  192POPC  H11B22137   4.269   4.960   6.405  0.5125  0.2575  0.4583
  192POPC     P22138   4.541   5.072   6.222 -0.0210  0.0125  0.2840
  192POPC   O1322139   4.486   5.176   6.124  0.4783  0.3800  0.2942
  192POPC   O1422140   4.586   4.945   6.174 -0.0736  1.1997 -0.0912
  192POPC   O1222141   4.442   5.051   6.343 -0.2958 -0.7328  0.0932
  192POPC   O1122142   4.666   5.143   6.290  0.1245  0.0199  0.2446
  192POPC    C122143   4.664   5.220   6.407  0.1699 -0.1388  0.3747
  192POPC    HA22144   4.643   5.147   6.489  3.3275 -1.3715  0.2271
  192POPC    HB22145   4.576   5.286   6.401 -1.0537 -1.7438 -0.0873
  192POPC    C222146   4.792   5.293   6.450 -0.0440  0.0106 -0.1965
  192POPC    HS22147   4.818   5.360   6.365 -2.1187  2.7073  1.1536
  192POPC   O2122148   4.892   5.194   6.478  0.1959  0.8945 -0.0626
  192POPC   C2122149   5.015   5.239   6.494  0.3252 -0.2526  0.5638
  192POPC   O2222150   5.047   5.355   6.460  0.5662  0.8569  0.2247
  192POPC   C2222151   5.111   5.129   6.548 -0.1170  0.3870 -0.0660
  192POPC   H2R22152   5.209   5.181   6.557  1.2312 -1.7637 -1.6370
  192POPC   H2S22153   5.122   5.054   6.467 -0.2716  1.3782 -1.0312
  192POPC    C322154   4.760   5.379   6.573 -0.5769 -0.5383  1.0089
  192POPC    HX22155   4.672   5.445   6.551 -0.7189 -0.1117  2.7400
  192POPC    HY22156   4.846   5.449   6.578 -0.4819 -0.4923 -0.7091
  192POPC   O3122157   4.750   5.307   6.699  0.7077  0.0303 -0.1194
  192POPC   C3122158   4.635   5.332   6.771 -0.1245 -0.2375 -0.0402
  192POPC   O3222159   4.546   5.401   6.737 -0.4940 -0.5823  0.1539
  192POPC   C3222160   4.665   5.278   6.912 -0.1970 -0.1084 -0.3121
  192POPC   H2X22161   4.770   5.244   6.926 -0.9835 -2.0280  1.4992
  192POPC   H2Y22162   4.605   5.185   6.913  0.3377 -0.5364 -2.2925
  192POPC   C2322163   5.061   5.073   6.679 -0.3315  0.2697 -0.0920
  192POPC   H3R22164   5.124   4.984   6.700 -1.7178 -0.8031 -0.3535
  192POPC   H3S22165   4.960   5.031   6.660 -0.0636 -0.8049  0.8237
  192POPC   C2422166   5.065   5.176   6.794  0.1468  0.7937 -0.3043
  192POPC   H4R22167   4.969   5.233   6.792 -1.0244 -1.0947 -2.1797
  192POPC   H4S22168   5.147   5.249   6.776 -0.8430  1.8887 -0.5657
  192POPC   C2522169   5.092   5.117   6.927  0.6325  0.4559 -0.3793
  192POPC   H5R22170   5.200   5.094   6.927  0.4620 -0.4388 -1.0641
  192POPC   H5S22171   5.043   5.018   6.943  1.8003 -0.5308 -2.5112
  192POPC   C2622172   5.061   5.215   7.041  0.3073  0.9230  0.2466
  192POPC   H6R22173   4.952   5.236   7.036 -0.0654 -0.3185  2.0673
  192POPC   H6S22174   5.115   5.310   7.022  0.1197  0.6625 -1.9044
  192POPC   C2722175   5.087   5.163   7.178 -0.7508  0.4680 -0.2883
  192POPC   H7R22176   5.190   5.126   7.196 -1.1530 -0.2685  0.6207
  192POPC   H7S22177   5.033   5.067   7.191  1.3872 -0.6130  1.3598
  192POPC   C2822178   5.038   5.261   7.291 -0.7827 -0.2061  0.1696
  192POPC   H8R22179   5.038   5.199   7.383  0.8954 -0.4481  0.0324
  192POPC   H8S22180   4.941   5.311   7.271  0.2025  1.4323 -0.7685
  192POPC   C2922181   5.135   5.372   7.321  0.0353 -1.1617 -0.3895
  192POPC   H9122182   5.233   5.373   7.272 -0.5500  2.7279 -1.8282
  192POPC  C21022183   5.100   5.480   7.390  0.5611  0.0630 -0.3906
  192POPC  H10122184   5.170   5.564   7.401 -0.1087  0.4212  1.7361
  192POPC  C21122185   4.962   5.523   7.447 -0.3039  1.5264  0.5080
  192POPC  H11R22186   4.981   5.585   7.537 -0.6003  0.4825  1.3122
  192POPC  H11S22187   4.905   5.433   7.480  1.8154 -0.6332 -1.3121
  192POPC  C21222188   4.879   5.594   7.341 -0.1900 -0.6868  0.1999
  192POPC  H12R22189   4.776   5.555   7.357 -0.9484  0.3229 -1.8982
  192POPC  H12S22190   4.915   5.560   7.242 -0.8714  0.0402 -0.3059
  192POPC  C21322191   4.875   5.747   7.376 -0.1965 -0.3947 -0.6129
  192POPC  H13R22192   4.981   5.775   7.358 -0.5869  2.4976  1.0518
  192POPC  H13S22193   4.843   5.767   7.480 -0.8564  1.5619 -1.1551
  192POPC  C21422194   4.790   5.827   7.271  0.3557  0.6940  0.1554
  192POPC  H14R22195   4.689   5.782   7.276  0.6198  0.0418 -0.3522
  192POPC  H14S22196   4.836   5.796   7.175  0.0518 -3.5666  1.2041
  192POPC  C21522197   4.776   5.972   7.302 -0.0404 -0.0751  0.6726
  192POPC  H15R22198   4.868   6.031   7.283  1.2485 -2.0163  0.6030
  192POPC  H15S22199   4.757   5.994   7.409  0.1602  0.9633  0.5009
  192POPC  C21622200   4.659   6.032   7.219 -0.0578 -0.1042 -0.5850
  192POPC  H16R22201   4.572   6.011   7.284 -0.2691 -0.2206 -0.9030
  192POPC  H16S22202   4.647   5.985   7.119 -1.7255  2.4627 -1.6960
  192POPC  C21722203   4.677   6.184   7.200 -0.0386  0.1314 -0.0076
  192POPC  H17R22204   4.591   6.213   7.136 -0.0117  0.8403  0.2645
  192POPC  H17S22205   4.767   6.184   7.135 -0.0429 -0.1547 -0.0123
  192POPC  C21822206   4.709   6.265   7.324 -0.1961 -0.5552 -0.5010
  192POPC  H18R22207   4.693   6.373   7.303  0.5056 -0.6344 -1.5126
  192POPC  H18S22208   4.817   6.255   7.347  0.2645  2.3978 -0.9146
  192POPC  H18T22209   4.654   6.237   7.416 -1.1797  0.0524 -0.8861
  192POPC   C3322210   4.603   5.354   7.026  0.0587  0.7522 -0.6366
  192POPC   H3X22211   4.494   5.365   7.006  0.3368  1.3699 -1.9619
  192POPC   H3Y22212   4.638   5.459   7.038 -1.9474  1.1953  2.7258
  192POPC   C3422213   4.615   5.276   7.155 -0.1288 -0.4712 -0.0065
  192POPC   H4X22214   4.721   5.267   7.186 -0.2027  0.0075  0.4088
  192POPC   H4Y22215   4.569   5.176   7.141  2.1419 -1.3791 -1.3976
  192POPC   C3522216   4.565   5.353   7.275 -0.0523 -0.5248  0.0408
  192POPC   H5X22217   4.459   5.381   7.261  0.4363  0.8387 -1.2012
  192POPC   H5Y22218   4.624   5.446   7.289 -0.7495  0.0945 -1.0236
  192POPC   C3622219   4.583   5.277   7.404  0.2666 -0.2291  0.6911
  192POPC   H6X22220   4.686   5.238   7.416  0.2476 -0.9451 -1.2099
  192POPC   H6Y22221   4.509   5.194   7.403 -0.1243  0.0923  1.6995
  192POPC   C3722222   4.564   5.365   7.525  0.6331 -0.5528 -0.3818
  192POPC   H7X22223   4.470   5.422   7.511 -1.5476 -3.6049  0.5967
  192POPC   H7Y22224   4.644   5.440   7.543  2.3949 -2.4282 -0.0340
  192POPC   C3822225   4.528   5.286   7.655  0.1257 -1.4329  0.3994
  192POPC   H8X22226   4.448   5.211   7.639 -1.4708  0.2920 -0.0348
  192POPC   H8Y22227   4.492   5.356   7.734  1.1802 -0.2309 -0.1468
  192POPC   C3922228   4.639   5.208   7.709  0.0733 -0.0928 -0.4227
  192POPC   H9X22229   4.725   5.278   7.707 -0.3071  0.3949 -0.1974
  192POPC   H9Y22230   4.660   5.124   7.639 -4.1646 -0.5402 -1.4476
  192POPC  C31022231   4.598   5.148   7.844 -0.1311 -0.1674  1.0004
  192POPC  H10X22232   4.538   5.222   7.901 -0.5450 -0.1168  0.5082
  192POPC  H10Y22233   4.681   5.122   7.913  0.0919 -0.0134  0.7925
  192POPC  C31122234   4.507   5.024   7.832 -0.6474  1.1259 -0.5220
  192POPC  H11X22235   4.562   4.943   7.779  2.5361  0.7952  2.8985
  192POPC  H11Y22236   4.414   5.048   7.777 -1.2490 -1.4139 -0.7266
  192POPC  C31222237   4.479   4.974   7.971  0.2155 -0.0129  0.8365
  192POPC  H12X22238   4.453   5.053   8.044  0.3221  0.2080  0.6407
  192POPC  H12Y22239   4.580   4.939   8.002  0.8889  0.6894 -0.4752
  192POPC  C31322240   4.387   4.853   7.985 -0.0568  0.3321  0.2118
  192POPC  H13X22241   4.396   4.776   7.905 -0.1936 -2.9973  3.1815
  192POPC  H13Y22242   4.279   4.880   7.976 -0.1813 -0.5387 -1.0935
  192POPC  C31422243   4.414   4.774   8.115 -0.4501 -0.0820 -0.0995
  192POPC  H14X22244   4.394   4.838   8.203  0.3692 -1.6933  1.3137
  192POPC  H14Y22245   4.520   4.746   8.127 -1.0236 -1.5445  1.9296
  192POPC  C31522246   4.335   4.646   8.120 -0.4777  0.3692 -0.7866
  192POPC  H15X22247   4.369   4.581   8.037  0.0338  0.2472 -0.4854
  192POPC  H15Y22248   4.225   4.661   8.116 -0.7718 -1.8951 -2.8531
  192POPC  C31622249   4.372   4.567   8.250 -0.1410  0.0240 -0.2257
  192POPC  H16X22250   4.348   4.624   8.342 -2.2146  0.0582 -0.7516
  192POPC  H16Y22251   4.480   4.541   8.253  0.1376  1.0303 -0.8998
  192POPC  H16Z22252   4.303   4.480   8.242  1.8331 -1.5228 -1.7011
  193SOD    SOD22253   2.442   3.111  11.386  0.1452  0.1877 -0.4360
  194SOD    SOD22254   1.097   1.461  11.536 -0.2682  0.0563  0.0957
  195SOD    SOD22255   1.640   0.874  11.963  0.3545  0.1100 -0.2420
  196SOD    SOD22256   4.170   4.380  13.612  0.0368 -0.1705  0.2501
  197SOD    SOD22257   1.363   3.645  14.981  0.2634  0.1471 -0.2664
  198SOD    SOD22258   2.223   6.065  10.993 -0.2083  0.3355  0.2379
  199SOD    SOD22259   1.561   3.683  11.560  0.0772 -0.0581  0.0718
  200SOD    SOD22260   1.444   2.203  15.641 -0.5782 -0.4329 -0.7745
  201SOD    SOD22261   0.986   0.810  13.438  0.3637  0.4506  0.1720
  202SOD    SOD22262   2.648   0.070  11.883 -0.0506  0.5138  0.1745
  203SOD    SOD22263   6.435   6.017  11.208 -0.3077  0.3194  0.1941
  204SOD    SOD22264   3.326   0.162   5.891  0.4679  0.1093 -0.1466
  205SOD    SOD22265   0.263   6.733   5.513  0.0601 -0.3752  0.2404
  206SOD    SOD22266   5.919   3.632   5.904 -0.1275  0.4722  0.0484
  207SOD    SOD22267   2.763   6.441  13.840  0.6309  0.3376  0.3624
  208SOD    SOD22268   3.649   4.346   2.975  0.2463  0.3588 -0.2586
  209SOD    SOD22269   3.521   2.718  11.061 -0.1458  0.3964 -0.0630
  210SOD    SOD22270   1.957   2.296   3.593  0.4585  0.2738 -0.2501
  211SOD    SOD22271   0.057   2.431   2.583 -0.1391 -0.2088 -0.0260
  212SOD    SOD22272   5.109   1.027   4.329  0.0754 -0.3868  0.2321
  213SOD    SOD22273   3.068   2.334   4.787 -0.1923 -0.5739  0.2382
  214SOD    SOD22274   0.248   5.669  16.867  0.0343 -0.1162  0.4032
  215SOD    SOD22275   2.201   0.262   2.316 -0.4569  0.1734  0.0164
  216SOD    SOD22276   1.367   4.796  11.137 -0.4227 -0.3854  0.3428
  217SOD    SOD22277   1.566   5.954  15.016  0.5023  0.0144  0.6880
  218SOD    SOD22278   3.886   2.204   4.636 -0.2521 -0.0571 -0.0679
  219SOD    SOD22279   1.631   2.121  12.003 -0.4286  0.0782 -0.0975
  220SOD    SOD22280   0.716   1.095   2.642  0.1799  0.4385  0.3354
  221SOD    SOD22281   2.450   0.929   6.351  0.4411 -0.0655  0.2625
  222SOD    SOD22282   2.371   0.703   5.559  0.4001 -0.3049  0.2087
  223SOD    SOD22283   1.990   3.254   3.991  0.1467 -0.2646 -0.0799
  224SOD    SOD22284   5.885   4.167   3.881  0.1629  0.0969 -0.1442
  225SOD    SOD22285   0.258   1.336   6.134 -0.0608 -0.7652 -0.5750
  226SOD    SOD22286   2.909   1.129   0.006 -0.0350  0.2881  0.2624
  227SOD    SOD22287   2.867   6.013  16.767  0.2716  0.2566 -0.3650
  228SOD    SOD22288   5.902   4.788   5.885 -0.0319 -0.0862 -0.0555
  229SOD    SOD22289   2.745   4.866   4.643  0.5378 -0.1321  0.4473
  230SOD    SOD22290   1.471   5.845   1.159 -0.0834 -0.6485  0.1914
  231SOD    SOD22291   2.594   5.620   2.842  0.2279  0.0589  0.1051
  232SOD    SOD22292   6.706   6.771  10.789 -0.4294 -0.5799 -0.1047
  233SOD    SOD22293   6.387   6.453  15.922  0.0662  0.0952  0.0708
  234SOD    SOD22294   2.541   6.432  13.061  0.5618 -0.3030  0.0884
  235SOD    SOD22295   4.041   1.867   5.148  0.5188  0.3522  0.2278
  236SOD    SOD22296   0.294   3.714  15.365 -0.3319 -0.0856  0.2220
  237SOD    SOD22297   4.834   0.076   5.887 -0.1627  0.2902 -0.3363
  238SOD    SOD22298   2.174   4.703  13.407  0.0082  0.1951  0.0973
  239SOD    SOD22299   4.069   1.110  10.683  0.0682 -0.1068 -0.1297
  240SOD    SOD22300   1.271   2.788  16.664 -0.0078 -0.0795  0.7675
  241SOD    SOD22301   5.637   5.914  13.985 -0.1845  0.0293  0.1096
  242SOD    SOD22302   5.862   1.710  15.307  0.0827 -0.1793  0.1708
  243SOD    SOD22303   1.807   4.721   0.428 -0.2435  0.2701  0.0400
  244SOD    SOD22304   0.264   5.786   4.213  0.2738 -0.2770 -0.0554
  245SOD    SOD22305   0.895   0.003  14.712  0.4475  0.1114  0.4241
  246SOD    SOD22306   3.838   3.172  12.293  0.9044  0.3669 -0.2770
  247SOD    SOD22307   2.209   6.570  12.201  0.2558  0.3610  0.1174
  248SOD    SOD22308   6.767   0.020   3.715  0.1172 -0.4782  0.2716
  249SOD    SOD22309   5.582   2.420   6.399 -0.1767 -0.2532  0.1109
  250SOD    SOD22310   6.488   1.142   0.438 -0.2639  0.0913 -0.2000
  251SOD    SOD22311   6.270   6.612  13.492  0.1941 -0.4491 -0.2552
  252SOD    SOD22312   5.397   0.514  12.819 -0.0500  0.2939  0.1923
  253SOD    SOD22313   2.878   5.852  12.030  0.0568  0.1682 -0.1937
  254SOD    SOD22314   5.826   4.464  13.537 -0.5124 -0.5383  0.2212
  255SOD    SOD22315   6.776   3.087  16.256 -0.5186 -0.0159 -0.1259
  256SOD    SOD22316   5.396   6.171   1.976 -0.1164 -0.5449 -0.0330
  257SOD    SOD22317   6.497   1.321   0.986  0.2022 -0.0515 -0.7348
  258SOD    SOD22318   6.468   2.454   4.176  0.2729  0.0917  0.1332
  259SOD    SOD22319   6.189   1.520  12.151  0.4969  0.4384 -0.1807
  260SOD    SOD22320   0.268   6.716  12.845 -0.3223 -0.1591  0.2495
  261SOD    SOD22321   4.128   5.947  16.088  0.2049 -0.0159  0.2414
  262SOD    SOD22322   4.046   4.900  13.319  0.2034  0.2814  0.4190
  263SOD    SOD22323   4.086   4.153   5.355 -0.2060 -0.0300  0.1769
  264SOD    SOD22324   1.094   2.879   6.037 -0.4083 -0.3579 -0.3852
  265SOD    SOD22325   2.449   2.328  10.779  0.3206 -0.3341 -0.4222
  266SOD    SOD22326   6.449   2.502   1.301 -0.0174  0.1627  0.2320
  267SOD    SOD22327   1.703   3.625  10.950  0.5929  0.1602  0.1255
  268SOD    SOD22328   3.748   3.408   5.761 -0.1405 -0.0331 -0.0601
  269SOD    SOD22329   5.624   4.362   6.010  0.1365  0.3352  0.5188
  270CLA    CLA22330   0.469   1.494  13.412 -0.0910  0.0356  0.2879
  271CLA    CLA22331   5.746   4.825   4.202 -0.1864  0.6705 -0.1567
  272CLA    CLA22332   3.716   2.497  11.477  0.3924  0.1276  0.0408
  273CLA    CLA22333   5.375   0.162   5.930  0.3995  0.3435  0.1187
  274CLA    CLA22334   1.327   6.509   1.843 -0.1332 -0.7283 -0.1095
  275CLA    CLA22335   4.021   3.025   4.891  0.2195  0.2466 -0.0219
  276CLA    CLA22336   6.533   0.701   2.116 -0.0655  0.3955  0.0094
  277CLA    CLA22337   4.750   1.345   1.235  0.3060 -0.2566  0.0326
  278CLA    CLA22338   6.084   0.105  12.243  0.2457 -0.0527 -0.3722
  279CLA    CLA22339   4.435   6.639  14.683  0.2305 -0.3799  0.3018
  280CLA    CLA22340   5.710   1.669  13.384 -0.1955 -0.2462  0.5920
  281CLA    CLA22341   3.353   4.145  13.670  0.2288 -0.2635  0.3370
  282CLA    CLA22342   3.378   2.824  15.525 -0.3564 -0.3267  0.1871
  283CLA    CLA22343   6.669   1.788   0.483 -0.2025  0.1088  0.0275
  284CLA    CLA22344   5.039   3.717   0.736 -0.0135  0.2908 -0.2606
  285CLA    CLA22345   3.830   1.983   3.211 -0.0096  0.0034 -0.1254
  286CLA    CLA22346   5.593   1.335  16.882 -0.4532 -0.0233  0.1890
  287CLA    CLA22347   3.976   3.742   4.798  0.4032  0.2918  0.0045
  288CLA    CLA22348   2.741   0.390   3.770 -0.1107  0.0337 -0.1298
  289CLA    CLA22349   4.515   4.547   0.134 -0.1117 -0.2277  0.0254
  290CLA    CLA22350   1.444   4.508  12.795 -0.1210 -0.3568 -0.0980
  291CLA    CLA22351   5.640   3.037  16.364 -0.7664  0.1739  0.0188
  292CLA    CLA22352   5.822   1.612  16.509 -0.3649 -0.2274 -0.5210
  293CLA    CLA22353   3.952   4.046   0.752 -0.0151  0.7211  0.1711
  294CLA    CLA22354   2.400   3.580   2.339  0.0196 -0.1236  0.1768
  295CLA    CLA22355   2.450   4.030   3.353 -0.3592  0.6825  0.0916
  296CLA    CLA22356   1.109   5.326  13.245 -0.0571 -0.1680 -0.1161
  297CLA    CLA22357   3.661   1.105  11.603  0.4805  0.4024  0.1728
  298CLA    CLA22358   0.811   1.338  13.781  0.1703  0.3080  0.1750
  299CLA    CLA22359   0.487   0.963  14.120  0.1313  0.0271 -0.1378
  300CLA    CLA22360   3.150   0.281  14.327  0.3684  0.0964  0.2539
  301CLA    CLA22361   2.949   3.652   3.667 -0.4492  0.6822  0.1290
  302CLA    CLA22362   2.829   0.364   5.890 -0.6568 -0.2844 -0.0496
  303CLA    CLA22363   4.815   1.769  16.373  0.0710  0.0647  0.5564
  304CLA    CLA22364   0.148   1.234   3.043 -0.3128  0.4418 -0.2217
  305CLA    CLA22365   5.618   4.389   3.268 -0.2263 -0.3096  0.1713
  306CLA    CLA22366   6.497   6.351   3.661  0.5197  0.3996  0.1240
  307CLA    CLA22367   1.531   1.263  13.397 -0.0697 -0.1525  0.2540
  308CLA    CLA22368   6.612   5.977  11.827  0.1416  0.0331 -0.2438
  309CLA    CLA22369   2.304   3.318  16.102  0.1093  0.7926  0.1218
  310CLA    CLA22370   0.269   1.248   2.401 -0.2212 -0.3933 -0.2582
  311CLA    CLA22371   0.990   3.978  11.861 -0.0152  0.0437 -0.3113
  312CLA    CLA22372   2.956   4.950  13.100 -0.1946  0.0694  0.3600
  313CLA    CLA22373   0.859   0.618  15.905  0.0300  0.0309  0.1857
  314CLA    CLA22374   0.496   2.429  16.041 -0.1443 -0.1705 -0.5346
  315CLA    CLA22375   5.225   3.195   4.991 -0.1577  0.1387  0.0621
  316CLA    CLA22376   6.231   4.180  15.274 -0.2242  0.1144  0.0930
  317CLA    CLA22377   5.761   4.906   4.908  0.1347  0.4114 -0.3111
  318CLA    CLA22378   1.951   5.791  13.191 -0.1441  0.5454  0.0411
  319CLA    CLA22379   1.224   4.374  14.479 -0.2644 -0.0525 -0.1950
  320CLA    CLA22380   1.103   6.143  15.162 -0.3366  0.0489  0.3652
  321CLA    CLA22381   4.426   1.918  12.532 -0.4461  0.0814  0.3503
  322CLA    CLA22382   6.558   1.008   3.533 -0.1897  0.0733 -0.0649
  323TIP3   OH222383   4.992   1.064   0.846 -0.0317  0.0499 -0.1042
  323TIP3    H122384   4.963   1.005   0.916  0.7205 -0.4093 -0.1705
  323TIP3    H222385   5.000   1.149   0.889 -0.4488 -0.0418  0.1575
  324TIP3   OH222386   1.417   5.993  16.265  0.3588  0.0113  0.0196
  324TIP3    H122387   1.333   5.963  16.300  1.6681 -1.1219  2.4352
  324TIP3    H222388   1.439   5.930  16.197 -0.1641 -0.4340  0.2578
  325TIP3   OH222389   4.562   6.165   0.269 -0.2982 -0.2711 -0.5371
  325TIP3    H122390   4.469   6.174   0.251 -1.1735 -2.1077  2.3901
  325TIP3    H222391   4.578   6.071   0.269  0.7546 -0.1800  2.0434
  326TIP3   OH222392   2.626   2.007   0.537 -0.3337 -0.3556 -0.5701
  326TIP3    H122393   2.645   1.926   0.585 -1.1181 -0.0879  0.2098
  326TIP3    H222394   2.693   2.069   0.567  0.1992 -0.6725 -1.0848
  327TIP3   OH222395   1.708   0.206  13.159 -0.0709 -0.2712  0.5371
  327TIP3    H122396   1.770   0.222  13.088 -0.6653 -0.9049 -0.1294
  327TIP3    H222397   1.630   0.171  13.116  0.2327 -2.5007  1.6581
  328TIP3   OH222398   1.587   3.942   0.585 -0.0896  0.6543 -0.6121
  328TIP3    H122399   1.664   3.904   0.541 -1.5904 -1.9109 -1.2497
  328TIP3    H222400   1.588   3.904   0.673 -2.2664 -2.1098 -1.6359
  329TIP3   OH222401   4.454   1.236   1.940  0.3352  0.7356  0.0570
  329TIP3    H122402   4.549   1.232   1.929  0.6028 -1.6299  2.3112
  329TIP3    H222403   4.420   1.177   1.873  0.3130  2.2183 -1.3054
  330TIP3   OH222404   4.760   0.265  15.512 -0.4538 -0.3661 -0.2119
  330TIP3    H122405   4.849   0.300  15.522 -1.2548  1.5791  0.6951
  330TIP3    H222406   4.769   0.196  15.446  1.7320 -0.3005 -0.0814
  331TIP3   OH222407   3.901   4.655  12.902 -0.2537 -0.4475  0.4991
  331TIP3    H122408   3.879   4.739  12.863 -1.6184 -1.6363 -1.4667
  331TIP3    H222409   3.862   4.590  12.844  0.3481 -2.4507  2.1894
  332TIP3   OH222410   4.461   1.750  13.684 -0.6786  0.3397 -0.2535
  332TIP3    H122411   4.505   1.811  13.744 -1.5577  1.1729 -0.4267
  332TIP3    H222412   4.406   1.696  13.741  0.1870 -0.3826 -0.0872
  333TIP3   OH222413   3.283   2.205   6.233  0.1520  0.1554 -0.0910
  333TIP3    H122414   3.361   2.153   6.216 -0.0024 -0.3659  0.7136
  333TIP3    H222415   3.242   2.162   6.308 -2.1602 -1.0345 -1.8670
  334TIP3   OH222416   3.647   5.642  12.110 -0.4245 -0.3815 -0.5182
  334TIP3    H122417   3.587   5.698  12.062  1.9050  0.7109 -2.3689
  334TIP3    H222418   3.668   5.571  12.050  1.9122  0.5686 -0.9702
  335TIP3   OH222419   5.839   0.720   0.274 -0.1537 -0.0633 -0.0041
  335TIP3    H122420   5.879   0.802   0.301 -1.0135  0.6718 -0.9225
  335TIP3    H222421   5.829   0.671   0.356 -1.1886  1.4430  0.8307
  336TIP3   OH222422   5.834   6.006  11.070  0.0029  0.0104  0.0825
  336TIP3    H122423   5.869   6.087  11.033 -1.3278  0.5990  0.0536
  336TIP3    H222424   5.887   5.937  11.030  2.3358  0.9107  1.4285
  337TIP3   OH222425   4.929   3.544  16.700 -0.6452  0.8869 -0.1375
  337TIP3    H122426   4.902   3.500  16.620 -0.8856  0.8762 -0.0515
  337TIP3    H222427   4.932   3.475  16.766 -0.1533  0.8431 -0.2064
  338TIP3   OH222428   4.006   0.294  13.338 -0.5705 -0.1302 -0.1927
  338TIP3    H122429   4.017   0.352  13.413  1.0998  0.7938 -1.1024
  338TIP3    H222430   4.012   0.351  13.261 -2.1972 -1.0523 -1.0669
  339TIP3   OH222431   3.549   2.743   3.953  0.1691 -0.4358  0.0942
  339TIP3    H122432   3.597   2.751   4.035 -0.9357 -1.1617  0.8592
  339TIP3    H222433   3.611   2.704   3.892  1.2798  0.9311  0.3059
  340TIP3   OH222434   4.699   5.486  16.637  0.1408  0.4011  0.3443
  340TIP3    H122435   4.760   5.514  16.568 -0.4943 -0.6609 -0.6749
  340TIP3    H222436   4.619   5.536  16.620  0.3306  0.9462  0.9955
  341TIP3   OH222437   4.296   6.414  10.727 -0.7397 -0.3405 -0.0983
  341TIP3    H122438   4.248   6.402  10.645  0.5889  0.2415 -0.9946
  341TIP3    H222439   4.388   6.413  10.701 -0.2736 -0.8024  1.4918
  342TIP3   OH222440   1.191   5.607  11.716  0.1156 -0.1987  0.7372
  342TIP3    H122441   1.201   5.621  11.810 -0.9094 -0.9988  0.9885
  342TIP3    H222442   1.096   5.598  11.703  0.1781  0.7145 -0.4948
  343TIP3   OH222443   3.092   2.522   3.177  0.1813 -0.6754  0.2218
  343TIP3    H122444   3.008   2.498   3.137  0.5060 -0.7361 -0.4476
  343TIP3    H222445   3.158   2.486   3.117  0.7051  2.2761 -1.1768
  344TIP3   OH222446   4.942   3.177  16.004  0.1769 -0.6737  0.1670
  344TIP3    H122447   5.021   3.212  15.963 -1.8949  1.3037 -2.5388
  344TIP3    H222448   4.936   3.087  15.972  1.8293 -1.2491  1.3334
  345TIP3   OH222449   6.538   2.990   0.226 -0.1115  0.0222  0.0565
  345TIP3    H122450   6.548   3.046   0.149 -1.3154  0.6902  0.3533
  345TIP3    H222451   6.497   2.910   0.193 -1.0232  0.4781  0.0428
  346TIP3   OH222452   2.628   3.110  11.258 -0.1514 -0.6228 -0.1436
  346TIP3    H122453   2.651   3.024  11.223 -1.0051 -0.7269 -0.4827
  346TIP3    H222454   2.709   3.160  11.258  0.4634 -1.5916  0.5216
  347TIP3   OH222455   2.237   1.125  13.582  0.2536  0.0390  0.0385
  347TIP3    H122456   2.155   1.100  13.541 -0.0149  1.7933 -0.5951
  347TIP3    H222457   2.305   1.091  13.524 -0.0614 -0.2132 -0.1788
  348TIP3   OH222458   3.805   3.495   2.475 -0.6513 -0.1056 -0.2124
  348TIP3    H122459   3.857   3.453   2.406  1.3701  2.2595 -0.2928
  348TIP3    H222460   3.729   3.438   2.487  0.0659 -1.7651 -2.7976
  349TIP3   OH222461   1.434   0.740  16.210 -0.2715 -0.3559  0.1643
  349TIP3    H122462   1.429   0.726  16.305 -3.0906  1.2304  0.3447
  349TIP3    H222463   1.524   0.770  16.195  0.1977 -0.5075  2.3245
  350TIP3   OH222464   0.836   4.746  13.425 -0.2007 -0.0827 -0.0010
  350TIP3    H122465   0.877   4.669  13.463  0.5601 -1.0131 -2.5623
  350TIP3    H222466   0.908   4.806  13.407 -0.5276  0.2684 -0.1668
  351TIP3   OH222467   2.174   0.795   5.599  0.6090  0.3263 -0.0524
  351TIP3    H122468   2.173   0.875   5.547  0.9932  0.9999  0.9289
  351TIP3    H222469   2.091   0.751   5.579  0.4541  0.9102 -0.6965
  352TIP3   OH222470   1.226   3.728   0.965  0.1947  0.2271  0.0778
  352TIP3    H122471   1.152   3.759   1.017 -1.3181  0.1252 -1.8863
  352TIP3    H222472   1.197   3.643   0.930  0.8020  0.6487 -1.5519
  353TIP3   OH222473   5.462   5.118   0.426 -0.8135  0.0556  0.1123
  353TIP3    H122474   5.522   5.158   0.488 -0.3317  0.5141 -0.6481
  353TIP3    H222475   5.468   5.024   0.445  1.0916 -0.0372 -0.7846
  354TIP3   OH222476   6.547   2.220  15.684 -0.0163 -0.0979 -0.3528
  354TIP3    H122477   6.509   2.215  15.771 -0.2758  0.7207 -0.4114
  354TIP3    H222478   6.561   2.313  15.669  0.9896 -0.3069 -0.7804
  355TIP3   OH222479   5.888   6.445  11.079 -0.0763  0.0562  0.2720
  355TIP3    H122480   5.812   6.504  11.083  0.7904  1.2869 -0.5828
  355TIP3    H222481   5.909   6.427  11.170  0.5166  2.2920  0.6325
  356TIP3   OH222482   0.781   3.947  11.482  0.0538 -0.3498 -0.3901
  356TIP3    H122483   0.724   3.888  11.433 -1.5754  1.2669 -0.5395
  356TIP3    H222484   0.741   4.034  11.471  1.2088  0.4792  1.5079
  357TIP3   OH222485   5.101   1.932   5.468  0.3159  0.0045  0.2917
  357TIP3    H122486   5.141   1.926   5.382  1.9076  0.7365  0.9472
  357TIP3    H222487   5.152   1.999   5.514 -0.6212 -0.2278  1.7325
  358TIP3   OH222488   0.377   4.776   3.574  0.2038 -0.5893  0.2065
  358TIP3    H122489   0.292   4.796   3.537  1.1471  0.1179 -1.6848
  358TIP3    H222490   0.360   4.763   3.668 -1.9993 -0.8155 -0.1808
  359TIP3   OH222491   2.499   1.126  15.071 -0.7689 -0.0822  0.3530
  359TIP3    H122492   2.588   1.129  15.105 -0.3957 -1.9320 -0.3020
  359TIP3    H222493   2.489   1.206  15.019  0.7603 -0.1597 -0.0963
  360TIP3   OH222494   1.345   1.119  15.871 -0.0658  0.7314 -0.2281
  360TIP3    H122495   1.369   1.177  15.943  0.2071 -0.0238  0.3089
  360TIP3    H222496   1.250   1.114  15.874 -0.1781  2.0932 -1.0424
  361TIP3   OH222497   5.766   4.614   2.162 -0.1186 -0.1421  0.4611
  361TIP3    H122498   5.743   4.677   2.231  0.9167  0.0119  0.6703
  361TIP3    H222499   5.738   4.656   2.081  2.1686  1.4319  0.4025
  362TIP3   OH222500   3.525   4.905  15.533  0.1504 -0.6187 -0.1254
  362TIP3    H122501   3.480   4.871  15.456 -1.0591 -2.7653  1.4282
  362TIP3    H222502   3.465   4.888  15.605  2.2903 -1.0769  1.6568
  363TIP3   OH222503   5.924   0.004  16.104  0.4141 -0.3052  0.1523
  363TIP3    H122504   5.970   0.038  16.027  1.2009 -1.0725  0.2707
  363TIP3    H222505   5.971  -0.076  16.127  0.0301 -0.2186  1.2930
  364TIP3   OH222506   1.994   4.205  12.914 -0.4082 -0.1109 -0.3566
  364TIP3    H122507   1.905   4.200  12.878 -0.5735  1.4676 -0.2247
  364TIP3    H222508   2.051   4.185  12.839 -0.8211  0.9775 -0.9919
  365TIP3   OH222509   4.026   2.667  16.406 -0.5091  0.2248  0.1257
  365TIP3    H122510   3.996   2.614  16.333  1.0829 -0.6253  0.0399
  365TIP3    H222511   4.019   2.610  16.483  1.6818 -0.3489 -0.0431
  366TIP3   OH222512   1.136   2.958  14.300 -0.2759  0.3941  0.1345
  366TIP3    H122513   1.075   2.997  14.238 -0.0423 -0.5262 -0.6962
  366TIP3    H222514   1.081   2.931  14.374 -0.8499 -0.1891 -0.4915
  367TIP3   OH222515   2.757   6.406  13.102  0.0363 -0.2591  0.4285
  367TIP3    H122516   2.814   6.457  13.160  0.9450  0.0928 -0.7463
  367TIP3    H222517   2.788   6.426  13.014 -1.5625 -0.4931 -0.2174
  368TIP3   OH222518   1.999   5.896  15.082  0.0736  0.2606  0.4084
  368TIP3    H122519   2.020   5.851  15.164 -1.3733 -0.8400  0.2249
  368TIP3    H222520   2.082   5.897  15.034  0.4120 -1.2419  0.8983
  369TIP3   OH222521   5.802   2.990   6.138 -0.1732 -0.0254 -0.1764
  369TIP3    H122522   5.824   2.909   6.092  2.6115  0.8016 -0.4997
  369TIP3    H222523   5.732   2.966   6.199 -0.3994 -2.3000 -1.2384
  370TIP3   OH222524   3.936   4.436   5.587  0.2591 -0.0568  0.6203
  370TIP3    H122525   3.968   4.476   5.506  1.7476  0.6180  1.5046
  370TIP3    H222526   4.015   4.410   5.634 -0.5928 -0.9421  1.6222
  371TIP3   OH222527   0.273   2.811  14.586 -0.0958  0.2403 -0.1990
  371TIP3    H122528   0.333   2.884  14.572 -0.0811  1.3398  4.1433
  371TIP3    H222529   0.201   2.826  14.524  0.5780  3.1393 -0.4078
  372TIP3   OH222530   1.220   2.625   4.838  0.3828 -0.6914 -0.1671
  372TIP3    H122531   1.168   2.646   4.760  0.5578 -0.8876 -0.3379
  372TIP3    H222532   1.158   2.627   4.910  0.0421 -1.4366 -0.4407
  373TIP3   OH222533   1.224   1.426   2.223 -0.1100 -0.4198 -0.5638
  373TIP3    H122534   1.152   1.470   2.268  0.4451 -0.3383  0.2691
  373TIP3    H222535   1.264   1.494   2.169 -1.0427 -0.6179 -1.5489
  374TIP3   OH222536   1.535   5.180   4.524 -0.2565  0.0291  0.1144
  374TIP3    H122537   1.505   5.149   4.438  1.0646 -0.2408 -0.2773
  374TIP3    H222538   1.628   5.158   4.526 -0.7719 -2.6548  2.7824
  375TIP3   OH222539   2.041   1.324   0.100 -0.1568 -0.0897 -0.1166
  375TIP3    H122540   2.104   1.394   0.082  0.3666  0.3539  2.9085
  375TIP3    H222541   2.091   1.243   0.086  0.7827  0.2419  1.1388
  376TIP3   OH222542   6.377   1.143   1.047  0.9631  0.1127 -0.0176
  376TIP3    H122543   6.370   1.064   0.994  0.7783  0.6936 -0.8783
  376TIP3    H222544   6.352   1.115   1.135 -0.2400 -0.5258 -0.5454
  377TIP3   OH222545   2.523   5.321   3.992  0.7257  0.1574 -0.0624
  377TIP3    H122546   2.523   5.264   3.915  1.2419 -0.9060  0.6872
  377TIP3    H222547   2.568   5.269   4.060  1.9126  1.7756  0.4385
  378TIP3   OH222548   3.477   1.048   4.096  0.2363 -0.2548 -0.1430
  378TIP3    H122549   3.426   1.061   4.016  1.3692 -0.5474 -0.9362
  378TIP3    H222550   3.474   1.132   4.141 -0.4349 -0.0995 -0.4730
  379TIP3   OH222551   4.181   1.135   2.086 -0.0665 -0.3544  0.0888
  379TIP3    H122552   4.260   1.169   2.128  0.8028  0.0225 -1.7184
  379TIP3    H222553   4.130   1.213   2.065 -1.2168 -0.6242  1.7094
  380TIP3   OH222554   2.234   2.275  14.352 -0.6353  0.2538 -0.1562
  380TIP3    H122555   2.327   2.258  14.335 -0.2615  2.2322 -0.3524
  380TIP3    H222556   2.228   2.279  14.447 -0.3499  0.9328 -0.1633
  381TIP3   OH222557   4.887   6.191  12.947 -0.2180  0.7104 -0.2725
  381TIP3    H122558   4.910   6.254  12.879 -0.0505  0.6254 -0.2959
  381TIP3    H222559   4.794   6.204  12.962 -0.3720  0.3618 -0.8982
  382TIP3   OH222560   3.063   4.561   4.889  0.4042  0.5665 -0.1018
  382TIP3    H122561   3.022   4.476   4.873  1.3333  0.1023 -0.0682
  382TIP3    H222562   3.041   4.581   4.980  1.3522 -0.3098  0.3308
  383TIP3   OH222563   6.696   0.934  12.811 -0.1068  0.3280 -0.1136
  383TIP3    H122564   6.786   0.956  12.836 -0.6360 -0.2161  2.6163
  383TIP3    H222565   6.694   0.838  12.811 -1.0241  0.3102  1.4692
  384TIP3   OH222566   3.589   4.350   5.405  0.5924  0.2785  0.7409
  384TIP3    H122567   3.627   4.395   5.481  0.1540  1.3857  0.3252
  384TIP3    H222568   3.657   4.289   5.377  1.5064  1.2177  0.8644
  385TIP3   OH222569   2.460   3.546  15.293  0.3920 -0.2958 -0.2763
  385TIP3    H122570   2.458   3.525  15.386 -0.1271  1.6814  0.2004
  385TIP3    H222571   2.553   3.548  15.271  0.5134 -3.5439 -0.5549
  386TIP3   OH222572   1.679   2.845   1.664  0.2426  0.3992 -0.1459
  386TIP3    H122573   1.668   2.764   1.613  0.3419  1.1699 -1.4218
  386TIP3    H222574   1.684   2.815   1.754  0.1139 -1.0180 -0.5800
  387TIP3   OH222575   5.057   0.562   1.108 -0.2445 -0.3366  0.1409
  387TIP3    H122576   5.134   0.620   1.105  1.8500 -2.9656 -1.2576
  387TIP3    H222577   5.014   0.584   1.190  1.9989  1.3051  0.9840
  388TIP3   OH222578   3.171   1.556   2.560 -0.3152 -0.6588  0.8087
  388TIP3    H122579   3.231   1.627   2.583 -0.3074 -0.6404  0.7340
  388TIP3    H222580   3.084   1.594   2.574 -0.3266 -0.3528 -0.0252
  389TIP3   OH222581   2.246   0.806   6.359 -0.7812  0.2412  0.2225
  389TIP3    H122582   2.155   0.779   6.368 -0.8641 -0.2930 -1.6469
  389TIP3    H222583   2.292   0.726   6.333 -0.5886  1.2289 -3.0166
  390TIP3   OH222584   1.902   6.563  17.151  0.0126  0.1147  0.1238
  390TIP3    H122585   1.810   6.561  17.127 -0.0278 -3.2590  0.0587
  390TIP3    H222586   1.928   6.654  17.140 -3.9101  1.8199  2.6821
  391TIP3   OH222587   6.730   0.324   4.769 -0.2757  0.6613 -0.1993
  391TIP3    H122588   6.810   0.359   4.806 -0.9288  1.0795  0.8721
  391TIP3    H222589   6.759   0.255   4.709  0.8204 -1.1417  2.2291
  392TIP3   OH222590   1.241   5.344   0.091 -0.2863  0.4068  0.4794
  392TIP3    H122591   1.277   5.309   0.172  0.0852 -0.0465  0.1293
  392TIP3    H222592   1.173   5.405   0.118 -0.6919 -0.3149  1.1183
  393TIP3   OH222593   1.571   0.944  13.080  0.2398  0.2166  0.7966
  393TIP3    H122594   1.572   0.857  13.040  0.0722 -0.1455  1.5709
  393TIP3    H222595   1.484   0.979  13.059  0.6696  0.6325 -0.4024
  394TIP3   OH222596   4.521   3.136  15.621  0.0227 -0.2277  0.6237
  394TIP3    H122597   4.435   3.095  15.608  0.4752 -1.0062  0.0726
  394TIP3    H222598   4.502   3.230  15.625 -0.5760 -0.1427 -2.1628
  395TIP3   OH222599   5.212   5.734  10.816 -0.7245 -0.4601 -0.0153
  395TIP3    H122600   5.224   5.663  10.753 -0.2320 -1.5866  1.2998
  395TIP3    H222601   5.297   5.777  10.820 -0.4308 -1.0862  0.6754
  396TIP3   OH222602   5.062   6.382  13.220  0.0638 -0.1400 -0.6194
  396TIP3    H122603   5.054   6.291  13.192  0.7160  0.3152 -2.4626
  396TIP3    H222604   5.118   6.379  13.297  0.1572 -1.2898 -0.7173
  397TIP3   OH222605   6.347   5.177   3.075 -0.1501  0.0933  0.0145
  397TIP3    H122606   6.319   5.106   3.017 -0.9440 -0.3288  0.8971
  397TIP3    H222607   6.427   5.211   3.034 -0.0221 -0.9912 -0.6667
  398TIP3   OH222608   0.097   2.601   5.387  0.1380 -0.4063  0.2610
  398TIP3    H122609   0.145   2.525   5.419  1.3707  0.9085  1.7122
  398TIP3    H222610   0.131   2.675   5.438 -1.3063  1.0725 -0.7792
  399TIP3   OH222611   2.158   1.566   4.293  0.3693 -0.1780 -0.5253
  399TIP3    H122612   2.190   1.478   4.274  0.9069 -0.1747  0.3235
  399TIP3    H222613   2.064   1.556   4.304  0.3670 -0.5678 -0.8656
  400TIP3   OH222614   5.818   5.669  15.560  0.6760 -0.2375  0.4562
  400TIP3    H122615   5.799   5.706  15.646  2.7270  1.2679  0.3247
  400TIP3    H222616   5.895   5.614  15.573 -0.3353 -1.8468 -0.0318
  401TIP3   OH222617   3.834   6.257  13.846 -0.3297 -0.2726  0.1938
  401TIP3    H122618   3.785   6.334  13.817  2.5182  0.6709 -2.7766
  401TIP3    H222619   3.912   6.293  13.888 -0.1112 -1.6276  1.0035
  402TIP3   OH222620   0.581   0.471  16.724  0.2780  0.1866 -0.1469
  402TIP3    H122621   0.619   0.399  16.673  0.4828 -0.1626  0.4842
  402TIP3    H222622   0.550   0.430  16.805  1.1869  0.9344  0.6087
  403TIP3   OH222623   2.115   2.532   3.102 -0.1265 -0.5772  0.1803
  403TIP3    H122624   2.110   2.577   3.186  1.2892  0.5038 -0.2659
  403TIP3    H222625   2.206   2.504   3.095 -0.5290 -1.8068 -0.4405
  404TIP3   OH222626   1.325   0.348   1.416 -0.4729  0.0539  0.5591
  404TIP3    H122627   1.323   0.344   1.320 -1.6299 -1.2093  0.6030
  404TIP3    H222628   1.400   0.295   1.441 -1.3634 -1.3226  0.3875
  405TIP3   OH222629   1.703   2.124  15.105  0.6493  0.5938  0.3396
  405TIP3    H122630   1.746   2.122  15.019 -1.0601  0.3629 -0.5442
  405TIP3    H222631   1.650   2.204  15.103 -0.5110 -0.1564  0.6175
  406TIP3   OH222632   3.316   0.054   3.682  0.0703  0.3726  0.1564
  406TIP3    H122633   3.340  -0.014   3.619 -1.3991 -0.4244  0.4301
  406TIP3    H222634   3.382   0.047   3.751  0.8370  0.2789 -0.5634
  407TIP3   OH222635   6.489   0.260   1.527 -0.7914 -0.1924 -0.0417
  407TIP3    H122636   6.515   0.168   1.534 -0.9861 -0.1204  2.3479
  407TIP3    H222637   6.490   0.278   1.433  3.2820 -1.4717 -0.4310
  408TIP3   OH222638   5.485   3.260   2.666 -0.0998  0.5292 -0.7926
  408TIP3    H122639   5.500   3.354   2.659 -1.0930  0.9286  1.4493
  408TIP3    H222640   5.406   3.252   2.719  0.9569 -1.5857  0.6260
  409TIP3   OH222641   3.594   2.255  12.225 -0.2672  0.1666 -0.0185
  409TIP3    H122642   3.602   2.317  12.297 -0.9439  0.3098 -0.0595
  409TIP3    H222643   3.684   2.237  12.199  0.0067 -0.1665  1.0906
  410TIP3   OH222644   4.485   2.859  14.581 -0.9717  0.4582  0.0742
  410TIP3    H122645   4.438   2.906  14.650  1.1056  0.0421  1.8913
  410TIP3    H222646   4.422   2.796  14.548 -1.8684  0.2340  2.0690
  411TIP3   OH222647   4.668   4.866   2.648 -0.0916 -0.4716  0.3490
  411TIP3    H122648   4.623   4.949   2.629 -1.5251 -1.6821 -1.9881
  411TIP3    H222649   4.680   4.867   2.743  0.0788  2.4493  0.4005
  412TIP3   OH222650   5.726   4.770  12.359  0.0586 -0.0121 -0.4766
  412TIP3    H122651   5.740   4.716  12.437 -1.3522 -0.2179 -0.3318
  412TIP3    H222652   5.680   4.847  12.391  2.4853  1.5878 -0.6087
  413TIP3   OH222653   0.944   3.014   2.836 -0.2823  0.1390  0.3190
  413TIP3    H122654   0.880   3.013   2.765 -1.6716  0.4883  1.5107
  413TIP3    H222655   1.029   3.017   2.792 -1.0501 -0.8274 -1.3198
  414TIP3   OH222656   3.049   5.603  16.375 -0.3115 -0.2909 -0.3362
  414TIP3    H122657   3.080   5.611  16.465  1.0412  2.4407 -0.9356
  414TIP3    H222658   2.954   5.592  16.383 -0.2995  0.5858  1.4292
  415TIP3   OH222659   4.808   2.898  11.788  0.0357 -0.1288  0.2937
  415TIP3    H122660   4.804   2.983  11.744  1.7554 -0.8319 -1.3343
  415TIP3    H222661   4.723   2.890  11.833 -0.7972  1.7168 -0.8566
  416TIP3   OH222662   5.441   4.523   3.509 -0.0129 -0.1522 -0.2121
  416TIP3    H122663   5.491   4.604   3.506 -1.2039  0.6127 -0.2453
  416TIP3    H222664   5.482   4.466   3.444  0.3059  0.7508 -0.8119
  417TIP3   OH222665   2.475   0.668   2.880  0.2121  0.2300 -0.0890
  417TIP3    H122666   2.486   0.608   2.954 -0.1534 -0.3980 -0.5365
  417TIP3    H222667   2.478   0.755   2.920  0.7596 -0.0775  0.5657
  418TIP3   OH222668   5.517   5.068  12.224  0.0868  0.0382 -0.0882
  418TIP3    H122669   5.480   5.027  12.302  0.0471  3.4013  1.8221
  418TIP3    H222670   5.611   5.055  12.232  0.0648  0.1871  0.4102
  419TIP3   OH222671   1.683   4.567   4.942 -0.3863  0.0564  0.2911
  419TIP3    H122672   1.616   4.630   4.970 -1.0947 -0.3719 -0.4063
  419TIP3    H222673   1.690   4.506   5.014  1.6491  1.9257  1.8082
  420TIP3   OH222674   4.078   2.897  14.106 -0.1619 -0.7438  0.2793
  420TIP3    H122675   3.999   2.843  14.110 -0.4171 -0.2932  1.9646
  420TIP3    H222676   4.135   2.851  14.045 -1.1842 -1.8110  0.0902
  421TIP3   OH222677   6.565   6.680  10.978  0.0482 -0.5627  0.1329
  421TIP3    H122678   6.490   6.724  11.018  1.7792  2.9447 -0.1326
  421TIP3    H222679   6.598   6.622  11.046 -0.3296  1.1793  1.8894
  422TIP3   OH222680   2.632   3.032  14.782  0.2029 -0.0157 -0.1156
  422TIP3    H122681   2.690   2.978  14.835 -1.1787 -1.2021  0.2460
  422TIP3    H222682   2.659   3.122  14.801  1.7313 -0.5171  0.2313
  423TIP3   OH222683   1.079   3.019   3.070 -0.4602 -0.6333 -0.4682
  423TIP3    H122684   1.161   2.979   3.043 -0.0680 -0.8350  0.9377
  423TIP3    H222685   1.029   3.029   2.989  1.8363  1.6819 -1.7159
  424TIP3   OH222686   4.858   4.757   2.448 -0.5268  0.5527 -0.0527
  424TIP3    H122687   4.853   4.674   2.400  0.1915  1.0490 -1.0185
  424TIP3    H222688   4.806   4.742   2.527 -1.0430 -0.5654 -0.5781
  425TIP3   OH222689   6.412   0.898  14.728 -0.5065  0.4407  0.4219
  425TIP3    H122690   6.481   0.851  14.775 -0.7465 -1.1959 -0.7627
  425TIP3    H222691   6.458   0.961  14.673 -0.0598  0.4530  0.8069
  426TIP3   OH222692   3.083   3.166   2.506 -0.3482 -0.7781  0.1141
  426TIP3    H122693   3.116   3.175   2.596 -1.5359  2.1197  0.3797
  426TIP3    H222694   2.991   3.142   2.517 -1.0272  1.4021 -0.1380
  427TIP3   OH222695   2.045   3.256  14.637 -0.1060 -0.7549 -0.5029
  427TIP3    H122696   2.088   3.256  14.722  0.3557 -0.6415 -0.7314
  427TIP3    H222697   2.059   3.344  14.602 -1.6323 -0.2954 -0.0407
  428TIP3   OH222698   2.692   4.506   1.817  0.3384 -0.1153  0.0763
  428TIP3    H122699   2.685   4.427   1.764 -1.5721  0.3072 -0.3608
  428TIP3    H222700   2.775   4.546   1.789 -0.1671 -0.3806 -1.9510
  429TIP3   OH222701   0.280   5.052  16.644  0.3933  0.5110 -0.6358
  429TIP3    H122702   0.296   4.963  16.677  2.7006  1.3260  0.6047
  429TIP3    H222703   0.198   5.044  16.594  0.2668 -2.1868 -0.1471
  430TIP3   OH222704   2.933   3.980  16.384 -0.2397  0.7273 -0.0471
  430TIP3    H122705   2.969   4.068  16.380  0.3080  0.4687 -2.1179
  430TIP3    H222706   3.010   3.923  16.380 -0.5489  0.1169  1.7916
  431TIP3   OH222707   3.005   5.595  10.455  0.3187  0.2750 -0.3312
  431TIP3    H122708   2.995   5.519  10.512 -1.9328  0.6771 -0.1177
  431TIP3    H222709   3.038   5.558  10.373  0.1992 -0.7965  0.0784
  432TIP3   OH222710   6.741   1.482   0.924 -0.0399  0.2572  0.0308
  432TIP3    H122711   6.735   1.390   0.899 -2.9246 -0.1877  1.8228
  432TIP3    H222712   6.765   1.481   1.017 -2.1265  1.1196  0.6459
  433TIP3   OH222713   0.555   0.432   1.712 -0.0551 -0.1362  0.4736
  433TIP3    H122714   0.532   0.521   1.738 -2.0189 -0.9879  1.9107
  433TIP3    H222715   0.642   0.418   1.749  0.8854  1.5920 -0.9373
  434TIP3   OH222716   1.033   4.954  15.864  0.4261 -0.2824 -0.5542
  434TIP3    H122717   1.084   4.995  15.934  1.1913 -0.8466 -0.7757
  434TIP3    H222718   1.004   4.871  15.902 -0.3431  0.0318 -0.4297
  435TIP3   OH222719   6.591   5.264  12.267  0.9021  0.3223  0.0482
  435TIP3    H122720   6.609   5.275  12.173  3.1709  0.0181  0.4003
  435TIP3    H222721   6.510   5.213  12.270  1.0801 -0.1368 -1.7650
  436TIP3   OH222722   1.299   4.307  10.663  0.8367  0.1918 -0.0786
  436TIP3    H122723   1.236   4.270  10.601 -1.0374  1.5475  0.9242
  436TIP3    H222724   1.346   4.232  10.698 -0.9499 -1.0050 -0.1162
  437TIP3   OH222725   1.576   2.378   4.810  0.6694  0.2618  0.4092
  437TIP3    H122726   1.609   2.384   4.899 -1.3315 -1.7237  1.3751
  437TIP3    H222727   1.531   2.293   4.806 -0.1194  0.6939 -2.2141
  438TIP3   OH222728   2.192   1.076  10.720 -0.8324 -0.5286  0.5146
  438TIP3    H122729   2.127   1.065  10.651  0.8063  0.0400 -1.1998
  438TIP3    H222730   2.165   1.154  10.767 -1.9852 -0.9388  0.5582
  439TIP3   OH222731   4.683   5.199  16.712  0.0052  0.1769  0.3224
  439TIP3    H122732   4.643   5.277  16.674 -2.2797 -0.8063  0.5624
  439TIP3    H222733   4.629   5.179  16.788  0.8324 -1.3724  0.5337
  440TIP3   OH222734   6.048   2.797  12.092  0.1922  0.0325 -0.4842
  440TIP3    H122735   6.059   2.829  12.181  0.8476 -0.3087 -0.4367
  440TIP3    H222736   6.137   2.776  12.062 -0.2086 -1.9301 -0.4381
  441TIP3   OH222737   2.188   1.070   6.733  0.1537 -0.2022  0.0440
  441TIP3    H122738   2.151   1.158   6.736  0.0155 -0.2923  1.2698
  441TIP3    H222739   2.170   1.033   6.819 -0.8779 -1.8782 -0.8263
  442TIP3   OH222740   1.632   2.235   4.380  0.1589  0.1652  0.3370
  442TIP3    H122741   1.686   2.164   4.345 -1.1502  0.2030 -1.9391
  442TIP3    H222742   1.694   2.291   4.427  1.5849 -1.3002  0.2962
  443TIP3   OH222743   2.052   3.019  17.039 -0.0568  0.1696  0.3872
  443TIP3    H122744   1.956   3.015  17.037 -0.0492  0.1267 -2.2000
  443TIP3    H222745   2.081   2.962  16.968  1.9702 -0.6177  1.7430
  444TIP3   OH222746   5.751   4.235   6.159 -0.4442  0.0605 -0.2780
  444TIP3    H122747   5.770   4.143   6.176  1.2500  0.0856 -1.6740
  444TIP3    H222748   5.827   4.282   6.196 -0.3825  0.7110 -1.1929
  445TIP3   OH222749   1.890   1.780  11.123  0.3808  0.2965  0.1169
  445TIP3    H122750   1.825   1.843  11.093  0.6234  0.1570 -0.7067
  445TIP3    H222751   1.858   1.695  11.093  1.3264  0.3099 -0.9732
  446TIP3   OH222752   5.931   3.850   2.080 -0.0229  0.8354 -0.1523
  446TIP3    H122753   5.960   3.761   2.101 -0.5554  0.2907 -1.5991
  446TIP3    H222754   5.951   3.900   2.159 -1.3063 -0.9155  1.3869
  447TIP3   OH222755   3.832   5.485   2.458 -0.1733  0.1167 -0.5722
  447TIP3    H122756   3.881   5.546   2.513  1.2203 -0.4945 -1.0786
  447TIP3    H222757   3.818   5.408   2.513 -0.6708  0.3291 -0.3958
  448TIP3   OH222758   6.501   3.738  12.382 -0.2583  0.2055 -0.3019
  448TIP3    H122759   6.522   3.831  12.395  0.8680 -0.2503  1.4469
  448TIP3    H222760   6.562   3.710  12.314 -0.0504  0.5445 -0.2598
  449TIP3   OH222761   6.752   6.376  13.429 -0.4934 -0.5998  0.1014
  449TIP3    H122762   6.752   6.441  13.357  0.2007 -2.1586 -1.3696
  449TIP3    H222763   6.764   6.429  13.508  3.9578  0.8825 -1.2625
  450TIP3   OH222764   2.883   5.320   1.786  0.3553 -0.6831 -0.1861
  450TIP3    H122765   2.939   5.292   1.714  0.4378 -1.1332  0.0500
  450TIP3    H222766   2.938   5.313   1.864  0.0185 -0.9872  0.0266
  451TIP3   OH222767   3.225   3.011   4.283  0.7949 -0.2340  0.0379
  451TIP3    H122768   3.204   3.040   4.372  0.6018  0.8091 -0.3377
  451TIP3    H222769   3.219   3.090   4.230  0.4987 -0.9271 -0.9842
  452TIP3   OH222770   2.743   1.545   5.295  0.4353  0.6462  0.2207
  452TIP3    H122771   2.690   1.546   5.215  3.7053 -0.6094 -2.2008
  452TIP3    H222772   2.726   1.460   5.334  0.0983  0.5625 -0.1038
  453TIP3   OH222773   3.486   3.657  12.374  0.4916 -0.1271 -0.0697
  453TIP3    H122774   3.486   3.589  12.307 -0.5401  1.1101 -1.3920
  453TIP3    H222775   3.539   3.621  12.445  0.9254 -1.8213 -1.1956
  454TIP3   OH222776   3.374   0.626  13.521 -0.1135  0.5791 -0.1363
  454TIP3    H122777   3.424   0.669  13.452 -0.9901 -0.2451 -1.3232
  454TIP3    H222778   3.290   0.672  13.522  0.3360  1.4344  1.3034
  455TIP3   OH222779   2.283   1.666   1.238 -0.3033  0.4330  0.1657
  455TIP3    H122780   2.359   1.705   1.195  0.4574 -1.3417 -0.2011
  455TIP3    H222781   2.318   1.629   1.320 -0.8195 -0.0971  0.1571
  456TIP3   OH222782   0.105   5.536  14.753  0.3800 -0.4681  0.2296
  456TIP3    H122783   0.059   5.556  14.671 -0.9690 -0.0227  1.0664
  456TIP3    H222784   0.053   5.467  14.794  1.1667 -0.8435  0.6185
  457TIP3   OH222785   1.070   5.773  16.627 -0.1387  0.0341  0.5256
  457TIP3    H122786   1.090   5.680  16.616  1.8939  0.3858  0.8187
  457TIP3    H222787   1.092   5.791  16.719 -0.4525  0.8336  0.4512
  458TIP3   OH222788   3.132   2.465   0.915 -0.5921 -0.2520 -0.2816
  458TIP3    H122789   3.122   2.444   1.008  0.1059  0.6917  0.0205
  458TIP3    H222790   3.052   2.512   0.893 -1.9965 -2.7394 -0.8703
  459TIP3   OH222791   4.112   4.760  14.538 -0.1855 -0.5200 -0.0883
  459TIP3    H122792   4.122   4.831  14.601 -0.1223 -2.0709  1.7368
  459TIP3    H222793   4.196   4.715  14.539 -0.0245 -0.3061 -1.6642
  460TIP3   OH222794   2.010   1.665  14.840 -0.0823  0.3321 -0.2231
  460TIP3    H122795   2.048   1.744  14.802 -0.4775  0.3674 -0.5589
  460TIP3    H222796   1.948   1.697  14.906 -0.6501  0.3293 -0.7421
  461TIP3   OH222797   0.114   4.980   1.699 -0.6868 -0.3648 -0.3190
  461TIP3    H122798   0.098   5.033   1.777  1.1423  0.3959 -0.4174
  461TIP3    H222799   0.039   4.998   1.642 -1.1660  0.4472  0.5479
  462TIP3   OH222800   4.997   1.447   0.489 -0.1051 -0.2242  0.0287
  462TIP3    H122801   5.046   1.398   0.423  1.0828  0.3624  0.4501
  462TIP3    H222802   4.912   1.463   0.448  0.0899 -1.1568 -0.7720
  463TIP3   OH222803   4.415   4.604  15.375  0.0386  0.0803 -0.2338
  463TIP3    H122804   4.422   4.619  15.469  1.7406  1.6750 -0.5576
  463TIP3    H222805   4.465   4.524  15.360  0.1092  0.0449  0.1687
  464TIP3   OH222806   4.070   6.190  11.310 -0.0508 -0.3925  0.0712
  464TIP3    H122807   4.081   6.283  11.290  0.4769 -0.4137  0.2476
  464TIP3    H222808   4.144   6.169  11.366 -1.9081 -0.1164  2.8062
  465TIP3   OH222809   2.491   4.445  12.557 -0.5856 -0.4999  0.1149
  465TIP3    H122810   2.581   4.425  12.530  0.5882 -0.1761  3.3511
  465TIP3    H222811   2.499   4.521  12.615 -2.4035 -2.3128  3.0292
  466TIP3   OH222812   1.543   4.270  14.443 -0.0846 -0.1807 -0.0285
  466TIP3    H122813   1.560   4.176  14.432  0.1384  0.0437 -1.8570
  466TIP3    H222814   1.451   4.281  14.417  0.0911  0.2076 -0.4898
  467TIP3   OH222815   4.798   3.825  15.532 -0.4275  0.0303 -0.5648
  467TIP3    H122816   4.862   3.786  15.472  0.1358  0.5251 -0.2993
  467TIP3    H222817   4.785   3.914  15.498 -0.4661  0.1528 -0.2332
  468TIP3   OH222818   4.109   0.604   2.195 -0.6259  0.1325  0.3815
  468TIP3    H122819   4.071   0.524   2.160  1.8196 -0.2165 -1.7476
  468TIP3    H222820   4.150   0.646   2.119  2.6362  0.7307  2.3036
  469TIP3   OH222821   2.179   5.505   2.021 -0.4101 -0.4009 -0.5381
  469TIP3    H122822   2.154   5.542   2.106 -1.7536 -0.5221 -0.8617
  469TIP3    H222823   2.275   5.506   2.022 -0.2964 -2.4414  1.8988
  470TIP3   OH222824   4.319   3.864   1.057 -0.2591 -0.1609  0.4787
  470TIP3    H122825   4.287   3.922   0.988 -0.5912  0.5176  1.1928
  470TIP3    H222826   4.390   3.814   1.016  1.7143  2.4407  0.4653
  471TIP3   OH222827   5.028   3.542  12.833 -0.2328 -0.7807 -0.1037
  471TIP3    H122828   5.116   3.526  12.799 -0.4799  1.0513 -1.8067
  471TIP3    H222829   4.987   3.456  12.836  1.3629 -1.5694  0.0034
  472TIP3   OH222830   2.799   4.767   1.000 -0.4121 -0.2604  0.3588
  472TIP3    H122831   2.738   4.841   1.000 -0.7036 -0.4967 -0.1815
  472TIP3    H222832   2.753   4.698   0.952  0.2697 -0.4487 -0.0297
  473TIP3   OH222833   6.496   4.244  16.385 -0.6014  0.0101 -0.4681
  473TIP3    H122834   6.423   4.200  16.429 -1.1998  1.7020  0.3018
  473TIP3    H222835   6.459   4.325  16.350  0.2510 -0.4872 -2.7156
  474TIP3   OH222836   3.396   1.506   3.276 -0.4988 -0.1395  0.3303
  474TIP3    H122837   3.399   1.599   3.298  2.8776 -0.3599  1.4471
  474TIP3    H222838   3.421   1.503   3.183  1.7120  0.0471  0.8609
  475TIP3   OH222839   0.194   5.614  15.523 -0.0711 -0.1863 -0.4731
  475TIP3    H122840   0.173   5.650  15.437  0.7459  0.6181 -0.3563
  475TIP3    H222841   0.287   5.592  15.518  0.0600  0.1522  0.2797
  476TIP3   OH222842   2.484   1.619  11.353 -0.5525 -0.0058  0.4319
  476TIP3    H122843   2.531   1.550  11.306  0.5556  1.5640 -0.8821
  476TIP3    H222844   2.396   1.584  11.366  0.4591 -2.3561  1.4417
  477TIP3   OH222845   5.393   5.188  12.020 -0.6951  0.5916  0.9102
  477TIP3    H122846   5.413   5.126  11.950 -1.0688  0.8745  0.5460
  477TIP3    H222847   5.424   5.145  12.100 -2.2515 -0.7265  0.8719
  478TIP3   OH222848   5.804   4.977  12.764 -0.4836  0.2255  0.0044
  478TIP3    H122849   5.814   5.013  12.675  1.6029 -3.4125 -1.4659
  478TIP3    H222850   5.716   5.004  12.790  0.3596  5.2041 -1.1544
  479TIP3   OH222851   2.206   3.883   0.563  0.5829  0.1201  0.0763
  479TIP3    H122852   2.181   3.974   0.572  1.3381  0.5229 -1.4943
  479TIP3    H222853   2.262   3.866   0.639 -0.0853  0.7606  0.7250
  480TIP3   OH222854   2.208   4.368  15.864  0.1008 -0.5872 -0.3235
  480TIP3    H122855   2.246   4.326  15.787 -0.1244  0.9791 -1.3346
  480TIP3    H222856   2.128   4.410  15.831 -2.6550 -3.6837  1.6880
  481TIP3   OH222857   5.593   0.319  15.599 -0.0594 -0.3253 -0.2647
  481TIP3    H122858   5.613   0.381  15.669  1.3942 -0.3632 -0.6193
  481TIP3    H222859   5.647   0.347  15.525  0.2890 -1.7362 -0.5802
  482TIP3   OH222860   0.905   3.947   6.121 -0.2399 -0.8623  0.1794
  482TIP3    H122861   0.904   3.852   6.111  0.6845 -0.5915 -4.0550
  482TIP3    H222862   0.997   3.971   6.110 -0.7432  0.6457 -1.0081
  483TIP3   OH222863   0.478   6.018   4.975 -0.2481  0.3550  0.6716
  483TIP3    H122864   0.539   5.945   4.966  1.0870  1.2188  2.1600
  483TIP3    H222865   0.498   6.055   5.061  0.6656  3.7858 -0.8224
  484TIP3   OH222866   4.654   2.703   2.787 -0.9545 -0.2164 -0.0443
  484TIP3    H122867   4.742   2.689   2.821 -1.1138 -0.4476  0.2775
  484TIP3    H222868   4.605   2.740   2.860 -1.3053 -0.7359 -0.0073
  485TIP3   OH222869   6.020   4.627   5.268  0.1252 -0.2300 -0.0491
  485TIP3    H122870   6.021   4.678   5.349  1.5058  0.7985 -0.6778
  485TIP3    H222871   6.089   4.665   5.214  0.3379 -1.9326 -1.0747
  486TIP3   OH222872   5.214   4.478   4.499 -0.3167 -0.2708 -0.5424
  486TIP3    H122873   5.309   4.495   4.503 -0.7048  3.0787 -1.7107
  486TIP3    H222874   5.186   4.479   4.590  0.5415  0.8796 -0.2565
  487TIP3   OH222875   4.637   0.640  13.814 -0.6144 -0.4860 -0.0218
  487TIP3    H122876   4.666   0.679  13.897 -3.6722  1.9693  0.0795
  487TIP3    H222877   4.621   0.715  13.756 -0.2111 -2.0555 -2.2827
  488TIP3   OH222878   2.184   1.284  10.892 -0.1847  0.2691  0.0670
  488TIP3    H122879   2.112   1.339  10.862  0.1199  1.1057  0.8393
  488TIP3    H222880   2.252   1.345  10.919  0.7229 -0.5084 -0.3847
  489TIP3   OH222881   0.858   6.319  11.542  0.2119  0.1880  0.1235
  489TIP3    H122882   0.802   6.251  11.505 -1.1043  0.3441  1.7284
  489TIP3    H222883   0.799   6.371  11.597  2.0249 -0.0393  2.4369
  490TIP3   OH222884   2.222   1.868   5.707 -0.1512  0.4236  0.1427
  490TIP3    H122885   2.202   1.937   5.644  0.1706 -0.3178 -0.7893
  490TIP3    H222886   2.166   1.888   5.782  0.1019  1.8165 -0.0181
  491TIP3   OH222887   5.638   2.415  13.925  0.1718  0.3011 -0.0255
  491TIP3    H122888   5.568   2.351  13.940  0.9035 -0.6081 -0.3551
  491TIP3    H222889   5.689   2.414  14.007  1.2335 -0.9095 -0.6670
  492TIP3   OH222890   0.914   4.218  15.294  0.1370 -0.0859 -0.6413
  492TIP3    H122891   0.885   4.128  15.280  1.1335 -0.3687 -0.9991
  492TIP3    H222892   1.003   4.220  15.259 -0.7574  1.7115 -3.1023
  493TIP3   OH222893   0.197   0.079   0.378 -0.0131  0.3883 -0.3301
  493TIP3    H122894   0.136   0.006   0.366  1.0702 -1.0697  2.2737
  493TIP3    H222895   0.158   0.134   0.445  0.9420  0.0744  0.5144
  494TIP3   OH222896   3.469   6.647   0.625 -0.1175 -0.1809  0.4946
  494TIP3    H122897   3.521   6.613   0.698 -0.8042 -0.0754  1.0542
  494TIP3    H222898   3.496   6.596   0.549 -1.5996 -2.5114  1.4176
  495TIP3   OH222899   1.645   0.730  11.016  0.1474 -0.0261  0.2387
  495TIP3    H122900   1.558   0.705  10.985  0.3410 -0.6209  0.1785
  495TIP3    H222901   1.628   0.803  11.076 -0.0793  2.8354 -2.9761
  496TIP3   OH222902   5.437   3.012  11.891  0.9534  0.0298  0.0020
  496TIP3    H122903   5.427   3.040  11.982  1.4847  0.1711  0.0185
  496TIP3    H222904   5.529   3.025  11.872  1.0466 -0.9243 -0.2553
  497TIP3   OH222905   0.302   5.826   0.863  0.2215 -0.2505  0.2026
  497TIP3    H122906   0.340   5.913   0.852  1.2628 -0.4856  1.6119
  497TIP3    H222907   0.208   5.840   0.852  0.3856  1.0246  0.2204
  498TIP3   OH222908   0.673   5.241  10.623  0.4736 -0.1749  0.2070
  498TIP3    H122909   0.737   5.297  10.668  0.1702 -1.0570  1.8092
  498TIP3    H222910   0.726   5.172  10.583  0.8655  1.2680 -1.9083
  499TIP3   OH222911   3.661   0.599  13.933 -0.2281 -0.1326  0.2953
  499TIP3    H122912   3.709   0.630  13.857  0.6610 -0.1503  0.8332
  499TIP3    H222913   3.569   0.597  13.905  0.0141  0.4510 -0.5668
  500TIP3   OH222914   5.834   3.769   3.382  0.6976  0.2404 -0.0730
  500TIP3    H122915   5.772   3.778   3.453  0.1843  1.0783 -0.6102
  500TIP3    H222916   5.784   3.730   3.310  0.8990  0.4937 -0.3562
  501TIP3   OH222917   2.494   2.107  13.382  0.2652 -0.1867  0.8630
  501TIP3    H122918   2.484   2.195  13.347  1.6165 -0.6716 -0.8872
  501TIP3    H222919   2.407   2.068  13.378  0.2615 -0.0538 -1.6346
  502TIP3   OH222920   2.768   5.003  14.847 -0.1716 -0.2254 -0.6066
  502TIP3    H122921   2.724   5.056  14.913  1.8838  0.7712  0.0349
  502TIP3    H222922   2.733   5.033  14.764 -0.1252  1.1134 -0.1564
  503TIP3   OH222923   5.465   0.175  16.605 -0.6894  0.0860  0.1672
  503TIP3    H122924   5.438   0.222  16.684 -1.5179 -0.1549  0.0358
  503TIP3    H222925   5.548   0.216  16.580 -0.8598  0.7532  0.6660
  504TIP3   OH222926   5.001   0.041   4.663  0.3430 -0.5164 -0.8987
  504TIP3    H122927   5.049   0.055   4.745  0.5239  0.6437 -1.1820
  504TIP3    H222928   4.968  -0.049   4.669  1.1372 -0.7638  0.0360
  505TIP3   OH222929   1.501   1.304  11.430  0.8868 -0.0460  0.3130
  505TIP3    H122930   1.480   1.315  11.337 -1.9502 -0.7177  0.7726
  505TIP3    H222931   1.568   1.236  11.432  0.3701 -0.6394 -1.2093
  506TIP3   OH222932   6.060   3.946   2.315  0.3918 -0.0296 -0.2433
  506TIP3    H122933   6.052   4.028   2.362 -0.6191 -0.2892  0.0473
  506TIP3    H222934   6.054   3.878   2.382  0.8315 -0.3626 -0.5278
  507TIP3   OH222935   3.051   5.790   2.914 -0.6625 -0.6955 -0.0768
  507TIP3    H122936   3.003   5.849   2.973  0.5491  0.5793 -0.2905
  507TIP3    H222937   3.075   5.846   2.840  0.0389 -1.6133 -0.5579
  508TIP3   OH222938   5.737   5.763   5.406 -0.0209 -0.4460 -0.2000
  508TIP3    H122939   5.746   5.731   5.495 -0.3291 -1.3418 -0.4818
  508TIP3    H222940   5.731   5.858   5.415  1.2328 -0.4301  0.6205
  509TIP3   OH222941   4.332   5.533   6.638  0.0789  0.0648  0.7017
  509TIP3    H122942   4.400   5.477   6.675  0.1354  0.3161  0.9845
  509TIP3    H222943   4.378   5.591   6.578 -0.1962 -1.2458 -0.8277
  510TIP3   OH222944   0.210   2.295  13.010 -0.2814  0.1159  0.1425
  510TIP3    H122945   0.294   2.337  12.993 -0.7778  0.9229 -0.3391
  510TIP3    H222946   0.168   2.351  13.076 -2.1457  2.0566 -2.5031
  511TIP3   OH222947   2.815   3.623  11.576  0.2397  0.7568  0.2079
  511TIP3    H122948   2.885   3.688  11.581 -0.0027  1.3301 -2.2212
  511TIP3    H222949   2.744   3.668  11.530 -1.0082 -0.3967  0.9393
  512TIP3   OH222950   3.007   0.209  12.185 -0.4121  0.0275  0.4587
  512TIP3    H122951   3.046   0.171  12.263  1.0678 -0.5175 -0.5110
  512TIP3    H222952   3.050   0.294  12.176 -0.5223  0.0571  0.2074
  513TIP3   OH222953   2.796   6.385  11.595 -0.4046 -0.0838  0.7434
  513TIP3    H122954   2.810   6.299  11.636  0.7329  0.2090  0.9957
  513TIP3    H222955   2.823   6.448  11.662 -1.5772  0.5029  0.6974
  514TIP3   OH222956   0.658   3.271  11.866 -0.1581  0.3016  0.1676
  514TIP3    H122957   0.735   3.272  11.923  0.4124  2.7812 -0.5146
  514TIP3    H222958   0.693   3.282  11.777 -1.1510 -1.5217 -0.4936
  515TIP3   OH222959   0.439   1.293   3.740  0.5009 -0.2403 -0.2003
  515TIP3    H122960   0.351   1.275   3.774  0.6732 -0.6418  0.0427
  515TIP3    H222961   0.437   1.385   3.714  0.8695  0.6145  2.5043
  516TIP3   OH222962   5.564   0.859  16.132  1.1936  0.1651  0.2866
  516TIP3    H122963   5.622   0.873  16.057  0.7767 -1.6253 -0.4377
  516TIP3    H222964   5.477   0.884  16.100  1.2837  1.1741  0.7999
  517TIP3   OH222965   0.477   3.524   0.268  0.2934  0.7080  0.3501
  517TIP3    H122966   0.538   3.465   0.222  1.4637  2.8909 -1.0571
  517TIP3    H222967   0.532   3.573   0.328 -0.4191  1.3232  0.5133
  518TIP3   OH222968   4.884   1.262  13.640 -0.8595 -0.1444  0.0480
  518TIP3    H122969   4.828   1.263  13.718  0.1559  0.3999  0.7895
  518TIP3    H222970   4.838   1.319  13.578 -0.2279  1.9034  1.3454
  519TIP3   OH222971   3.841   0.695  14.951  0.0322  0.3273 -0.4131
  519TIP3    H122972   3.767   0.659  14.903  0.1890 -2.7261  1.3899
  519TIP3    H222973   3.918   0.668  14.900  0.0515  0.2183 -0.3266
  520TIP3   OH222974   4.038   4.377  12.117 -0.1273  0.3838  0.5318
  520TIP3    H122975   4.104   4.442  12.093  0.4792 -0.5065 -0.3072
  520TIP3    H222976   4.080   4.293  12.099 -0.8803 -0.2444  1.6267
  521TIP3   OH222977   0.796   2.654  16.433  0.1433 -0.6402  0.1513
  521TIP3    H122978   0.848   2.622  16.506  0.3644  0.6201  0.5635
  521TIP3    H222979   0.780   2.746  16.453 -2.2626 -0.9686  0.0537
  522TIP3   OH222980   3.893   6.303  13.429 -0.0216 -0.1335 -0.1093
  522TIP3    H122981   3.876   6.265  13.343 -2.0013  1.8141 -0.6695
  522TIP3    H222982   3.910   6.396  13.412  1.6414 -0.0996  1.4435
  523TIP3   OH222983   2.550   2.420  11.381 -0.1738  0.6639 -0.0950
  523TIP3    H122984   2.557   2.426  11.477 -0.2936  1.6860 -0.1390
  523TIP3    H222985   2.462   2.387  11.365  0.5836 -1.7019  0.1807
  524TIP3   OH222986   6.341   3.803  14.693  0.0591 -0.1540 -0.1243
  524TIP3    H122987   6.332   3.778  14.601  0.2886 -1.2020  0.1231
  524TIP3    H222988   6.274   3.752  14.738 -2.3082  2.7321 -0.0629
  525TIP3   OH222989   4.469   5.221   1.634  0.1542  0.0653 -0.1011
  525TIP3    H122990   4.504   5.218   1.545 -0.0434  0.5753 -0.1952
  525TIP3    H222991   4.374   5.219   1.622  0.0474  2.4035 -0.0158
  526TIP3   OH222992   1.237   2.719  14.543 -0.2778 -0.6999  0.1342
  526TIP3    H122993   1.185   2.798  14.560 -0.9818 -1.4770  1.8230
  526TIP3    H222994   1.174   2.648  14.547  0.5165 -1.4490 -0.3901
  527TIP3   OH222995   5.102   3.767  14.183 -0.2382  0.0133  0.0294
  527TIP3    H122996   5.085   3.842  14.239  0.2930  0.8049 -0.8413
  527TIP3    H222997   5.196   3.772  14.164 -0.3864 -0.3124 -0.8190
  528TIP3   OH222998   6.742   5.432   4.701  0.5464  0.3634 -0.7141
  528TIP3    H122999   6.747   5.524   4.675 -0.1729  0.6812  0.2228
  528TIP3    H223000   6.823   5.417   4.751  0.1218  0.8148  0.1198
  529TIP3   OH223001   5.985   2.146  16.880 -0.7629 -0.2350  0.1133
  529TIP3    H123002   5.991   2.051  16.883 -0.7494 -0.2464 -0.2230
  529TIP3    H223003   5.892   2.165  16.887 -0.6303 -0.1442  3.1681
  530TIP3   OH223004   6.260   1.118   1.301 -0.6025 -0.2359  0.4579
  530TIP3    H123005   6.312   1.093   1.377 -0.5747  0.1058  0.5566
  530TIP3    H223006   6.228   1.206   1.322 -0.3844 -0.0368 -0.0338
  531TIP3   OH223007   3.409   0.789   4.520  0.8087  0.0191  0.2074
  531TIP3    H123008   3.436   0.716   4.575  1.9797 -0.4010 -0.8753
  531TIP3    H223009   3.318   0.771   4.498  0.0913  0.5455  2.5004
  532TIP3   OH223010   4.011   3.326  14.351  0.0859  0.7663 -0.7963
  532TIP3    H123011   4.041   3.236  14.366 -1.8650 -0.0321 -1.3680
  532TIP3    H223012   4.006   3.364  14.439 -1.0122 -0.3807 -0.3212
  533TIP3   OH223013   0.158   0.240  13.413 -0.3520  0.5168 -0.4138
  533TIP3    H123014   0.232   0.279  13.367 -0.4248  0.6609 -0.4123
  533TIP3    H223015   0.101   0.315  13.433  0.7622  0.8090  1.9436
  534TIP3   OH223016   5.396   1.286   6.444  0.0213 -0.1119 -0.2781
  534TIP3    H123017   5.428   1.376   6.437  1.3460 -0.4129  1.3457
  534TIP3    H223018   5.453   1.236   6.387  2.3403 -0.5588  2.1976
  535TIP3   OH223019   3.847   1.701  16.958 -0.5414  0.6985 -0.4859
  535TIP3    H123020   3.881   1.773  16.905  0.5600 -0.4900 -1.4611
  535TIP3    H223021   3.865   1.623  16.906  0.4293 -0.5043  1.5429
  536TIP3   OH223022   5.926   2.849  14.184 -0.7060  0.1384 -0.2680
  536TIP3    H123023   5.894   2.764  14.215 -0.9475  0.7296  1.2245
  536TIP3    H223024   6.010   2.830  14.143 -1.2112 -0.9453 -0.8424
  537TIP3   OH223025   4.765   0.088  16.985 -0.1328 -0.0601 -0.2608
  537TIP3    H123026   4.753   0.047  16.899 -1.0938 -1.4230  0.4847
  537TIP3    H223027   4.766   0.182  16.967 -0.4306 -0.3106 -1.7371
  538TIP3   OH223028   5.666   3.407   0.060  0.1442  0.5993 -0.5916
  538TIP3    H123029   5.581   3.438   0.091  0.4366  0.3636  0.4856
  538TIP3    H223030   5.712   3.487   0.034  0.6461  1.0511  1.5522
  539TIP3   OH223031   1.498   0.232   2.374 -0.3942  0.3475  0.3462
  539TIP3    H123032   1.552   0.164   2.334 -0.5778  0.6333 -0.3979
  539TIP3    H223033   1.504   0.214   2.468  2.3920  1.3854  0.4652
  540TIP3   OH223034   1.598   3.034   1.102 -0.2007  0.2491 -0.3202
  540TIP3    H123035   1.664   3.095   1.072  0.4169 -0.5230 -0.5720
  540TIP3    H223036   1.646   2.953   1.121 -1.0604 -0.3406 -0.5378
  541TIP3   OH223037   2.186   1.236  16.371 -0.3954  0.3239 -0.1507
  541TIP3    H123038   2.202   1.169  16.304  1.3582  0.8238 -0.2693
  541TIP3    H223039   2.184   1.318  16.322  2.4942  0.8750  0.5262
  542TIP3   OH223040   4.336   6.040   4.387  0.4459 -0.0478  0.4512
  542TIP3    H123041   4.399   5.969   4.393 -0.1392 -0.7468 -1.0593
  542TIP3    H223042   4.308   6.039   4.296 -1.5041  0.4239  0.9878
  543TIP3   OH223043   1.764   3.331  13.716  0.2101  0.9179  0.2296
  543TIP3    H123044   1.767   3.405  13.656  0.2746  0.7119 -0.0216
  543TIP3    H223045   1.679   3.337  13.759 -1.3830 -0.9157 -2.3891
  544TIP3   OH223046   1.256   3.123   6.739 -0.0018  0.6053  0.0921
  544TIP3    H123047   1.298   3.065   6.675 -1.1595 -0.5844  0.3491
  544TIP3    H223048   1.319   3.192   6.755  0.5992  0.5610 -1.8284
  545TIP3   OH223049   3.885   4.693  13.790  0.0716 -0.3162 -0.1012
  545TIP3    H123050   3.844   4.608  13.808  1.5221 -0.9538  0.3572
  545TIP3    H223051   3.860   4.747  13.865 -0.6036 -0.4179 -0.2404
  546TIP3   OH223052   1.990   3.135   5.677 -0.1173  0.2701 -0.0363
  546TIP3    H123053   2.077   3.096   5.670  0.6412  1.8660  0.0796
  546TIP3    H223054   2.004   3.229   5.662 -1.8402  0.5462 -0.1682
  547TIP3   OH223055   1.734   3.049   3.350 -0.0052 -0.0812 -0.0310
  547TIP3    H123056   1.657   3.018   3.303 -0.4995 -1.5964  1.6582
  547TIP3    H223057   1.711   3.038   3.443  1.7861  0.6099  0.5349
  548TIP3   OH223058   1.115   6.443   5.809  0.1604 -0.1221  0.2363
  548TIP3    H123059   1.100   6.471   5.719 -0.9230 -0.8812  0.1698
  548TIP3    H223060   1.170   6.512   5.847 -0.9429  1.1609 -0.4381
  549TIP3   OH223061   5.938   3.532  14.795  0.0274 -0.0243 -0.3445
  549TIP3    H123062   5.946   3.467  14.864  0.2417  0.2004 -0.1544
  549TIP3    H223063   5.922   3.614  14.842  3.8889  0.8785 -0.2579
  550TIP3   OH223064   6.474   3.262  13.277 -0.8660 -0.1605  0.3501
  550TIP3    H123065   6.504   3.179  13.239  0.7284  0.3366  0.4549
  550TIP3    H223066   6.434   3.237  13.360  0.5290 -0.7726  0.8840
  551TIP3   OH223067   5.840   2.297  16.151  0.2333  0.3063  0.4100
  551TIP3    H123068   5.910   2.302  16.216  1.0131 -0.5294 -0.3280
  551TIP3    H223069   5.764   2.264  16.200  0.9710 -0.8946  0.7960
  552TIP3   OH223070   5.254   2.430  11.529 -0.8705 -0.0766 -0.0081
  552TIP3    H123071   5.290   2.468  11.609  0.0834  0.5040 -0.6963
  552TIP3    H223072   5.263   2.335  11.541  0.7905  0.0396 -0.0973
  553TIP3   OH223073   2.896   1.580  11.628  0.3210 -0.1612 -0.0118
  553TIP3    H123074   2.879   1.649  11.693  1.1571 -0.9092  1.0389
  553TIP3    H223075   2.976   1.607  11.584  1.6438 -1.2510  1.5987
  554TIP3   OH223076   5.782   0.405  17.192  0.1223  0.5325 -0.1251
  554TIP3    H123077   5.873   0.386  17.215  0.2124 -0.4824 -1.2326
  554TIP3    H223078   5.783   0.417  17.097 -0.6711  2.0130  0.0255
  555TIP3   OH223079   0.394   0.078  12.992 -0.2608  0.0449  0.8962
  555TIP3    H123080   0.348   0.158  13.017  0.6720  1.3100 -1.1902
  555TIP3    H223081   0.476   0.081  13.040  0.0843  0.7262  0.2694
  556TIP3   OH223082   5.644   5.074   3.273  0.2405  0.6580  0.8426
  556TIP3    H123083   5.649   5.029   3.188  0.7197  0.3619  1.0268
  556TIP3    H223084   5.642   5.167   3.250  0.4899  0.5840  0.5120
  557TIP3   OH223085   0.109   6.235   5.560 -0.1131  0.2170 -0.0451
  557TIP3    H123086   0.168   6.160   5.555 -0.2057  0.2279 -2.0000
  557TIP3    H223087   0.021   6.197   5.560 -0.2231  0.2945 -2.8944
  558TIP3   OH223088   3.376   2.351  15.376 -0.4387 -0.2038 -0.0640
  558TIP3    H123089   3.320   2.428  15.377 -1.6558 -1.0676 -0.2909
  558TIP3    H223090   3.379   2.324  15.285 -0.5948 -0.8314  0.1123
  559TIP3   OH223091   2.396   1.052  15.964  0.3463 -0.3333  0.5521
  559TIP3    H123092   2.357   0.975  16.004  0.3431 -0.0301  1.1520
  559TIP3    H223093   2.345   1.068  15.885  0.3577 -0.9463  0.4223
  560TIP3   OH223094   5.912   0.898  16.602  0.5450  0.6299 -0.2798
  560TIP3    H123095   5.863   0.979  16.584  1.4383  1.2259 -0.1283
  560TIP3    H223096   5.933   0.863  16.516  0.6869  0.9014 -0.3576
  561TIP3   OH223097   3.201   1.356   1.025 -0.0116 -0.1720 -0.1060
  561TIP3    H123098   3.158   1.310   1.097  0.7199 -0.5520  0.0934
  561TIP3    H223099   3.168   1.446   1.032 -0.0582 -0.2343  0.6172
  562TIP3   OH223100   3.781   4.692  12.071 -0.5792  0.7610  0.0195
  562TIP3    H123101   3.871   4.715  12.093 -1.0070  1.8840  0.7118
  562TIP3    H223102   3.788   4.608  12.026  0.7491  0.5135  0.6296
  563TIP3   OH223103   6.047   3.573   1.887  0.0515  0.3875 -0.0694
  563TIP3    H123104   6.083   3.508   1.827 -0.8488  0.7101 -0.9918
  563TIP3    H223105   5.969   3.606   1.843 -1.4103 -0.2913  1.8263
  564TIP3   OH223106   1.405   5.384   1.496 -0.4790  0.6178  0.2131
  564TIP3    H123107   1.498   5.397   1.514  0.3792 -2.7707 -1.0044
  564TIP3    H223108   1.375   5.469   1.464  2.2989  1.7035  0.2157
  565TIP3   OH223109   1.024   2.971  13.289 -0.1898 -0.1018  0.0316
  565TIP3    H123110   1.051   3.063  13.291 -3.7268  1.1277 -0.6767
  565TIP3    H223111   1.018   2.950  13.196  0.4299 -1.0248  0.1920
  566TIP3   OH223112   0.117   5.339   5.150 -0.2600  0.3562 -0.5419
  566TIP3    H123113   0.103   5.267   5.211 -0.5643  0.2767 -0.7043
  566TIP3    H223114   0.191   5.387   5.186  0.8063 -0.7854 -1.1229
  567TIP3   OH223115   4.543   5.630  13.366 -0.1137  0.4282  0.7681
  567TIP3    H123116   4.539   5.688  13.442 -1.5665 -0.0234  1.0720
  567TIP3    H223117   4.453   5.626  13.334  0.3780  0.1953 -0.6770
  568TIP3   OH223118   2.712   5.971   3.411  0.0463  0.0882 -0.7152
  568TIP3    H123119   2.624   6.002   3.389  0.9920  1.8645 -2.2726
  568TIP3    H223120   2.734   5.911   3.339  2.3953  4.4368 -4.1041
  569TIP3   OH223121   2.603   2.135   0.162 -0.0565 -0.3913  0.0323
  569TIP3    H123122   2.668   2.066   0.148 -0.3010 -0.4200 -1.0113
  569TIP3    H223123   2.650   2.217   0.148  0.1417 -0.3467  0.9008
  570TIP3   OH223124   5.972   4.904  16.612 -0.2444 -0.0257 -0.3010
  570TIP3    H123125   5.911   4.848  16.659 -1.8436 -0.0451 -2.2665
  570TIP3    H223126   5.929   4.920  16.528  0.3428  3.7263 -0.0458
  571TIP3   OH223127   6.660   2.076   2.737 -0.4033  0.4675 -0.3800
  571TIP3    H123128   6.688   1.991   2.771  0.5664  1.4803  1.5196
  571TIP3    H223129   6.603   2.111   2.806  0.8642  2.1952 -0.1619
  572TIP3   OH223130   5.507   1.383   3.279  0.6785 -0.5688 -0.0212
  572TIP3    H123131   5.532   1.366   3.370  1.0007 -0.7954 -0.1523
  572TIP3    H223132   5.436   1.448   3.286  2.4644  1.4767  0.2875
  573TIP3   OH223133   0.282   5.889  12.411  0.2360  0.1748 -0.0329
  573TIP3    H123134   0.359   5.841  12.439 -1.4380 -2.8742 -0.1973
  573TIP3    H223135   0.254   5.845  12.331 -0.8665  2.1321 -0.7927
  574TIP3   OH223136   5.761   5.677  16.108  0.2250 -0.2630 -0.1027
  574TIP3    H123137   5.853   5.663  16.086  0.3497  0.1097  0.1717
  574TIP3    H223138   5.734   5.597  16.154  0.2355 -0.6345 -0.7361
  575TIP3   OH223139   5.076   4.922  12.531 -0.2848 -0.2875 -0.5926
  575TIP3    H123140   5.048   4.960  12.614  0.5876  1.1562 -0.9274
  575TIP3    H223141   5.057   4.829  12.540 -0.5768 -0.0996  1.0703
  576TIP3   OH223142   4.027   3.345  11.454 -0.0704 -0.0513 -0.0533
  576TIP3    H123143   3.960   3.301  11.506 -0.3030  0.0891 -0.2304
  576TIP3    H223144   4.080   3.393  11.518  0.7581 -1.3278  0.2420
  577TIP3   OH223145   6.623   5.218  16.650  0.4296 -0.0547 -0.0089
  577TIP3    H123146   6.651   5.170  16.728  0.8233  1.1471  0.6185
  577TIP3    H223147   6.687   5.194  16.583  1.3379  0.5228  0.6357
  578TIP3   OH223148   3.656   1.814  11.979 -0.0793 -0.2262  0.0581
  578TIP3    H123149   3.638   1.840  12.070 -0.7896 -0.4417 -0.0152
  578TIP3    H223150   3.745   1.845  11.963 -0.4513  1.0765  0.3715
  579TIP3   OH223151   5.822   2.541  15.691 -0.5615 -0.0473 -0.1610
  579TIP3    H123152   5.819   2.615  15.752 -0.6497  0.0138 -0.2405
  579TIP3    H223153   5.848   2.580  15.608  4.2780 -0.6912  0.7686
  580TIP3   OH223154   5.192   2.666  14.961  0.2188 -0.2502 -0.0815
  580TIP3    H123155   5.253   2.593  14.975  1.4433  0.7496 -0.0710
  580TIP3    H223156   5.232   2.740  15.007 -1.1771  0.3596  0.2085
  581TIP3   OH223157   3.071   4.287   1.478  0.0915 -0.0559  0.1919
  581TIP3    H123158   3.078   4.283   1.573  0.3847 -0.0225  0.1716
  581TIP3    H223159   3.153   4.327   1.449 -0.4898  1.0674  0.0101
  582TIP3   OH223160   0.739   5.248   2.229  0.3243 -0.2227 -0.1756
  582TIP3    H123161   0.829   5.222   2.211  0.8699  1.4334 -0.0706
  582TIP3    H223162   0.687   5.169   2.216  1.7973 -1.2174 -0.1913
  583TIP3   OH223163   1.264   4.092  11.958 -0.1635  0.1708  0.2035
  583TIP3    H123164   1.186   4.097  11.903 -0.3160  0.3246  0.4312
  583TIP3    H223165   1.251   4.012  12.010 -0.1878  0.2162  0.2675
  584TIP3   OH223166   2.736   0.935  14.940  0.2059 -0.5986  0.3363
  584TIP3    H123167   2.742   0.948  14.845 -0.2214 -2.4656  0.0293
  584TIP3    H223168   2.642   0.938  14.959  0.1151 -2.3359  0.3370
  585TIP3   OH223169   2.129   0.148  13.903 -0.1150  0.0416  0.5921
  585TIP3    H123170   2.162   0.170  13.816 -0.9080  0.3299  0.3609
  585TIP3    H223171   2.038   0.123  13.889 -0.9723  2.3242  1.6252
  586TIP3   OH223172   0.265   5.269   4.081 -0.2460  0.7982 -0.0617
  586TIP3    H123173   0.193   5.322   4.047  0.7792  2.8525  0.7600
  586TIP3    H223174   0.231   5.231   4.162 -1.0254  0.0644 -0.7117
  587TIP3   OH223175   5.158   0.586  15.310 -0.3904 -0.5601 -0.6477
  587TIP3    H123176   5.083   0.571  15.367 -1.4754  1.5687 -1.4053
  587TIP3    H223177   5.150   0.521  15.241  0.0058 -2.0791  0.6807
  588TIP3   OH223178   2.955   2.532   4.864 -0.1747  0.1714  0.0319
  588TIP3    H123179   2.999   2.597   4.918 -0.3723  0.9810 -0.7567
  588TIP3    H223180   2.861   2.548   4.878 -0.2262 -0.4414  0.4159
  589TIP3   OH223181   4.963   3.387   3.712  0.2498 -0.1483 -0.0142
  589TIP3    H123182   5.028   3.374   3.643  1.9514 -1.3417  1.7136
  589TIP3    H223183   4.948   3.481   3.714  0.6813 -0.0244 -1.5365
  590TIP3   OH223184   2.681   6.111  11.318 -0.3375  0.5190  0.0404
  590TIP3    H123185   2.618   6.148  11.379  0.4996  1.3793  0.4223
  590TIP3    H223186   2.709   6.029  11.359 -0.3352  0.7223  0.4549
  591TIP3   OH223187   1.754   6.740   5.688  0.0298 -0.7582  0.8425
  591TIP3    H123188   1.744   6.700   5.602 -1.1703  1.6293 -0.2514
  591TIP3    H223189   1.841   6.714   5.718  1.1275 -0.4164 -1.8219
  592TIP3   OH223190   2.647   3.100   3.137  0.3530  0.7395  0.1733
  592TIP3    H123191   2.626   3.008   3.152  0.7997  0.6827  0.4805
  592TIP3    H223192   2.564   3.141   3.113 -0.4126  0.8190  2.6659
  593TIP3   OH223193   3.391   4.887  16.274 -0.0584 -0.3392 -0.5617
  593TIP3    H123194   3.470   4.937  16.293 -0.6196 -0.2046  1.6920
  593TIP3    H223195   3.319   4.948  16.290 -0.6603 -0.7951 -1.4375
  594TIP3   OH223196   2.797   3.187  15.490  0.8628 -0.2602 -0.2041
  594TIP3    H123197   2.736   3.138  15.545  2.0091 -3.2332 -1.3609
  594TIP3    H223198   2.747   3.205  15.410  0.6123 -0.1005 -0.0124
  595TIP3   OH223199   2.454   5.278  12.584  0.4671  0.4673  0.4583
  595TIP3    H123200   2.374   5.320  12.613  0.3718  0.9793 -0.4988
  595TIP3    H223201   2.522   5.315  12.640  0.1250  0.5091  0.8509
  596TIP3   OH223202   0.060   2.238  11.957  0.0929 -0.3794 -0.4292
  596TIP3    H123203   0.109   2.319  11.968  0.3389 -0.3147 -1.7854
  596TIP3    H223204  -0.019   2.250  12.010  0.9386  0.0232  0.7747
  597TIP3   OH223205   3.934   3.216  13.059  0.5565  0.6336  0.4310
  597TIP3    H123206   3.968   3.305  13.049  2.0716  0.1987  1.4161
  597TIP3    H223207   3.882   3.220  13.139 -0.2135  0.8586 -0.0723
  598TIP3   OH223208   2.616   4.172   0.827  0.8422  0.5599  0.1228
  598TIP3    H123209   2.577   4.227   0.895 -0.4035  0.2284 -0.2834
  598TIP3    H223210   2.675   4.231   0.780  1.3148  0.9250  1.1491
  599TIP3   OH223211   6.645   2.471  15.627 -0.7044 -0.0225 -0.3183
  599TIP3    H123212   6.734   2.467  15.591 -1.6138 -0.9855 -2.6874
  599TIP3    H223213   6.606   2.548  15.585 -0.2993  1.9741  2.6764
  600TIP3   OH223214   4.145   1.922   4.712  0.2799  0.1451  0.2825
  600TIP3    H123215   4.105   1.866   4.645 -1.3996  0.1436  1.2317
  600TIP3    H223216   4.155   2.007   4.669  1.1890 -0.3792 -0.6017
  601TIP3   OH223217   2.364   1.616   2.057 -0.5163  0.2112  0.1467
  601TIP3    H123218   2.415   1.638   1.979  1.9136 -1.0032  1.2984
  601TIP3    H223219   2.307   1.692   2.070  1.5843  2.0643 -0.7663
  602TIP3   OH223220   3.114   2.842   5.721 -0.2106  0.3992  0.1433
  602TIP3    H123221   3.209   2.842   5.734 -0.0145  0.6963 -1.1400
  602TIP3    H223222   3.085   2.759   5.759  0.4380  0.6913  1.3038
  603TIP3   OH223223   1.597   5.591  14.663 -0.7106  0.5382 -0.4307
  603TIP3    H123224   1.685   5.555  14.645 -0.4034  0.9520  0.2046
  603TIP3    H223225   1.614   5.671  14.713 -1.4820  0.2067  0.3807
  604TIP3   OH223226   0.663   0.311  13.848 -0.0665 -0.2556  0.1704
  604TIP3    H123227   0.677   0.381  13.911  0.1350  1.0822 -1.2928
  604TIP3    H223228   0.663   0.231  13.900 -0.0986  0.8085  1.8656
  605TIP3   OH223229   4.632   0.302   0.129 -0.1631 -0.9598 -0.1613
  605TIP3    H123230   4.665   0.229   0.078  1.1049 -0.8833  0.5210
  605TIP3    H223231   4.700   0.370   0.122  0.2999 -1.1181  1.9678
  606TIP3   OH223232   4.583   4.700  13.577 -0.3471 -0.2727  0.4050
  606TIP3    H123233   4.538   4.756  13.641 -0.8804 -0.9258  0.6166
  606TIP3    H223234   4.649   4.654  13.629  1.0308  1.1530 -0.0205
  607TIP3   OH223235   5.815   4.479   4.155  0.0711 -0.0725  0.1330
  607TIP3    H123236   5.815   4.467   4.250  1.5372 -1.3082  0.0108
  607TIP3    H223237   5.780   4.567   4.142 -0.2973  0.0559  1.8025
  608TIP3   OH223238   0.557   3.192   2.535 -0.1865 -0.1579  0.1557
  608TIP3    H123239   0.493   3.236   2.591  0.5890  0.1389  0.8395
  608TIP3    H223240   0.521   3.199   2.447 -1.2973 -0.3738  0.5712
  609TIP3   OH223241   5.658   0.633  12.085  0.1919  0.5378 -0.4626
  609TIP3    H123242   5.570   0.599  12.066  0.1084 -1.4949  2.7989
  609TIP3    H223243   5.714   0.586  12.024 -0.6290 -1.1988  0.0275
  610TIP3   OH223244   4.935   1.407   4.020 -0.3690  0.2885  0.0905
  610TIP3    H123245   4.995   1.356   3.965 -0.8779  0.0600 -0.2573
  610TIP3    H223246   4.976   1.494   4.026  0.6811 -0.2463  0.9716
  611TIP3   OH223247   2.176   4.748   4.943  0.3461  0.5678  0.5100
  611TIP3    H123248   2.136   4.809   4.881  0.2692 -0.3251 -0.3530
  611TIP3    H223249   2.266   4.739   4.912 -0.0164 -0.8029 -0.2286
  612TIP3   OH223250   6.005   4.445   2.133  0.0538  0.0353  0.0697
  612TIP3    H123251   5.970   4.372   2.082  1.3379 -0.0514 -0.7197
  612TIP3    H223252   5.936   4.511   2.130 -0.7478 -0.7735  0.0193
  613TIP3   OH223253   4.345   4.062  14.958 -0.2423 -0.0058 -0.3380
  613TIP3    H123254   4.399   4.050  15.036 -0.1881  0.8978 -0.2330
  613TIP3    H223255   4.402   4.110  14.897 -0.5652  0.0153 -0.6262
  614TIP3   OH223256   5.263   0.148   3.383 -0.0450  0.3165 -0.4004
  614TIP3    H123257   5.210   0.070   3.403  0.5786  0.2250  1.0107
  614TIP3    H223258   5.344   0.112   3.347  0.0900  0.3229 -0.1072
  615TIP3   OH223259   6.472   6.460  13.457 -0.3765  0.3267  0.0887
  615TIP3    H123260   6.492   6.384  13.511 -3.1483 -0.0326  0.7619
  615TIP3    H223261   6.496   6.433  13.368  0.6897 -0.4977  0.6087
  616TIP3   OH223262   0.473   2.891  16.770  0.4648  0.1332 -0.3290
  616TIP3    H123263   0.527   2.846  16.705  1.8630  2.6849 -1.0861
  616TIP3    H223264   0.420   2.952  16.720 -2.0729 -1.1721  0.5830
  617TIP3   OH223265   2.447   1.439   0.459  0.3746  0.2791 -0.5173
  617TIP3    H123266   2.414   1.359   0.501  0.2573  1.1481  1.1537
  617TIP3    H223267   2.542   1.431   0.463  0.3730 -0.1900 -1.2260
  618TIP3   OH223268   6.018   1.713  12.722 -0.2468 -0.1413  0.0065
  618TIP3    H123269   6.058   1.786  12.770 -1.7122 -0.0223  1.1049
  618TIP3    H223270   5.999   1.647  12.788 -0.0062 -1.0537 -0.8083
  619TIP3   OH223271   2.361   3.008   1.705 -0.4703  0.0022  0.3433
  619TIP3    H123272   2.412   3.087   1.723 -0.8706  0.5631 -0.8344
  619TIP3    H223273   2.418   2.955   1.650 -0.2232 -0.5108  1.0894
  620TIP3   OH223274   0.547   0.670   5.289 -0.0363 -0.2097 -0.4156
  620TIP3    H123275   0.548   0.747   5.346 -0.6126 -1.4675  1.3864
  620TIP3    H223276   0.463   0.628   5.308  0.2587 -1.2777 -1.3839
  621TIP3   OH223277   2.827   4.677  10.641 -0.1467  0.3577  0.1471
  621TIP3    H123278   2.793   4.604  10.693  0.3479  0.3894  0.5223
  621TIP3    H223279   2.922   4.672  10.653  0.1581 -0.7043 -2.1258
  622TIP3   OH223280   5.185   1.237   4.003  0.5239 -0.0774 -0.4090
  622TIP3    H123281   5.251   1.302   4.028  0.3153  1.8176 -3.9836
  622TIP3    H223282   5.146   1.209   4.085  1.7845  3.1173  1.4755
  623TIP3   OH223283   4.724   5.113   5.695  0.1906  0.0710 -0.5362
  623TIP3    H123284   4.641   5.066   5.700  0.5996 -0.6326 -0.1450
  623TIP3    H223285   4.706   5.197   5.738 -0.4184  0.0865 -0.8075
  624TIP3   OH223286   5.064   6.158   1.496 -0.4278 -0.2126 -1.1567
  624TIP3    H123287   5.152   6.192   1.513 -0.3638  0.6791 -2.9977
  624TIP3    H223288   5.028   6.217   1.430 -1.2710 -2.3224 -2.7021
  625TIP3   OH223289   6.597   3.482   3.018  0.1064 -0.7018 -0.0888
  625TIP3    H123290   6.601   3.415   3.085 -0.7119  0.7910  1.5445
  625TIP3    H223291   6.503   3.493   2.999  0.3502 -1.6961 -2.1720
  626TIP3   OH223292   2.811   1.958  13.493 -0.6321 -0.4094  0.6782
  626TIP3    H123293   2.904   1.976  13.507 -0.8609  0.9751  0.5101
  626TIP3    H223294   2.780   2.031  13.439 -1.2024 -2.2678 -1.6532
  627TIP3   OH223295   4.471   3.986  13.911 -0.5486 -0.0476 -0.7020
  627TIP3    H123296   4.551   3.975  13.962 -0.8655  1.3036  0.1527
  627TIP3    H223297   4.476   3.919  13.843 -0.0745 -1.9191  1.0594
  628TIP3   OH223298   0.054   2.745  16.073  0.7347 -0.6634  0.1492
  628TIP3    H123299   0.050   2.652  16.094  0.3700 -0.3347  1.6148
  628TIP3    H223300   0.145   2.769  16.086  0.8347 -0.8033 -0.2551
  629TIP3   OH223301   0.701   1.438  13.137  0.0836  0.1793  0.0254
  629TIP3    H123302   0.627   1.464  13.192  0.9316  0.0221  1.2922
  629TIP3    H223303   0.696   1.496  13.061 -0.8547  0.7322  0.4869
  630TIP3   OH223304   0.556   0.311  15.804  0.1577  0.1718 -0.3055
  630TIP3    H123305   0.594   0.333  15.889  0.8807  0.4394 -0.6910
  630TIP3    H223306   0.488   0.246  15.824  0.2129  0.3521  0.4897
  631TIP3   OH223307   4.942   1.480   4.941  0.1204 -0.1117  0.5009
  631TIP3    H123308   5.026   1.442   4.969 -0.5589 -1.5982  0.6034
  631TIP3    H223309   4.948   1.484   4.846  0.5638  0.4314  0.5467
  632TIP3   OH223310   2.232   3.108  11.517  0.2083  0.7020  0.1351
  632TIP3    H123311   2.142   3.100  11.485  0.1001  1.7555  0.1336
  632TIP3    H223312   2.223   3.141  11.606  0.5209 -1.7839  1.1655
  633TIP3   OH223313   1.061   6.505  15.876  0.1343 -0.2597 -0.3748
  633TIP3    H123314   0.967   6.494  15.891 -0.0364  0.9917 -0.4129
  633TIP3    H223315   1.094   6.540  15.959  0.3994  0.1616 -0.6572
  634TIP3   OH223316   3.354   2.023   1.919  0.2689 -0.0967 -0.1048
  634TIP3    H123317   3.405   2.103   1.911  0.1424 -0.0390 -0.3531
  634TIP3    H223318   3.372   1.974   1.839  0.7784 -0.5738  0.2926
  635TIP3   OH223319   4.148   3.412  16.685  0.3966 -0.2019  0.1034
  635TIP3    H123320   4.232   3.437  16.726 -0.5680 -0.9031  2.7226
  635TIP3    H223321   4.157   3.318  16.670  0.1293 -0.2575  0.2938
  636TIP3   OH223322   5.195   4.137   3.012  0.5843  0.6160 -0.1189
  636TIP3    H123323   5.208   4.053   3.055  1.3759  0.4391 -0.6992
  636TIP3    H223324   5.278   4.184   3.025  0.8634  0.5381 -1.4897
  637TIP3   OH223325   4.113   5.621   6.273  0.0520 -0.1489 -0.2662
  637TIP3    H123326   4.201   5.590   6.254  0.0649  0.7017 -1.7336
  637TIP3    H223327   4.120   5.667   6.357  1.0133 -0.0115 -0.4153
  638TIP3   OH223328   4.921   5.651   3.820  0.4507  0.2236 -0.1233
  638TIP3    H123329   4.854   5.659   3.888  0.3859  0.0820 -0.1703
  638TIP3    H223330   4.887   5.703   3.747  0.2365 -0.1112 -0.2665
  639TIP3   OH223331   1.077   3.067   5.878  0.7988  0.6995  0.5994
  639TIP3    H123332   1.116   3.065   5.791 -0.2945  1.4668  0.0658
  639TIP3    H223333   1.115   3.143   5.921  1.0144  0.5692  0.6427
  640TIP3   OH223334   3.103   2.881   2.328  0.2334  0.7297 -0.1681
  640TIP3    H123335   3.057   2.960   2.300 -1.5441 -0.2370 -0.1497
  640TIP3    H223336   3.072   2.813   2.267  2.0635  0.1193 -0.4740
  641TIP3   OH223337   4.143   3.199   1.180  0.0768 -0.1208 -0.1330
  641TIP3    H123338   4.154   3.132   1.247  1.2563 -0.2403 -0.4263
  641TIP3    H223339   4.050   3.221   1.183  0.3767  1.1803  2.8170
  642TIP3   OH223340   0.427   1.860  15.735 -0.3796  1.0557 -0.3281
  642TIP3    H123341   0.509   1.862  15.785  0.4935  1.6149 -1.7239
  642TIP3    H223342   0.455   1.842  15.645 -1.8197  1.0809 -0.7957
  643TIP3   OH223343   0.711   0.147   5.730  0.0669 -0.7369  0.3908
  643TIP3    H123344   0.770   0.222   5.742  1.4221 -1.7307  0.1460
  643TIP3    H223345   0.729   0.117   5.641 -0.8351 -1.0476  0.3067
  644TIP3   OH223346   3.808   3.615  12.707 -0.6251 -0.0506  0.1587
  644TIP3    H123347   3.844   3.644  12.790  0.9306  0.1785 -0.5668
  644TIP3    H223348   3.881   3.573  12.662 -1.7358 -1.2736 -0.6045
  645TIP3   OH223349   2.161   6.629  13.352 -0.3926 -0.5084  0.3761
  645TIP3    H123350   2.065   6.635  13.351 -0.4332 -1.1720  0.1187
  645TIP3    H223351   2.181   6.549  13.303  0.3184 -0.0897 -0.0315
  646TIP3   OH223352   1.708   1.912   1.071 -0.4089 -0.2204 -0.0449
  646TIP3    H123353   1.664   1.829   1.090 -0.4816 -0.3184 -0.6382
  646TIP3    H223354   1.639   1.966   1.032  0.1046 -0.5321 -1.4140
  647TIP3   OH223355   4.117   6.528   3.503  0.1063  0.6845  0.2910
  647TIP3    H123356   4.084   6.598   3.560  0.4078  0.0916  1.2095
  647TIP3    H223357   4.170   6.473   3.560 -0.2780 -0.4086 -0.3730
  648TIP3   OH223358   5.573   6.079  11.703 -0.3115 -0.7785 -0.0019
  648TIP3    H123359   5.515   6.134  11.756 -1.1089 -1.5773 -0.0313
  648TIP3    H223360   5.592   6.132  11.626  0.3982  0.1741  0.7963
  649TIP3   OH223361   5.184   3.618   0.236 -0.7258 -0.2514  0.0136
  649TIP3    H123362   5.192   3.707   0.272  1.0881 -0.8934  1.3204
  649TIP3    H223363   5.095   3.615   0.201 -1.0430  1.8824  0.4800
  650TIP3   OH223364   2.464   2.516   4.047  0.4585 -0.4568 -0.0210
  650TIP3    H123365   2.538   2.469   4.008  0.1790  0.0427 -1.1915
  650TIP3    H223366   2.463   2.600   4.003 -1.4620 -0.8447 -0.8136
  651TIP3   OH223367   3.292   5.493  15.186  0.7640  0.2586 -0.2012
  651TIP3    H123368   3.309   5.561  15.251 -1.7410  0.8508 -0.0577
  651TIP3    H223369   3.274   5.542  15.105 -1.1120 -0.1569 -0.0809
  652TIP3   OH223370   2.977   6.639  12.203  0.2435  0.3492 -0.0641
  652TIP3    H123371   3.023   6.690  12.270 -0.6174  0.1804  0.6644
  652TIP3    H223372   3.043   6.625  12.134  0.8384  1.4097  0.2691
  653TIP3   OH223373   4.429   3.571   4.844 -0.3174  0.0682  0.1981
  653TIP3    H123374   4.523   3.588   4.854 -0.3949  0.4050  0.3777
  653TIP3    H223375   4.412   3.582   4.751 -0.0916 -0.4553  0.0924
  654TIP3   OH223376   5.645   5.614  14.680 -0.3810 -0.0766 -0.0167
  654TIP3    H123377   5.689   5.661  14.610  0.9349 -0.8150  0.2940
  654TIP3    H223378   5.631   5.526  14.645  0.9443 -0.6696  0.8759
  655TIP3   OH223379   6.629   0.348  16.626  0.4602 -0.3545 -0.3275
  655TIP3    H123380   6.610   0.427  16.576 -1.8397 -1.1463 -0.8318
  655TIP3    H223381   6.632   0.377  16.717 -0.2901  0.3514 -0.5161
  656TIP3   OH223382   4.045   5.329  15.053  0.4776 -0.1949  0.7020
  656TIP3    H123383   4.044   5.420  15.026 -3.4576 -0.2882 -0.0133
  656TIP3    H223384   3.962   5.316  15.099 -0.1138 -3.8227 -0.9848
  657TIP3   OH223385   4.576   2.487  11.333  0.1930 -0.0264  0.0252
  657TIP3    H123386   4.626   2.524  11.406  2.3277  4.6176 -3.2764
  657TIP3    H223387   4.496   2.541  11.330 -0.6864 -1.2958 -0.1307
  658TIP3   OH223388   6.643   1.166  12.938  0.2732 -0.0711 -0.1489
  658TIP3    H123389   6.650   1.083  12.891  1.8494  0.4493 -0.9257
  658TIP3    H223390   6.603   1.143  13.021 -0.6698 -1.3627 -0.9217
  659TIP3   OH223391   4.105   1.180   4.856  0.3421 -0.0826 -0.6036
  659TIP3    H123392   4.103   1.179   4.952 -3.4701 -0.4396 -0.5340
  659TIP3    H223393   4.171   1.116   4.833  1.4417  0.0890  1.7701
  660TIP3   OH223394   0.115   0.143   6.098 -0.0655  0.7826  0.5360
  660TIP3    H123395   0.135   0.061   6.143 -2.5649  0.0870  0.5677
  660TIP3    H223396   0.035   0.175   6.141  0.0880  2.5241 -0.3882
  661TIP3   OH223397   0.706   2.776  12.035  0.4512  0.6443 -0.5252
  661TIP3    H123398   0.710   2.832  11.958 -1.5635  0.8022 -0.5723
  661TIP3    H223399   0.629   2.807  12.083  0.6329 -0.5959  0.6321
  662TIP3   OH223400   6.097   2.333   0.329  0.0785 -0.0894 -0.6522
  662TIP3    H123401   6.158   2.287   0.270  0.5429 -0.7222  0.3045
  662TIP3    H223402   6.150   2.354   0.406 -0.6807  0.1779 -0.1959
  663TIP3   OH223403   1.944   2.296   1.735  0.3500  0.1499 -0.3390
  663TIP3    H123404   1.972   2.257   1.817  0.7691 -0.2598 -0.6790
  663TIP3    H223405   2.019   2.348   1.706 -0.1055  1.0143 -0.0240
  664TIP3   OH223406   2.535   3.544   1.559  0.6764  0.2196 -0.1672
  664TIP3    H123407   2.471   3.521   1.626  2.2836 -0.0199  1.3311
  664TIP3    H223408   2.503   3.627   1.523 -0.9933 -0.3848 -0.1892
  665TIP3   OH223409   4.469   4.157   0.629  0.6810  0.1642  0.1422
  665TIP3    H123410   4.484   4.111   0.712 -1.2327  0.4423  0.6926
  665TIP3    H223411   4.539   4.127   0.572  1.4865 -0.7785  1.5656
  666TIP3   OH223412   0.393   2.983  15.766 -0.5903 -0.2411  0.2476
  666TIP3    H123413   0.364   3.012  15.852  0.1791 -0.7758  0.6913
  666TIP3    H223414   0.417   2.891  15.778 -1.1912 -0.5405 -0.7104
  667TIP3   OH223415   5.788   5.718  13.345  0.5977  0.3694  0.1993
  667TIP3    H123416   5.835   5.801  13.347  0.1999  0.6956 -1.7109
  667TIP3    H223417   5.856   5.653  13.326  0.6503  0.5014 -0.0708
  668TIP3   OH223418   5.771   3.679   4.782 -0.3325 -0.0505 -0.7251
  668TIP3    H123419   5.858   3.645   4.758  0.1797 -0.0265  0.9486
  668TIP3    H223420   5.720   3.601   4.802 -1.0778 -0.1374 -2.7150
  669TIP3   OH223421   5.693   3.649   5.359  0.0751 -0.2916  0.5022
  669TIP3    H123422   5.676   3.700   5.280 -0.0987  1.5222  1.6580
  669TIP3    H223423   5.613   3.598   5.373 -0.9952  1.4526  0.9912
  670TIP3   OH223424   1.777   2.656   4.272  0.5961  0.6831  0.5218
  670TIP3    H123425   1.732   2.613   4.199  1.4670  0.4938  0.0882
  670TIP3    H223426   1.739   2.744   4.274 -0.3216  0.2973  0.6440
  671TIP3   OH223427   4.163   2.189   4.084  0.3277  0.2549  0.5935
  671TIP3    H123428   4.108   2.114   4.060  0.4430  0.0236  1.0448
  671TIP3    H223429   4.110   2.239   4.146  0.2887  0.5010  0.3661
  672TIP3   OH223430   0.575   0.839  16.455  0.0931 -0.3593  0.2084
  672TIP3    H123431   0.576   0.836  16.359  0.1174 -1.2255  0.2272
  672TIP3    H223432   0.573   0.932  16.476  3.1848 -0.0076 -0.5917
  673TIP3   OH223433   3.024   1.664  16.339 -0.2537  0.2833 -0.4383
  673TIP3    H123434   2.941   1.709  16.322  0.3062  0.9347 -1.5635
  673TIP3    H223435   2.998   1.581  16.379 -1.5534 -0.1259 -2.0124
  674TIP3   OH223436   1.314   4.546   5.249  0.1702  0.4956 -0.1005
  674TIP3    H123437   1.332   4.570   5.340 -0.4480  0.0957  0.1289
  674TIP3    H223438   1.337   4.453   5.244 -0.9804  0.1975 -0.0243
  675TIP3   OH223439   2.372   3.637  10.860 -0.2826  0.3028 -0.4658
  675TIP3    H123440   2.403   3.692  10.788  0.4245 -1.0903 -1.2695
  675TIP3    H223441   2.447   3.629  10.919 -0.1283 -0.4391 -0.7587
  676TIP3   OH223442   2.612   3.776  13.873  0.2469  0.4547  0.1587
  676TIP3    H123443   2.623   3.703  13.933  1.4601  0.1994 -0.3279
  676TIP3    H223444   2.678   3.840  13.901  0.0521  0.8179 -0.1937
  677TIP3   OH223445   0.091   5.843   2.002  0.6628  0.1537  0.2965
  677TIP3    H123446   0.076   5.938   2.002 -0.2930  0.0373 -1.4367
  677TIP3    H223447   0.127   5.825   1.915 -0.6152 -1.2713  0.0244
  678TIP3   OH223448   4.184   1.416  16.076  0.4444  0.0984 -0.3753
  678TIP3    H123449   4.130   1.493  16.058 -0.0068 -0.3579 -1.0562
  678TIP3    H223450   4.181   1.407  16.171  1.1915  1.3964 -0.2094
  679TIP3   OH223451   3.994   1.443  15.395  0.6070 -0.3413 -0.2719
  679TIP3    H123452   4.047   1.450  15.316  0.3842  2.9238 -0.2474
  679TIP3    H223453   3.914   1.398  15.366  1.8462 -2.1020 -1.1035
  680TIP3   OH223454   3.079   4.996  14.381 -0.2318  0.1345 -0.0738
  680TIP3    H123455   3.149   4.940  14.416  0.0004 -0.2067 -1.0465
  680TIP3    H223456   3.125   5.067  14.336 -0.5237  0.5376  0.2569
  681TIP3   OH223457   0.888   1.454   4.329 -0.1973 -0.4381 -0.1347
  681TIP3    H123458   0.943   1.400   4.272 -1.9842 -0.5190 -1.9203
  681TIP3    H223459   0.948   1.491   4.393  1.6801 -1.5843 -1.1407
  682TIP3   OH223460   1.363   0.111  16.868  0.1652  0.1539 -0.0596
  682TIP3    H123461   1.275   0.076  16.883 -0.5104  1.7736 -0.0353
  682TIP3    H223462   1.414   0.035  16.839 -1.0095 -0.9983  0.7452
  683TIP3   OH223463   0.339   2.941  13.263 -0.2672  0.1249 -0.0459
  683TIP3    H123464   0.381   3.026  13.278  1.2001 -0.5945  0.1144
  683TIP3    H223465   0.370   2.886  13.334 -1.9308 -0.3279  0.3722
  684TIP3   OH223466   5.952   5.175   5.644  0.3678  0.6319 -0.0060
  684TIP3    H123467   5.910   5.107   5.697 -2.6800  2.1976 -0.1702
  684TIP3    H223468   5.990   5.234   5.707  0.5149  0.2659  0.2514
  685TIP3   OH223469   0.267   6.161  16.867  0.1844 -0.6546  0.4012
  685TIP3    H123470   0.271   6.160  16.772 -0.6999 -0.6672  0.3545
  685TIP3    H223471   0.207   6.233  16.888  1.0185 -0.1149  0.9767
  686TIP3   OH223472   5.479   6.409  10.807  0.2641 -0.1058  0.1395
  686TIP3    H123473   5.525   6.351  10.746  0.2023  0.2476 -0.2461
  686TIP3    H223474   5.438   6.475  10.751 -1.8413 -1.1630  0.3225
  687TIP3   OH223475   1.346   0.670  17.143  0.0377  0.3382 -0.7115
  687TIP3    H123476   1.267   0.617  17.131  0.0317 -0.0546  0.7951
  687TIP3    H223477   1.365   0.705  17.057 -0.8804 -0.8399 -1.4255
  688TIP3   OH223478   2.289   2.217   1.639 -0.2180  0.4441 -0.1728
  688TIP3    H123479   2.207   2.167   1.640  0.3052 -0.4563 -1.5025
  688TIP3    H223480   2.275   2.284   1.706 -1.2257 -0.9848  1.1244
  689TIP3   OH223481   5.938   5.251  13.722  0.0427 -0.3825  0.1704
  689TIP3    H123482   5.869   5.250  13.788 -0.2174 -5.0487  0.1602
  689TIP3    H223483   5.897   5.213  13.644  1.8844 -0.5799 -0.7563
  690TIP3   OH223484   0.212   3.757   3.596  0.0157  0.2460 -0.0680
  690TIP3    H123485   0.261   3.782   3.518 -0.0508 -0.1696 -0.2457
  690TIP3    H223486   0.121   3.781   3.577  0.1787  1.2539  0.3632
  691TIP3   OH223487   0.600   4.352  11.634  0.0677  0.0433 -0.4022
  691TIP3    H123488   0.640   4.325  11.552  0.2651  0.2987 -0.3903
  691TIP3    H223489   0.509   4.324  11.626 -0.7230  2.6210 -1.9635
  692TIP3   OH223490   3.549   0.806   1.066  0.2546  0.1723 -0.2310
  692TIP3    H123491   3.626   0.824   1.120  0.4744 -2.3544  0.4369
  692TIP3    H223492   3.512   0.892   1.047  0.9021  1.2627  2.8656
  693TIP3   OH223493   2.805   2.235   5.316  0.1580  0.0191 -0.2751
  693TIP3    H123494   2.746   2.279   5.377  0.8886  0.3729  0.1846
  693TIP3    H223495   2.876   2.297   5.301 -0.0960  0.0194 -1.6438
  694TIP3   OH223496   2.879   2.480   0.524 -0.8394 -0.1492  0.1105
  694TIP3    H123497   2.894   2.431   0.443 -1.6648  2.1282 -1.5449
  694TIP3    H223498   2.783   2.489   0.528 -0.7787  0.1155  1.1265
  695TIP3   OH223499   6.341   5.329  16.880 -0.5199  0.9616 -0.0389
  695TIP3    H123500   6.401   5.290  16.943 -2.0024  1.2211  1.6128
  695TIP3    H223501   6.317   5.414  16.919 -1.7751  0.9525 -0.7389
  696TIP3   OH223502   6.403   5.481  11.017  0.0072 -0.6337 -0.2538
  696TIP3    H123503   6.430   5.526  11.097 -1.9609  0.1757  0.0394
  696TIP3    H223504   6.476   5.493  10.956 -0.3139  2.9916 -0.1689
  697TIP3   OH223505   2.654   1.580  16.399  0.0842 -0.3831  0.0834
  697TIP3    H123506   2.705   1.519  16.346 -2.2014  1.1679 -4.5279
  697TIP3    H223507   2.565   1.544  16.398 -0.3282  0.5033  1.6738
  698TIP3   OH223508   0.796   4.822  16.150 -0.0706 -0.2296  0.0666
  698TIP3    H123509   0.855   4.747  16.143 -1.1676 -1.3512  1.7825
  698TIP3    H223510   0.844   4.886  16.203 -0.1369 -0.8754  0.9256
  699TIP3   OH223511   5.822   1.748  15.730  0.3918  0.7399  0.4604
  699TIP3    H123512   5.747   1.797  15.695  0.1616  1.7126  2.2238
  699TIP3    H223513   5.783   1.687  15.793  1.0001  0.5720  0.6764
  700TIP3   OH223514   1.900   3.956   5.669  0.0209  0.2475  0.5223
  700TIP3    H123515   1.979   4.002   5.643  0.2866 -0.9671 -0.9859
  700TIP3    H223516   1.928   3.865   5.683 -1.0243 -0.1364  0.2892
  701TIP3   OH223517   5.168   1.900   2.013 -0.2996  0.0746  0.2818
  701TIP3    H123518   5.129   1.983   2.039 -0.8793 -0.1513  0.1423
  701TIP3    H223519   5.185   1.854   2.096  1.3436  0.8968  0.4557
  702TIP3   OH223520   2.453   4.290  13.163 -0.1627  0.2081 -0.0843
  702TIP3    H123521   2.419   4.379  13.152 -0.7793  0.3249  2.3072
  702TIP3    H223522   2.522   4.298  13.228  0.5082 -0.9268 -0.6232
  703TIP3   OH223523   2.011   6.686   3.860  0.3451 -0.1434 -0.1380
  703TIP3    H123524   2.077   6.667   3.926 -0.4708  0.5654  0.9213
  703TIP3    H223525   1.935   6.633   3.887  0.8396 -1.9566 -2.0500
  704TIP3   OH223526   1.276   6.319  13.484  0.0601 -0.3557  0.2650
  704TIP3    H123527   1.354   6.368  13.510 -0.5179  0.6412  0.1829
  704TIP3    H223528   1.204   6.361  13.531 -1.0296  1.4736 -2.6930
  705TIP3   OH223529   1.144   1.742  10.641 -0.0567  0.0785  0.5603
  705TIP3    H123530   1.194   1.706  10.568 -0.1442 -1.9912  1.4520
  705TIP3    H223531   1.156   1.837  10.634  0.3732 -0.1013 -1.7932
  706TIP3   OH223532   3.148   4.303  12.632 -0.3118 -0.1310 -0.6741
  706TIP3    H123533   3.154   4.210  12.608 -1.7982 -0.1918 -0.8521
  706TIP3    H223534   3.147   4.349  12.548 -0.7137 -0.0208 -0.6065
  707TIP3   OH223535   4.256   0.223  17.108 -0.3183  0.0555  0.8189
  707TIP3    H123536   4.179   0.167  17.121  0.2650 -0.7742  0.8097
  707TIP3    H223537   4.298   0.225  17.194 -0.1429  0.1766  0.7303
  708TIP3   OH223538   2.585   0.907   3.581  0.0325 -0.8073  0.7210
  708TIP3    H123539   2.624   0.909   3.494  0.8622 -1.9816  1.0427
  708TIP3    H223540   2.627   0.833   3.625 -0.1836 -0.0955  2.2052
  709TIP3   OH223541   0.822   2.710  12.289  0.1311  0.1843 -0.6857
  709TIP3    H123542   0.908   2.677  12.265  1.1216  1.9210  0.3137
  709TIP3    H223543   0.800   2.773  12.220  0.3225  0.7989 -0.1942
  710TIP3   OH223544   6.537   1.134  13.176 -0.1995 -0.0067  0.1617
  710TIP3    H123545   6.539   1.050  13.223  1.2860  0.3382  0.7791
  710TIP3    H223546   6.571   1.197  13.240  1.1926  0.6062 -1.1187
  711TIP3   OH223547   4.059   2.623   4.339 -0.8017 -0.3053  0.1446
  711TIP3    H123548   4.125   2.629   4.408  0.5876 -0.4788 -1.1169
  711TIP3    H223549   4.053   2.530   4.319  1.7497 -0.0497 -2.5872
  712TIP3   OH223550   0.837   0.478  10.511  0.5995 -0.3257  0.1738
  712TIP3    H123551   0.907   0.536  10.480 -0.2570  0.7534  0.1919
  712TIP3    H223552   0.882   0.410  10.560  1.5252  1.4994  1.9965
  713TIP3   OH223553   2.969   4.389   6.019 -0.5086  0.0020  0.1850
  713TIP3    H123554   2.977   4.469   6.071  1.9002 -0.0762  0.0253
  713TIP3    H223555   3.058   4.370   5.990 -1.4465 -1.1192 -2.2455
  714TIP3   OH223556   4.600   2.033  10.734  0.0588  0.2967  0.3605
  714TIP3    H123557   4.536   1.962  10.730 -1.5467  1.6727  0.8038
  714TIP3    H223558   4.611   2.060  10.643 -1.7617  1.5318  0.4559
  715TIP3   OH223559   5.847   2.134   4.646  0.1044 -0.0815 -0.1375
  715TIP3    H123560   5.913   2.074   4.680  0.8288  0.5031 -0.5032
  715TIP3    H223561   5.829   2.194   4.718  1.7056  1.2143 -0.7787
  716TIP3   OH223562   6.243   1.400   3.226 -0.4263 -0.3852  0.0420
  716TIP3    H123563   6.256   1.494   3.216  0.7561 -0.7092 -2.1138
  716TIP3    H223564   6.159   1.382   3.182 -1.0761 -0.2599  1.1903
  717TIP3   OH223565   5.898   1.688  13.992 -0.0601  0.7352 -0.2982
  717TIP3    H123566   5.971   1.744  14.019 -0.5422  1.9993 -1.4746
  717TIP3    H223567   5.914   1.671  13.900  0.1261 -1.2173  0.0579
  718TIP3   OH223568   1.441   3.437  12.385  0.1962  0.0209  0.2565
  718TIP3    H123569   1.402   3.521  12.407  0.3195  0.7347 -1.9795
  718TIP3    H223570   1.382   3.398  12.321 -0.1943 -1.9456  1.7054
  719TIP3   OH223571   5.036   5.322   3.992 -0.4114 -0.0608  0.8391
  719TIP3    H123572   5.007   5.240   4.033 -0.5529 -0.3953  0.0934
  719TIP3    H223573   4.986   5.390   4.036 -1.2058 -0.4970  0.6254
  720TIP3   OH223574   4.994   2.952  13.724 -0.5215  0.2075  0.4213
  720TIP3    H123575   5.036   2.925  13.642 -0.4706  1.6510 -0.0614
  720TIP3    H223576   5.043   2.908  13.792 -1.4386 -2.1592 -0.3541
  721TIP3   OH223577   6.751   0.879  14.217 -0.2804  0.1324  0.1009
  721TIP3    H123578   6.794   0.830  14.147 -0.1576  0.2838  0.0717
  721TIP3    H223579   6.691   0.815  14.256  1.1581 -0.5802  1.2338
  722TIP3   OH223580   0.129   2.374  10.850 -0.4981  0.2979 -0.6602
  722TIP3    H123581   0.165   2.420  10.774  1.1194 -0.6538 -0.5120
  722TIP3    H223582   0.171   2.415  10.925 -0.2586 -0.3247 -0.4414
  723TIP3   OH223583   4.689   3.926  14.067  0.0227  0.0479 -0.1828
  723TIP3    H123584   4.658   3.866  14.136  0.9676 -0.7825 -0.4650
  723TIP3    H223585   4.772   3.889  14.038  1.0416  1.9298  0.1739
  724TIP3   OH223586   6.206   1.715  14.314  0.4181 -0.6609 -1.0001
  724TIP3    H123587   6.200   1.652  14.386 -0.5918 -0.4048 -0.8466
  724TIP3    H223588   6.216   1.800  14.357  0.1418 -0.5433 -1.1643
  725TIP3   OH223589   3.090   0.111  14.818 -0.3506 -0.4927  0.1296
  725TIP3    H123590   3.111   0.017  14.823 -0.2345 -0.4413  0.7480
  725TIP3    H223591   2.998   0.116  14.842 -0.6068 -0.5353 -0.8093
  726TIP3   OH223592   4.678   1.295  15.517  0.3985  0.0054  0.4510
  726TIP3    H123593   4.707   1.204  15.509  3.2078  0.5361  2.8377
  726TIP3    H223594   4.590   1.290  15.554 -0.0692 -1.7021 -0.7861
  727TIP3   OH223595   4.504   0.797   5.140  0.8057 -0.3720  0.2606
  727TIP3    H123596   4.469   0.868   5.086 -0.1066 -0.1254  1.1431
  727TIP3    H223597   4.549   0.739   5.078  1.5104  0.9393 -0.4756
  728TIP3   OH223598   4.168   4.311  16.750  0.2985  0.0472  0.0267
  728TIP3    H123599   4.175   4.249  16.677 -1.9594 -2.1208  1.4620
  728TIP3    H223600   4.149   4.255  16.826 -0.3754  2.4333  1.7089
  729TIP3   OH223601   3.664   2.354  16.584  0.4583 -0.0861 -0.2297
  729TIP3    H123602   3.615   2.341  16.504 -0.1113  0.6318 -0.0067
  729TIP3    H223603   3.599   2.384  16.648  0.9473 -0.3975  0.4283
  730TIP3   OH223604   6.672   5.585  13.837 -0.2341 -0.3269  0.9387
  730TIP3    H123605   6.608   5.585  13.766  0.8863 -0.6664 -0.1011
  730TIP3    H223606   6.665   5.497  13.875  0.6175 -0.9073 -0.1544
  731TIP3   OH223607   2.620   5.229  11.791 -0.1022  0.2592 -0.2448
  731TIP3    H123608   2.686   5.194  11.851  0.0992  0.6407 -0.2423
  731TIP3    H223609   2.550   5.163  11.791  0.0231  0.1248  0.1891
  732TIP3   OH223610   4.453   0.949   2.297  0.0230 -0.4225  0.0332
  732TIP3    H123611   4.402   1.001   2.359 -1.1510 -2.1656  0.6159
  732TIP3    H223612   4.415   0.861   2.303  2.5192 -1.6042 -0.1969
  733TIP3   OH223613   6.401   5.095  11.960  0.3898 -0.1266  0.3702
  733TIP3    H123614   6.473   5.052  11.914 -0.4567 -0.2693 -0.8588
  733TIP3    H223615   6.372   5.031  12.025  1.7889  0.1910  1.3743
  734TIP3   OH223616   4.728   4.356  14.196 -0.0926  0.4118 -0.3552
  734TIP3    H123617   4.760   4.333  14.110 -1.4545  2.0518 -1.3762
  734TIP3    H223618   4.804   4.394  14.241  0.6372 -0.5046 -0.7858
  735TIP3   OH223619   4.167   5.474   4.698 -0.2687  0.3025 -0.2055
  735TIP3    H123620   4.165   5.388   4.739  0.4152 -0.9570 -2.6373
  735TIP3    H223621   4.260   5.494   4.687 -0.4297  0.5798 -1.1579
  736TIP3   OH223622   4.422   0.173  15.132  0.5062 -0.1376 -0.6593
  736TIP3    H123623   4.381   0.134  15.055 -0.3037 -0.1105 -0.2497
  736TIP3    H223624   4.488   0.232  15.096 -3.2361  3.9675 -1.7052
  737TIP3   OH223625   4.264   1.739  16.911  0.1235  0.1271  0.3052
  737TIP3    H123626   4.286   1.818  16.862 -0.2527  1.7161  2.5585
  737TIP3    H223627   4.186   1.705  16.867 -1.2202  2.4513  0.6877
  738TIP3   OH223628   4.036   6.142   1.956 -0.1552  0.3961  0.0952
  738TIP3    H123629   3.942   6.156   1.965 -0.6412 -3.0489  2.0137
  738TIP3    H223630   4.049   6.051   1.982  3.5684  0.3274 -1.4410
  739TIP3   OH223631   5.164   1.262   4.332 -0.1623 -0.6708 -0.4245
  739TIP3    H123632   5.103   1.333   4.315  0.8683  0.1843 -0.6170
  739TIP3    H223633   5.251   1.303   4.330  0.3807 -1.7263  0.5669
  740TIP3   OH223634   4.823   5.682   6.464  0.1304 -0.0746 -0.0103
  740TIP3    H123635   4.800   5.775   6.461  0.3194  0.1433  2.8745
  740TIP3    H223636   4.754   5.638   6.413 -0.0609  1.5839 -1.2557
  741TIP3   OH223637   2.352   3.556   1.955 -0.0746  0.5264  0.4305
  741TIP3    H123638   2.433   3.530   1.999  0.6689  1.5000 -0.3246
  741TIP3    H223639   2.282   3.532   2.016  0.7972 -0.1295  1.1823
  742TIP3   OH223640   1.741   0.202   6.720  0.0510 -1.1246 -0.1886
  742TIP3    H123641   1.775   0.121   6.757 -0.5333 -0.6840  1.3768
  742TIP3    H223642   1.649   0.204   6.746  0.2335  0.3858  0.4463
  743TIP3   OH223643   3.393   6.268  10.837  0.2155 -0.4508  0.8942
  743TIP3    H123644   3.303   6.246  10.862 -0.0735 -1.8374 -1.1069
  743TIP3    H223645   3.384   6.320  10.757  1.1660 -1.3278  0.1831
  744TIP3   OH223646   3.358   5.028   3.836  0.4176  0.3423  1.3672
  744TIP3    H123647   3.402   5.045   3.752 -1.5176  1.4605  0.5065
  744TIP3    H223648   3.337   4.934   3.833  0.3871  0.3666  0.5870
  745TIP3   OH223649   3.872   3.006  16.737  0.3183  0.3806  0.2865
  745TIP3    H123650   3.843   3.003  16.828 -2.5558  0.5839 -0.5164
  745TIP3    H223651   3.893   2.915  16.715  0.8767  0.3100  1.0953
  746TIP3   OH223652   3.539   4.417  15.775  0.4723 -0.0312  0.9796
  746TIP3    H123653   3.565   4.435  15.685 -1.5176  0.0494  0.3831
  746TIP3    H223654   3.604   4.353  15.806 -0.0213 -1.7342 -1.2410
  747TIP3   OH223655   4.243   6.644   3.980  0.2638 -0.6530  0.0502
  747TIP3    H123656   4.189   6.575   4.019 -0.3193  0.4377  1.2595
  747TIP3    H223657   4.240   6.716   4.044  1.8663  0.0346 -0.5989
  748TIP3   OH223658   5.578   1.940  11.797 -0.4150 -0.2003  0.3459
  748TIP3    H123659   5.509   1.934  11.730 -2.2555  0.0878  2.1112
  748TIP3    H223660   5.623   2.022  11.778 -0.5857 -0.3638 -0.8257
  749TIP3   OH223661   5.376   0.713  12.915  0.1228  0.1992 -0.2574
  749TIP3    H123662   5.333   0.731  12.999 -1.9830  0.9041 -1.4078
  749TIP3    H223663   5.421   0.795  12.894  2.3822 -0.6123  1.0586
  750TIP3   OH223664   6.108   2.351  13.367  0.2468 -0.2662  0.3236
  750TIP3    H123665   6.188   2.316  13.328  0.3383 -0.3335  0.5628
  750TIP3    H223666   6.044   2.280  13.359  0.2300 -0.2343  0.1847
  751TIP3   OH223667   2.867   2.686  11.687  0.4657  0.3302 -0.4535
  751TIP3    H123668   2.898   2.638  11.763 -0.3808  1.6444  0.7740
  751TIP3    H223669   2.880   2.626  11.613  2.8457 -0.3632  0.4405
  752TIP3   OH223670   2.799   4.161  12.410  0.0635 -0.2032  0.2054
  752TIP3    H123671   2.794   4.254  12.391 -2.7786 -0.6847 -2.1101
  752TIP3    H223672   2.761   4.152  12.498 -1.8453  0.6622 -0.4792
  753TIP3   OH223673   3.307   2.976  16.903 -0.1710  0.0605  0.0534
  753TIP3    H123674   3.249   3.010  16.835  1.5631  2.3035 -0.4248
  753TIP3    H223675   3.284   3.024  16.982  0.9417  0.9496 -0.1320
  754TIP3   OH223676   2.853   5.251  17.252 -0.4128 -0.4008 -0.6650
  754TIP3    H123677   2.909   5.313  17.205 -0.7196 -0.1954 -0.7653
  754TIP3    H223678   2.783   5.306  17.289 -0.2029 -0.5623 -0.0053
  755TIP3   OH223679   1.114   0.022   6.235  0.2737 -0.4346 -0.1982
  755TIP3    H123680   1.114  -0.044   6.304 -2.4721 -0.2160  0.1136
  755TIP3    H223681   1.147   0.101   6.277  1.4697 -1.0349  0.0223
  756TIP3   OH223682   5.790   6.165   5.787  0.1384  0.3387  0.3729
  756TIP3    H123683   5.702   6.200   5.774 -1.1925 -2.8223  0.0111
  756TIP3    H223684   5.811   6.188   5.878 -1.2797  0.7469  0.6305
  757TIP3   OH223685   4.693   0.019  14.732 -0.3769  0.4045  0.2185
  757TIP3    H123686   4.617  -0.028  14.698 -0.7034  1.6654 -0.8700
  757TIP3    H223687   4.728  -0.039  14.800 -1.3937 -0.8994 -0.3127
  758TIP3   OH223688   6.401   1.081   2.543 -0.9192  0.0629  0.0870
  758TIP3    H123689   6.470   1.078   2.477 -2.3572  1.9975 -1.6450
  758TIP3    H223690   6.401   1.171   2.574 -2.5914  0.1078  0.0799
  759TIP3   OH223691   4.648   4.029  15.108  0.0981 -0.2996  0.4056
  759TIP3    H123692   4.697   4.080  15.044  0.7421  1.0170  1.8600
  759TIP3    H223693   4.704   3.954  15.127 -0.3497 -1.0005 -0.9311
  760TIP3   OH223694   6.441   5.786  12.126 -0.1948  0.0038 -0.0740
  760TIP3    H123695   6.359   5.745  12.154  0.0714  0.1370  0.9457
  760TIP3    H223696   6.442   5.775  12.031 -1.3718 -0.0363 -0.0963
  761TIP3   OH223697   6.339   2.032  13.501  0.7221 -0.5046  0.2008
  761TIP3    H123698   6.423   1.993  13.525  1.1197  0.5418  0.5315
  761TIP3    H223699   6.343   2.121  13.535 -0.7545 -0.6200  0.7181
  762TIP3   OH223700   4.513   1.563  15.672  1.3381 -0.3933  0.6777
  762TIP3    H123701   4.482   1.643  15.629  0.7504  0.3050  2.2750
  762TIP3    H223702   4.484   1.492  15.615  0.9404  0.4827 -0.2531
  763TIP3   OH223703   1.543   6.325   4.917 -0.5276 -0.3183  0.3538
  763TIP3    H123704   1.542   6.377   4.836  0.8501  0.6547  0.9320
  763TIP3    H223705   1.451   6.318   4.942 -0.9388 -0.2530 -1.0403
  764TIP3   OH223706   2.067   2.521  13.184  0.2106 -0.4093 -0.4791
  764TIP3    H123707   2.160   2.545  13.191  0.0275  0.2275 -0.1486
  764TIP3    H223708   2.029   2.549  13.268 -0.7336  1.3646 -1.4454
  765TIP3   OH223709   0.501   5.360  16.753 -0.0938 -0.0532 -0.0591
  765TIP3    H123710   0.433   5.348  16.685 -0.5523  0.6048  0.2691
  765TIP3    H223711   0.474   5.302  16.824  0.8791 -1.4277 -0.7795
  766TIP3   OH223712   6.623   4.757  12.688 -0.4096 -0.0268  0.2777
  766TIP3    H123713   6.715   4.733  12.698 -0.5046 -0.3191  0.4606
  766TIP3    H223714   6.606   4.752  12.594 -0.4199 -0.6545  0.3079
  767TIP3   OH223715   3.989   0.823   2.792 -0.1252 -0.2199  0.4802
  767TIP3    H123716   4.072   0.800   2.833 -0.4573 -0.0952  1.2269
  767TIP3    H223717   4.011   0.833   2.699  0.6490 -0.4007  0.6350
  768TIP3   OH223718   2.323   3.319   5.585  0.0469  0.0933 -0.1387
  768TIP3    H123719   2.329   3.240   5.639  0.9628  0.1523 -0.1383
  768TIP3    H223720   2.385   3.303   5.513  0.7940  1.1083  0.2588
  769TIP3   OH223721   1.062   2.186  12.764  0.0921  0.6496  0.2151
  769TIP3    H123722   1.006   2.130  12.710  0.9269  0.7584 -0.8217
  769TIP3    H223723   1.039   2.165  12.854 -1.1019  0.1904 -0.1805
  770TIP3   OH223724   3.107   1.544  13.962 -0.2047 -0.3736  0.2194
  770TIP3    H123725   3.119   1.566  14.054 -2.8345 -2.0645  1.0613
  770TIP3    H223726   3.107   1.449  13.959 -0.0610 -0.3545 -1.5574
  771TIP3   OH223727   0.302   1.973  12.802 -0.2105  0.3777  0.4204
  771TIP3    H123728   0.378   1.946  12.751 -0.6005  0.1601 -0.0546
  771TIP3    H223729   0.338   2.026  12.873  0.4600 -0.4784  0.7303
  772TIP3   OH223730   1.610   6.470  12.384 -0.3225 -0.1462  0.0585
  772TIP3    H123731   1.554   6.473  12.307  0.4097 -0.0132 -0.4872
  772TIP3    H223732   1.554   6.498  12.457 -0.9628 -0.0725 -0.4590
  773TIP3   OH223733   6.478   5.668  11.883 -1.0328  0.8939 -0.4880
  773TIP3    H123734   6.526   5.727  11.825 -1.3274  1.2219 -0.4072
  773TIP3    H223735   6.545   5.621  11.931 -0.7751  0.3699 -1.3337
  774TIP3   OH223736   1.602   1.982   4.102 -0.2532  0.0323  0.5731
  774TIP3    H123737   1.523   2.032   4.123  0.5407  0.4518  2.8462
  774TIP3    H223738   1.575   1.925   4.030 -2.3509  0.8457  0.6311
  775TIP3   OH223739   6.064   0.553  14.712  0.2224 -0.0830 -0.1002
  775TIP3    H123740   5.980   0.532  14.752  1.0204 -1.5828  0.8676
  775TIP3    H223741   6.059   0.517  14.623 -0.4552  0.6283 -0.3641
  776TIP3   OH223742   3.813   5.216  13.420  0.0191  0.1904 -0.6223
  776TIP3    H123743   3.806   5.269  13.499 -0.5767 -1.2755  0.3445
  776TIP3    H223744   3.807   5.279  13.348 -1.1353  1.3845  0.4727
  777TIP3   OH223745   4.413   1.319  16.010 -0.0064  0.0065  0.5221
  777TIP3    H123746   4.326   1.337  16.048 -1.5536 -1.4251 -2.0513
  777TIP3    H223747   4.436   1.400  15.964 -0.9096 -0.1850 -0.3181
  778TIP3   OH223748   3.229   6.329  16.696 -0.0711  0.3220  0.1978
  778TIP3    H123749   3.235   6.406  16.753 -2.6718  1.8926 -1.4257
  778TIP3    H223750   3.305   6.276  16.719  1.4483  3.0142  1.9233
  779TIP3   OH223751   4.510   3.817   2.830 -0.1001 -0.0248  0.3692
  779TIP3    H123752   4.553   3.744   2.873 -0.7514 -0.7220 -0.1400
  779TIP3    H223753   4.537   3.810   2.738 -1.4153 -0.5850  0.0011
  780TIP3   OH223754   5.937   2.706   4.058 -0.3560  0.1360 -0.5585
  780TIP3    H123755   5.891   2.689   3.976 -1.3702  1.1985 -0.2457
  780TIP3    H223756   6.022   2.664   4.047 -0.7220 -0.3249 -1.8775
  781TIP3   OH223757   4.338   1.034   2.527 -0.0992 -0.2952  0.4129
  781TIP3    H123758   4.335   1.016   2.621  0.7597  0.8800  0.6876
  781TIP3    H223759   4.248   1.052   2.503 -0.3108 -0.4957  1.0334
  782TIP3   OH223760   5.682   4.905   1.437 -0.4047  0.0232  0.4116
  782TIP3    H123761   5.764   4.935   1.476 -1.3883 -0.1307  2.7777
  782TIP3    H223762   5.665   4.966   1.366  1.4083  0.4407  0.2931
  783TIP3   OH223763   1.105   1.045   1.726  0.0596  0.0783  0.7497
  783TIP3    H123764   1.061   1.006   1.801 -0.5088 -1.7017 -0.4260
  783TIP3    H223765   1.129   1.133   1.754 -4.3128  1.2556  1.4592
  784TIP3   OH223766   4.420   0.124   5.933 -0.2152 -0.4814 -0.0281
  784TIP3    H123767   4.383   0.036   5.924 -0.3966 -0.5896  1.5070
  784TIP3    H223768   4.443   0.131   6.025 -0.4183  1.1740 -0.0730
  785TIP3   OH223769   5.428   4.642   3.212 -0.3767  0.0450 -0.2530
  785TIP3    H123770   5.427   4.641   3.116 -0.1814 -0.6283 -0.2528
  785TIP3    H223771   5.500   4.584   3.236  0.0156  0.7569  0.2995
  786TIP3   OH223772   5.838   1.969   4.419 -0.3653 -0.0912 -0.1955
  786TIP3    H123773   5.815   2.030   4.489 -1.2084 -0.2609 -0.3048
  786TIP3    H223774   5.929   1.945   4.436 -0.5021  0.0104  0.7298
  787TIP3   OH223775   3.705   1.330  10.732  0.1783 -0.2307  0.0976
  787TIP3    H123776   3.666   1.295  10.812 -1.4663 -0.5594 -0.8256
  787TIP3    H223777   3.797   1.344  10.755 -0.2763 -0.2349  2.0678
  788TIP3   OH223778   3.175   6.594   3.176 -0.4018  0.2956 -0.2473
  788TIP3    H123779   3.184   6.507   3.136 -0.9674 -0.3298  0.9509
  788TIP3    H223780   3.094   6.629   3.139 -0.2236  0.2833 -0.6592
  789TIP3   OH223781   1.545   2.215  17.003 -0.1931  0.0938 -0.3167
  789TIP3    H123782   1.585   2.150  16.946  2.1465  0.9963  0.1976
  789TIP3    H223783   1.489   2.165  17.062  1.2057 -1.4174 -0.2189
  790TIP3   OH223784   3.442   0.146  11.963  0.2208  0.2733  0.6258
  790TIP3    H123785   3.522   0.118  12.007  0.9984  1.4975  0.0303
  790TIP3    H223786   3.472   0.204  11.892 -0.8284 -2.6001 -2.4651
  791TIP3   OH223787   1.958   3.237   5.958  0.3479 -0.1796  0.2064
  791TIP3    H123788   1.962   3.332   5.969  0.2028 -0.2499  0.9031
  791TIP3    H223789   1.930   3.224   5.868  0.5569  0.4380  0.0493
  792TIP3   OH223790   2.916   3.139  15.217 -0.2016  0.3022 -0.0507
  792TIP3    H123791   2.941   3.046  15.206 -1.3865 -0.1311  0.8290
  792TIP3    H223792   2.978   3.173  15.281 -0.9645 -0.4055  1.0825
  793TIP3   OH223793   0.232   1.590   4.566 -0.0264 -0.3373 -0.1413
  793TIP3    H123794   0.211   1.553   4.652  0.7810  0.4911  0.4333
  793TIP3    H223795   0.171   1.663   4.556  1.1057  0.7566  0.5997
  794TIP3   OH223796   4.752   0.016  13.750 -0.1500 -0.5096  0.2891
  794TIP3    H123797   4.700  -0.035  13.688 -0.8458 -0.3392  0.7272
  794TIP3    H223798   4.693   0.034  13.822  0.8182 -1.2358  1.3028
  795TIP3   OH223799   1.384   2.349  11.751  0.2040 -0.0111  0.0200
  795TIP3    H123800   1.392   2.409  11.826  1.2680  0.2510 -0.2802
  795TIP3    H223801   1.297   2.368  11.715 -0.8167 -0.9557  1.8466
  796TIP3   OH223802   5.908   1.086  16.244 -0.4236 -0.0377 -0.0992
  796TIP3    H123803   5.905   0.991  16.237  0.5134 -0.1637  0.9613
  796TIP3    H223804   5.991   1.111  16.201 -0.3621  0.2369  0.1737
  797TIP3   OH223805   4.419   2.847   5.745 -0.0208 -0.0044 -0.1061
  797TIP3    H123806   4.480   2.853   5.819 -0.0436  2.9679 -0.2194
  797TIP3    H223807   4.333   2.842   5.786  0.0769 -0.4884  0.0504
  798TIP3   OH223808   2.460   1.648   2.803 -0.3922  0.2209  0.0331
  798TIP3    H123809   2.492   1.561   2.779  0.0908  0.5326 -0.4889
  798TIP3    H223810   2.539   1.696   2.828 -0.8422 -0.0115  2.0532
  799TIP3   OH223811   1.320   4.605  15.391  0.4973 -0.6831  0.5684
  799TIP3    H123812   1.243   4.567  15.349  0.8979 -0.7287 -0.1413
  799TIP3    H223813   1.351   4.537  15.450  0.0747 -0.7153  0.7580
  800TIP3   OH223814   1.752   3.801  13.156 -0.2907 -0.0242  0.2479
  800TIP3    H123815   1.680   3.857  13.186 -0.1544  0.0326  0.4687
  800TIP3    H223816   1.813   3.861  13.113  0.7761  0.3204  2.1080
  801TIP3   OH223817   0.693   4.847  12.259  0.1328  0.1184  0.3930
  801TIP3    H123818   0.657   4.819  12.343 -1.7497 -2.0342 -1.0236
  801TIP3    H223819   0.781   4.809  12.257 -1.2360 -3.3981 -0.1598
  802TIP3   OH223820   4.803   2.347   0.187  0.1913 -0.2763 -0.3133
  802TIP3    H123821   4.889   2.351   0.145  0.1621  0.3219 -0.3181
  802TIP3    H223822   4.814   2.397   0.268 -0.4556  0.7441 -0.8457
  803TIP3   OH223823   1.928   4.955   3.640  0.0742  0.3160  0.0603
  803TIP3    H123824   1.962   4.867   3.618 -1.0926 -0.1888  0.2016
  803TIP3    H223825   2.006   5.007   3.658  0.8203 -0.5517 -0.5645
  804TIP3   OH223826   4.723   3.445   5.800 -0.0807 -0.4220 -0.2173
  804TIP3    H123827   4.708   3.525   5.850  0.5385 -0.6689  0.3777
  804TIP3    H223828   4.780   3.473   5.728 -0.9914 -0.0629 -0.8188
  805TIP3   OH223829   0.734   0.918   1.730 -0.4566 -0.1737  0.2361
  805TIP3    H123830   0.733   0.889   1.821 -2.5184 -1.7484 -0.2243
  805TIP3    H223831   0.648   0.956   1.716 -0.3703 -0.4482 -1.2050
  806TIP3   OH223832   4.766   0.581  12.266 -0.0499  0.2051  0.4101
  806TIP3    H123833   4.806   0.633  12.196 -2.3427 -0.6021 -1.6506
  806TIP3    H223834   4.699   0.638  12.303 -1.0983 -0.4879 -0.3733
  807TIP3   OH223835   5.827   2.024  14.626  0.0499  0.8205  0.1676
  807TIP3    H123836   5.828   2.006  14.532 -1.2187  0.0136  0.2938
  807TIP3    H223837   5.886   1.959  14.664  0.4913  1.0900 -0.0420
  808TIP3   OH223838   6.014   0.273  12.657 -0.4552 -0.3553 -0.0454
  808TIP3    H123839   6.060   0.242  12.736  0.9676  1.1439 -0.2251
  808TIP3    H223840   6.078   0.328  12.613 -1.0962 -1.4471 -2.4943
  809TIP3   OH223841   4.183   3.781   5.183 -0.3341 -0.1351 -0.1668
  809TIP3    H123842   4.141   3.855   5.225 -0.6035 -0.6874  0.5423
  809TIP3    H223843   4.112   3.735   5.138 -0.5460 -1.1682  1.1806
  810TIP3   OH223844   0.138   6.575   2.426  0.3890  0.1943 -0.4811
  810TIP3    H123845   0.113   6.641   2.361 -0.0518  0.6819  0.1649
  810TIP3    H223846   0.219   6.610   2.465 -0.2950  0.8089  0.4531
  811TIP3   OH223847   3.795   0.874  12.297  0.1981 -0.6766 -0.0648
  811TIP3    H123848   3.846   0.948  12.330  1.0034 -2.3694  2.7758
  811TIP3    H223849   3.705   0.896  12.320  0.6191 -1.2840  2.4625
  812TIP3   OH223850   6.653   5.056  16.180  0.3659  0.0252 -0.8930
  812TIP3    H123851   6.612   5.050  16.267 -0.5518  0.6561 -1.2646
  812TIP3    H223852   6.742   5.024  16.193 -0.0896 -0.9128  0.0529
  813TIP3   OH223853   2.526   0.880   6.867 -0.4668 -0.7314  0.5629
  813TIP3    H123854   2.546   0.799   6.914  0.1176 -0.1488  1.3507
  813TIP3    H223855   2.463   0.926   6.922 -0.1873 -0.2870  0.5212
  814TIP3   OH223856   4.380   3.927   3.533  0.5132  0.3771 -0.2290
  814TIP3    H123857   4.351   3.971   3.613 -1.6872 -1.7926  0.3280
  814TIP3    H223858   4.465   3.966   3.513  0.9468  1.3671  2.9018
  815TIP3   OH223859   2.807   0.662  16.773 -0.1478 -0.7357  0.1046
  815TIP3    H123860   2.785   0.637  16.684 -0.2099  3.3918 -1.2460
  815TIP3    H223861   2.897   0.634  16.785  0.0953 -0.7217 -1.5519
  816TIP3   OH223862   4.473   6.252   1.762 -0.3199 -0.3561  0.2086
  816TIP3    H123863   4.380   6.271   1.766 -0.5691 -1.5385  0.3287
  816TIP3    H223864   4.484   6.171   1.813  0.5739 -0.9287 -0.8389
  817TIP3   OH223865   3.461   6.599   3.645  0.1089  0.0782 -0.2923
  817TIP3    H123866   3.537   6.656   3.650 -1.2008  1.8461  1.4915
  817TIP3    H223867   3.455   6.560   3.733 -1.0314 -0.0235 -0.3992
  818TIP3   OH223868   0.781   4.561   3.948  0.2198 -0.0131 -0.4575
  818TIP3    H123869   0.877   4.563   3.948  0.2203  1.0507  0.3651
  818TIP3    H223870   0.760   4.487   4.006  0.5966  1.4658  1.7000
  819TIP3   OH223871   3.114   0.334  11.577  0.1081 -0.3439 -0.4425
  819TIP3    H123872   3.179   0.403  11.565 -0.6912  0.2598 -1.5467
  819TIP3    H223873   3.040   0.361  11.523 -0.3705 -1.9014 -0.6331
  820TIP3   OH223874   4.884   3.911   5.611 -0.0049  0.1540 -0.2991
  820TIP3    H123875   4.969   3.905   5.568  0.0751  2.2618 -0.5672
  820TIP3    H223876   4.905   3.915   5.704  0.2872  1.2654 -0.3885
  821TIP3   OH223877   2.612   0.893  10.898 -0.0709  0.0710 -0.4522
  821TIP3    H123878   2.613   0.865  10.989 -0.2445 -0.4725 -0.6146
  821TIP3    H223879   2.538   0.953  10.891  0.2639  0.5341 -0.1182
  822TIP3   OH223880   2.746   3.557  14.449 -0.1219 -0.0258 -0.6459
  822TIP3    H123881   2.823   3.524  14.496 -0.5915 -0.4924 -0.1879
  822TIP3    H223882   2.727   3.641  14.491  0.3556  0.2672 -1.0081
  823TIP3   OH223883   0.937   4.539   0.036  0.0499 -0.4772 -0.1269
  823TIP3    H123884   0.983   4.459   0.011  0.9738 -0.4492  1.3664
  823TIP3    H223885   0.861   4.509   0.086 -0.4085 -0.4496 -0.7915
  824TIP3   OH223886   2.441   4.585   4.896  0.2122  0.1138 -0.3643
  824TIP3    H123887   2.515   4.527   4.912 -2.9135 -3.6421  2.3528
  824TIP3    H223888   2.438   4.642   4.972 -1.8708 -2.6907  1.8936
  825TIP3   OH223889   6.107   2.273  12.609 -0.4766 -0.6480  0.4796
  825TIP3    H123890   6.024   2.319  12.626 -0.8913 -1.1262 -0.2109
  825TIP3    H223891   6.088   2.217  12.534 -0.1714 -2.4395  1.7028
  826TIP3   OH223892   5.783   3.563  12.764  0.1297  0.0225 -0.7574
  826TIP3    H123893   5.859   3.547  12.820 -0.7240 -0.9591  0.1617
  826TIP3    H223894   5.709   3.531  12.815 -1.1544  2.5815 -0.8750
  827TIP3   OH223895   0.167   0.567   2.461  0.3497  0.5718 -0.9521
  827TIP3    H123896   0.193   0.480   2.432 -1.2614  0.5689 -2.5774
  827TIP3    H223897   0.137   0.555   2.551 -1.6630 -0.9886 -1.7626
  828TIP3   OH223898   5.533   3.829   2.755 -0.2980  0.0157 -0.1819
  828TIP3    H123899   5.595   3.902   2.754  0.9669 -1.0267  0.0918
  828TIP3    H223900   5.586   3.752   2.736 -1.4281 -0.9681  0.5199
  829TIP3   OH223901   1.898   1.791  15.106 -0.7271 -0.1169  0.8598
  829TIP3    H123902   1.851   1.833  15.178  0.3926  1.5815  0.6654
  829TIP3    H223903   1.900   1.698  15.129 -1.4103  0.2243  2.4174
  830TIP3   OH223904   6.375   3.881   5.393  0.4084  0.1730 -0.0889
  830TIP3    H123905   6.452   3.826   5.408 -0.1427 -0.2640  1.3054
  830TIP3    H223906   6.304   3.820   5.374  0.1396  0.4928 -0.1398
  831TIP3   OH223907   0.535   5.239  15.424  0.5103  0.2107  0.4347
  831TIP3    H123908   0.525   5.235  15.519 -0.2494  0.6948  0.3785
  831TIP3    H223909   0.607   5.301  15.411  0.0728  0.7827  0.6752
  832TIP3   OH223910   6.694   6.229  13.891  0.0709  0.1452 -0.1567
  832TIP3    H123911   6.735   6.186  13.817 -0.4914  1.0001 -0.9942
  832TIP3    H223912   6.729   6.319  13.888 -0.0647  0.2234  0.5258
  833TIP3   OH223913   2.190   6.691  12.385  0.2430  0.1205 -0.2064
  833TIP3    H123914   2.105   6.697  12.429  0.9653 -1.3521  1.5223
  833TIP3    H223915   2.247   6.749  12.435  0.6339 -0.1056 -0.3853
  834TIP3   OH223916   2.491   4.721  14.943  0.4864 -0.3427  0.1672
  834TIP3    H123917   2.555   4.735  15.013 -0.4909  0.0631  0.9950
  834TIP3    H223918   2.545   4.706  14.865  1.6086  1.3892  0.5443
  835TIP3   OH223919   3.497   4.411  16.684 -0.0663  0.2428 -0.2875
  835TIP3    H123920   3.460   4.331  16.722  0.6132 -0.0908 -0.3140
  835TIP3    H223921   3.454   4.482  16.731  0.7622 -0.1650  1.1168
  836TIP3   OH223922   5.144   5.246   6.036 -0.6694  0.2050  0.4347
  836TIP3    H123923   5.051   5.268   6.041 -0.8212 -0.5393  1.1190
  836TIP3    H223924   5.178   5.265   6.123  0.1890  1.9921 -0.2538
  837TIP3   OH223925   3.451   6.728  16.907 -0.0858 -0.0123  0.1145
  837TIP3    H123926   3.453   6.822  16.922  1.2741 -0.1747  1.1792
  837TIP3    H223927   3.484   6.716  16.818 -0.1170  0.5126  0.0337
  838TIP3   OH223928   6.191   5.960   2.341 -0.2325  0.0434 -0.3357
  838TIP3    H123929   6.177   5.873   2.304 -2.0386  0.0975  0.1422
  838TIP3    H223930   6.174   6.020   2.269 -0.5971  0.0531 -0.2411
  839TIP3   OH223931   4.156   1.049  17.168  0.5009  0.1892 -1.3942
  839TIP3    H123932   4.226   0.984  17.172  1.2591  0.9766 -1.7138
  839TIP3    H223933   4.174   1.109  17.240  1.0594  1.2833 -2.4178
  840TIP3   OH223934   4.892   0.470   3.263  0.2107  0.0439  0.0008
  840TIP3    H123935   4.896   0.376   3.281 -0.0469 -0.4500 -2.2044
  840TIP3    H223936   4.865   0.475   3.172  2.0750  2.2420 -0.5092
  841TIP3   OH223937   2.404   0.029  16.630 -0.2333  0.4344  0.0056
  841TIP3    H123938   2.363   0.083  16.697 -0.6073  0.3535 -0.1564
  841TIP3    H223939   2.379  -0.061  16.654 -1.8350  0.5231 -1.2206
  842TIP3   OH223940   4.950   1.293  14.640 -0.4392  0.3384  0.6943
  842TIP3    H123941   4.981   1.276  14.729  1.1581  0.8425  0.2783
  842TIP3    H223942   5.030   1.308  14.589 -1.1558 -1.7134 -1.2460
  843TIP3   OH223943   4.587   3.947  11.100 -0.1190 -0.3312 -1.0396
  843TIP3    H123944   4.524   3.969  11.032 -1.4802 -0.8387  0.0125
  843TIP3    H223945   4.570   3.855  11.120  1.3008 -0.6228 -1.0710
  844TIP3   OH223946   3.061   1.169   6.663 -0.8177 -0.1376  0.7704
  844TIP3    H123947   3.066   1.087   6.712  1.5467 -1.4709 -1.4223
  844TIP3    H223948   3.151   1.202   6.664 -1.4218  1.5784  0.2355
  845TIP3   OH223949   2.066   4.993   5.887 -0.0774  0.1505 -0.4213
  845TIP3    H123950   2.026   4.919   5.933  1.9056 -0.8769 -0.2569
  845TIP3    H223951   2.072   5.061   5.954 -0.1812 -0.1945 -0.0563
  846TIP3   OH223952   1.853   0.811   2.373 -0.4695  0.7849 -0.1028
  846TIP3    H123953   1.832   0.717   2.373  2.8713 -0.1034  0.3921
  846TIP3    H223954   1.853   0.835   2.280  0.6561 -0.2849 -0.4074
  847TIP3   OH223955   3.873   0.490   0.171 -0.3318  0.0387 -0.2208
  847TIP3    H123956   3.818   0.541   0.112 -0.9537 -0.2422  0.1087
  847TIP3    H223957   3.958   0.484   0.126 -0.4337  0.8488 -0.5291
  848TIP3   OH223958   0.610   6.137  15.344  0.1114 -0.0355 -0.1590
  848TIP3    H123959   0.528   6.182  15.325  0.1263  0.5871  1.1614
  848TIP3    H223960   0.661   6.145  15.263 -1.8365 -2.1868 -1.7654
  849TIP3   OH223961   3.906   2.439  17.055 -0.8163 -0.2269 -0.1641
  849TIP3    H123962   3.967   2.472  17.122 -1.0466  1.8504 -0.9181
  849TIP3    H223963   3.963   2.410  16.984 -0.6456 -0.2739 -0.0103
  850TIP3   OH223964   4.286   5.171   2.684 -0.7094  0.0228  0.1981
  850TIP3    H123965   4.198   5.209   2.685 -0.8068 -0.2014  0.1385
  850TIP3    H223966   4.299   5.136   2.772 -0.2828  0.9595  0.5192
  851TIP3   OH223967   4.190   4.233  15.191  0.1288  0.3195  0.5265
  851TIP3    H123968   4.280   4.232  15.223  0.3611 -1.3267 -0.0869
  851TIP3    H223969   4.163   4.141  15.190 -1.3640  0.7257  0.1398
  852TIP3   OH223970   5.946   5.152   1.374  0.5994 -0.2645  0.3048
  852TIP3    H123971   6.017   5.214   1.388 -0.8035  1.8894 -1.4985
  852TIP3    H223972   5.949   5.133   1.280 -1.9698  0.9825 -0.1254
  853TIP3   OH223973   5.718   6.260  12.789 -0.0287  0.0049 -0.1057
  853TIP3    H123974   5.682   6.176  12.818  0.7466 -0.9046 -1.6248
  853TIP3    H223975   5.641   6.312  12.766 -0.5108 -0.4372  0.4716
  854TIP3   OH223976   3.088   6.775  12.713  0.4747 -0.4524 -0.0210
  854TIP3    H123977   3.118   6.735  12.795  1.8740  0.4788 -0.0298
  854TIP3    H223978   3.094   6.869  12.730 -3.9835 -0.0552  0.4629
  855TIP3   OH223979   0.733   4.172  13.979 -0.2275 -0.1961  0.4784
  855TIP3    H123980   0.664   4.117  13.942 -0.4008  0.2044  0.1997
  855TIP3    H223981   0.691   4.219  14.050 -0.9848  2.0266 -1.3231
  856TIP3   OH223982   4.153   5.414   5.878 -0.4258  0.4063  0.0341
  856TIP3    H123983   4.237   5.421   5.924 -0.6453 -1.8993  0.9466
  856TIP3    H223984   4.166   5.342   5.815 -2.3736 -1.8636  1.9989
  857TIP3   OH223985   5.552   2.978   0.109 -0.5645 -0.1749  0.1450
  857TIP3    H123986   5.543   3.053   0.167 -0.8359 -0.2345  0.1831
  857TIP3    H223987   5.615   3.005   0.043 -1.6746  0.5942 -0.6478
  858TIP3   OH223988   2.363   2.063  15.471 -0.7980 -0.9591 -0.1503
  858TIP3    H123989   2.326   2.077  15.558 -0.1175  0.5947 -0.0814
  858TIP3    H223990   2.457   2.056  15.486 -0.7953 -2.2182 -0.6194
  859TIP3   OH223991   2.076   2.410  15.893  0.1169 -0.8989 -0.2303
  859TIP3    H123992   2.065   2.346  15.962 -1.4320 -2.4612 -1.8233
  859TIP3    H223993   2.171   2.425  15.889  0.2323 -0.4931  2.3737
  860TIP3   OH223994   4.461   1.921  17.096 -0.0290  0.4851 -0.3688
  860TIP3    H123995   4.484   1.830  17.080 -0.6858  0.3215 -0.4128
  860TIP3    H223996   4.419   1.949  17.015 -0.5636  0.5832 -0.0605
  861TIP3   OH223997   5.417   1.059   1.459  0.2647 -0.2239  0.0697
  861TIP3    H123998   5.415   0.983   1.400 -1.1834 -0.3042  0.1992
  861TIP3    H223999   5.482   1.036   1.525  2.1239 -0.0357 -1.5793
  862TIP3   OH224000   6.024   1.416   4.271 -0.2680 -0.6788  0.7317
  862TIP3    H124001   6.040   1.503   4.235  0.5672 -0.4612  1.5941
  862TIP3    H224002   6.050   1.356   4.201  0.0974 -0.2484  0.4935
  863TIP3   OH224003   1.159   1.712  12.500 -0.0613  0.0293 -0.1605
  863TIP3    H124004   1.179   1.701  12.407 -0.5059  0.7973 -0.3541
  863TIP3    H224005   1.167   1.624  12.537  0.1126 -0.2813 -0.9251
  864TIP3   OH224006   0.965   5.483  14.034 -0.5470  0.1015 -0.4846
  864TIP3    H124007   0.965   5.476  13.939 -0.4966  0.5137 -0.5146
  864TIP3    H224008   0.935   5.397  14.064 -3.1484  0.8013 -0.9084
  865TIP3   OH224009   4.911   2.185  10.268 -0.0721  0.6482 -0.3725
  865TIP3    H124010   4.863   2.158  10.347 -0.7894  2.1338 -0.2683
  865TIP3    H224011   4.914   2.280  10.273  2.7836  0.6418 -0.4827
  866TIP3   OH224012   3.985   3.554   1.216 -0.1255 -0.3247  0.2836
  866TIP3    H124013   4.075   3.580   1.235 -0.3182  1.0396 -0.5837
  866TIP3    H224014   3.931   3.625   1.251 -0.7813 -0.4228 -0.4958
  867TIP3   OH224015   2.567   2.993  11.896  0.1996  0.3002  0.3877
  867TIP3    H124016   2.646   2.989  11.843  0.7184 -1.8250  1.2248
  867TIP3    H224017   2.533   2.903  11.895 -2.1277  1.1110  0.1839
  868TIP3   OH224018   0.721   0.810  11.408  0.2973 -0.1925 -0.0708
  868TIP3    H124019   0.663   0.825  11.334  0.1423  0.9882  0.2746
  868TIP3    H224020   0.743   0.717  11.402 -1.1806 -0.5440 -0.5210
  869TIP3   OH224021   1.967   0.107  13.227 -0.1110  0.4483  0.3194
  869TIP3    H124022   1.921   0.163  13.290  1.2058  0.8029  0.9988
  869TIP3    H224023   2.012   0.169  13.170  3.1615  0.2038  2.3995
  870TIP3   OH224024   5.485   6.621   2.507 -0.6488 -0.2919 -0.1392
  870TIP3    H124025   5.407   6.671   2.533 -1.0172 -0.5682 -0.6906
  870TIP3    H224026   5.497   6.557   2.577  0.0193  0.7607  0.7418
  871TIP3   OH224027   0.135   2.821   4.803  0.6824  0.2554 -0.2981
  871TIP3    H124028   0.116   2.889   4.867  0.1907 -0.0179 -0.1428
  871TIP3    H224029   0.113   2.739   4.848  1.3350 -0.0130 -0.4556
  872TIP3   OH224030   5.869   4.259  12.428 -0.5042  0.2470  0.1425
  872TIP3    H124031   5.906   4.334  12.381  0.4198  0.0800  0.5918
  872TIP3    H224032   5.798   4.297  12.481 -0.9118  0.5845 -0.6310
  873TIP3   OH224033   0.322   2.695  16.108 -0.2324  0.0567 -0.1417
  873TIP3    H124034   0.352   2.613  16.070  0.2396 -0.4753  1.3246
  873TIP3    H224035   0.370   2.703  16.190  0.4357  2.2889 -0.6954
  874TIP3   OH224036   3.286   3.716   3.377 -0.4119 -0.4790 -0.0716
  874TIP3    H124037   3.320   3.645   3.322  0.3878  0.6247 -1.0436
  874TIP3    H224038   3.191   3.708   3.370 -0.3594 -2.0357  0.6185
  875TIP3   OH224039   3.876   2.174  13.520 -0.1466 -0.1921 -0.1216
  875TIP3    H124040   3.903   2.082  13.516 -0.6653 -0.3170 -0.7336
  875TIP3    H224041   3.885   2.197  13.613 -0.4471 -0.9891  0.1101
  876TIP3   OH224042   4.213   1.524   3.298  0.0825  0.1556 -0.8501
  876TIP3    H124043   4.282   1.584   3.326 -0.3126 -0.2694  1.2495
  876TIP3    H224044   4.134   1.578   3.294 -0.1989 -0.0907  0.6728
  877TIP3   OH224045   3.271   5.597   0.391 -0.4156  0.0075 -0.2602
  877TIP3    H124046   3.346   5.574   0.446  0.6940  3.6438  0.0422
  877TIP3    H224047   3.216   5.650   0.449 -1.7762 -0.2198 -1.3141
  878TIP3   OH224048   3.779   2.214   4.264  0.5107  0.8812  0.5884
  878TIP3    H124049   3.791   2.128   4.224  1.7153  0.8159  1.0634
  878TIP3    H224050   3.727   2.263   4.200  1.3694  0.3939 -0.5097
  879TIP3   OH224051   4.771   6.378  16.752 -0.5464  0.1899  0.4741
  879TIP3    H124052   4.688   6.340  16.782  0.2463 -1.8561  0.1972
  879TIP3    H224053   4.798   6.436  16.824 -1.2101 -0.6853  1.4653
  880TIP3   OH224054   1.650   5.349  12.485  0.5088  0.4377 -0.3735
  880TIP3    H124055   1.566   5.389  12.467  0.7165  0.8250 -0.4812
  880TIP3    H224056   1.645   5.262  12.445 -0.3520 -0.0911  0.8118
  881TIP3   OH224057   5.768   4.200  16.337 -0.1195 -0.3428  0.5460
  881TIP3    H124058   5.687   4.175  16.382 -0.2331 -0.9796  0.0051
  881TIP3    H224059   5.822   4.122  16.340  0.0071 -0.2873 -0.1187
  882TIP3   OH224060   6.765   5.628  14.521  0.5084 -0.1024  0.1268
  882TIP3    H124061   6.749   5.695  14.454  1.8258  0.3933  0.2731
  882TIP3    H224062   6.819   5.562  14.476  0.3625 -0.3916  0.3674
  883TIP3   OH224063   0.291   2.391  13.383  0.6388  0.0389  0.2107
  883TIP3    H124064   0.382   2.366  13.364  0.0278 -0.5788 -2.2382
  883TIP3    H224065   0.241   2.311  13.367 -0.3386  0.2894  1.8600
  884TIP3   OH224066   2.610   2.867  15.476 -0.5736  0.3010  0.5755
  884TIP3    H124067   2.548   2.794  15.478 -0.1571 -0.0902 -0.3583
  884TIP3    H224068   2.658   2.861  15.559  0.5915 -1.4937 -0.1849
  885TIP3   OH224069   0.482   3.863   6.410  0.0720  0.2722  1.2683
  885TIP3    H124070   0.514   3.953   6.420 -3.5626  1.9572 -0.3172
  885TIP3    H224071   0.488   3.845   6.316 -0.9494 -0.3725  1.3049
  886TIP3   OH224072   2.326   2.516  13.311  0.2437 -0.1778  0.4252
  886TIP3    H124073   2.396   2.520  13.376  1.8335 -1.9064 -1.0696
  886TIP3    H224074   2.275   2.439  13.334 -0.4645  0.3989  0.8158
  887TIP3   OH224075   0.745   0.768  13.477  0.3246  0.2947  0.0327
  887TIP3    H124076   0.697   0.836  13.430 -1.5929  0.2004  1.7360
  887TIP3    H224077   0.720   0.687  13.433 -0.6460  0.3066  0.5418
  888TIP3   OH224078   2.551   5.566   5.876  0.4885 -0.5552 -0.3568
  888TIP3    H124079   2.586   5.601   5.957 -0.3520 -1.6850  0.5248
  888TIP3    H224080   2.469   5.613   5.862  0.5815 -0.4345 -0.5042
  889TIP3   OH224081   5.598   2.924   0.619  0.3928  0.0448 -0.0988
  889TIP3    H124082   5.536   2.964   0.679  2.2893 -0.8121  2.6072
  889TIP3    H224083   5.628   2.996   0.563 -0.4214  1.2022  0.9112
  890TIP3   OH224084   0.305   4.257   1.490  0.4384 -0.2804 -0.0901
  890TIP3    H124085   0.364   4.301   1.552 -1.3929  1.1927  0.7274
  890TIP3    H224086   0.225   4.311   1.491 -0.7127 -1.8430 -1.5876
  891TIP3   OH224087   2.674   1.993  15.791 -0.1700  0.4390  0.2360
  891TIP3    H124088   2.659   1.908  15.750  1.5846  1.2443 -2.3541
  891TIP3    H224089   2.768   1.997  15.808 -0.2183  1.8256  0.3656
  892TIP3   OH224090   3.705   0.648  17.221 -0.1054 -0.3031 -0.0777
  892TIP3    H124091   3.643   0.650  17.294  0.3720 -0.5182  0.3429
  892TIP3    H224092   3.772   0.712  17.246 -0.2269  0.0365 -0.5983
  893TIP3   OH224093   2.751   3.147  13.970 -0.2305  0.2122 -0.2963
  893TIP3    H124094   2.818   3.176  14.032  1.8619 -0.4329 -2.1312
  893TIP3    H224095   2.800   3.115  13.895 -2.5783 -1.7042 -1.1561
  894TIP3   OH224096   6.663   2.214   1.066 -0.7404  0.0371 -0.4453
  894TIP3    H124097   6.709   2.179   0.990 -2.0779 -0.5986 -1.0003
  894TIP3    H224098   6.718   2.191   1.141  1.2217  1.7345 -1.2715
  895TIP3   OH224099   6.063   0.992  12.730 -0.0072 -0.2075 -0.3925
  895TIP3    H124100   6.004   0.968  12.801 -1.2235  1.5556 -0.7457
  895TIP3    H224101   6.009   1.043  12.670  1.8872  1.6662 -0.6265
  896TIP3   OH224102   4.173   4.725   5.533  0.2506  0.6316  0.7218
  896TIP3    H124103   4.155   4.660   5.465 -0.8282  0.8783  0.7662
  896TIP3    H224104   4.268   4.719   5.546  0.1749 -0.9856  0.7794
  897TIP3   OH224105   4.264   1.666   5.873 -0.1243 -0.0636 -0.4062
  897TIP3    H124106   4.314   1.611   5.933  0.4185  0.1819 -0.6240
  897TIP3    H224107   4.325   1.685   5.801 -0.9378 -0.8317 -1.3374
  898TIP3   OH224108   4.428   3.888  11.794 -0.2301 -0.2941  0.2839
  898TIP3    H124109   4.397   3.823  11.731 -2.4624  0.6506  0.3236
  898TIP3    H224110   4.503   3.929  11.751 -1.1268 -0.3197 -1.3748
  899TIP3   OH224111   4.080   5.690  13.697  0.5794 -0.0554  0.4040
  899TIP3    H124112   4.100   5.607  13.740  1.7075  0.6169  1.2456
  899TIP3    H224113   4.072   5.753  13.770 -0.0638  0.6111 -0.2266
  900TIP3   OH224114   5.660   0.912   0.022  0.0471  0.2335 -0.3139
  900TIP3    H124115   5.691   0.986  -0.030 -1.3276  1.4325  0.5058
  900TIP3    H224116   5.635   0.845  -0.043  0.1545  0.9507 -1.1081
  901TIP3   OH224117   4.789   4.340   3.762  0.4854 -0.0850 -0.2609
  901TIP3    H124118   4.857   4.306   3.820  1.6141  0.7447 -1.0630
  901TIP3    H224119   4.797   4.288   3.682 -1.3035 -1.4724  0.3866
  902TIP3   OH224120   1.400   3.156  12.541 -0.5153 -0.0544  0.2729
  902TIP3    H124121   1.383   3.118  12.455  0.5520  0.1083 -0.0293
  902TIP3    H224122   1.397   3.251  12.527  1.5520  0.0144 -0.0428
  903TIP3   OH224123   5.511   0.163  17.047  0.3818 -0.0132  0.3300
  903TIP3    H124124   5.592   0.124  17.080  0.0660 -0.7620  0.2420
  903TIP3    H224125   5.441   0.121  17.098 -0.0146 -0.1243 -0.2893
  904TIP3   OH224126   2.189   2.437   2.609  0.0109 -0.3117 -0.0240
  904TIP3    H124127   2.277   2.433   2.571 -0.1239 -1.6288 -0.2552
  904TIP3    H224128   2.197   2.391   2.692 -0.1501  0.8281  0.6417
  905TIP3   OH224129   1.642   4.821   5.247 -0.6596 -0.5264  0.2004
  905TIP3    H124130   1.613   4.744   5.296 -1.6783  0.7683  1.7429
  905TIP3    H224131   1.711   4.860   5.301 -0.8458  0.1694 -0.0423
  906TIP3   OH224132   6.308   6.003  16.023  0.8151  0.3149  0.8989
  906TIP3    H124133   6.221   6.008  16.063  1.3093  1.6736  1.9000
  906TIP3    H224134   6.350   5.929  16.066  0.0172 -0.6844  0.0385
  907TIP3   OH224135   3.757   4.216   0.305  0.2424 -0.0884 -0.2224
  907TIP3    H124136   3.703   4.138   0.318  1.6219 -1.0443 -0.0289
  907TIP3    H224137   3.810   4.197   0.228 -0.9054  1.5733 -1.5114
  908TIP3   OH224138   3.282   1.104   4.848 -0.2188  0.6245 -0.2968
  908TIP3    H124139   3.339   1.180   4.833 -1.1317  1.7630  1.4939
  908TIP3    H224140   3.197   1.131   4.814  0.0619 -0.7606 -2.2477
  909TIP3   OH224141   5.954   3.989  16.315  0.4969 -0.0987 -0.3829
  909TIP3    H124142   6.035   3.977  16.365  0.5453 -1.3505 -0.7319
  909TIP3    H224143   5.977   3.963  16.226 -0.3273 -0.6302 -0.4470
  910TIP3   OH224144   0.020   1.295  11.783  0.1950 -0.3274 -0.2905
  910TIP3    H124145   0.087   1.344  11.831  2.6111 -2.1252 -1.5870
  910TIP3    H224146  -0.052   1.358  11.771  0.7029  1.0883  2.9358
  911TIP3   OH224147   3.625   2.764   6.649  0.6119  0.4655 -0.3078
  911TIP3    H124148   3.558   2.745   6.715  2.6823 -2.3991  1.1496
  911TIP3    H224149   3.584   2.740   6.566 -1.2552  2.0262  0.0717
  912TIP3   OH224150   5.950   4.356   5.543 -0.1401  0.5298  0.1743
  912TIP3    H124151   5.975   4.272   5.583 -1.6169 -0.7396 -1.3857
  912TIP3    H224152   5.941   4.336   5.450 -0.6152  2.4185 -0.2277
  913TIP3   OH224153   2.380   5.108   4.189  0.3296 -0.0195 -0.6022
  913TIP3    H124154   2.360   5.016   4.172  0.9249 -0.4912  0.9905
  913TIP3    H224155   2.474   5.114   4.176  0.6025 -0.1189  1.0740
  914TIP3   OH224156   6.659   4.886   3.092  0.0736  0.0068  0.2087
  914TIP3    H124157   6.710   4.954   3.048  1.1415 -1.1251 -0.3602
  914TIP3    H224158   6.635   4.925   3.176  2.6729  0.2664  0.9054
  915TIP3   OH224159   5.011   1.989  14.089  0.4638  0.3250 -0.0649
  915TIP3    H124160   4.929   1.983  14.040  0.5749  0.9588 -0.3437
  915TIP3    H224161   4.991   1.950  14.174  0.0568 -0.1065 -0.3482
  916TIP3   OH224162   6.134   1.459  16.567 -0.6827  0.1171 -0.0497
  916TIP3    H124163   6.183   1.457  16.485 -0.0141  2.9087  0.1849
  916TIP3    H224164   6.045   1.482  16.542 -0.9570 -0.9674 -0.1240
  917TIP3   OH224165   1.341   4.221   3.188  0.2515 -0.2732 -0.2781
  917TIP3    H124166   1.263   4.254   3.234  0.5569 -1.1912  0.9323
  917TIP3    H224167   1.380   4.300   3.149 -0.4341  0.4218  0.3940
  918TIP3   OH224168   4.159   4.768  11.901  0.8372  0.0830  0.0409
  918TIP3    H124169   4.241   4.750  11.947  0.6788 -0.4723  0.1171
  918TIP3    H224170   4.181   4.758  11.808  0.7328 -0.6176  0.0851
  919TIP3   OH224171   6.681   5.209   4.291 -0.3219 -0.2357 -0.4651
  919TIP3    H124172   6.597   5.248   4.265 -0.8939 -0.0515  1.4811
  919TIP3    H224173   6.746   5.254   4.237 -1.2898  1.1542 -0.5251
  920TIP3   OH224174   5.586   3.605  13.663  0.3431 -0.5146  0.1501
  920TIP3    H124175   5.603   3.559  13.581 -0.5986  1.3159 -1.1352
  920TIP3    H224176   5.498   3.576  13.689 -0.8042  1.3495 -1.3375
  921TIP3   OH224177   5.138   6.671   2.793  0.3015 -0.5216 -0.5793
  921TIP3    H124178   5.191   6.708   2.722 -1.1854 -0.4469 -1.6919
  921TIP3    H224179   5.052   6.712   2.782  0.2629  0.1605  1.8170
  922TIP3   OH224180   0.087   5.207   0.862  0.6198 -0.3208 -1.0833
  922TIP3    H124181   0.178   5.220   0.887  0.3685 -1.3818  0.4898
  922TIP3    H224182   0.037   5.225   0.941 -0.3921 -1.5665 -1.4147
  923TIP3   OH224183   0.041   4.279   2.908 -0.1437 -0.7250  0.3986
  923TIP3    H124184  -0.038   4.332   2.901  0.0761 -0.3740  0.5472
  923TIP3    H224185   0.113   4.341   2.890  0.2010 -0.6805  1.8126
  924TIP3   OH224186   3.225   1.335   4.163  0.0166 -0.1648  0.0619
  924TIP3    H124187   3.240   1.334   4.068 -1.4340  0.2291 -0.1888
  924TIP3    H224188   3.134   1.364   4.173  0.0753 -0.4264  1.5700
  925TIP3   OH224189   5.166   5.081   0.334  0.5506 -0.4914 -0.3495
  925TIP3    H124190   5.159   5.018   0.405  1.7157  0.9144  1.0869
  925TIP3    H224191   5.249   5.126   0.350  0.3080  0.6181 -1.9686
  926TIP3   OH224192   2.490   2.699  11.541  0.1866  0.2004 -0.0012
  926TIP3    H124193   2.522   2.661  11.459  0.0039  0.3696 -0.1514
  926TIP3    H224194   2.399   2.721  11.523  0.5481  1.5978 -0.2380
  927TIP3   OH224195   5.286   3.727  12.995  0.4082  0.4550  0.3331
  927TIP3    H124196   5.333   3.788  12.938 -1.4676  1.5478 -0.1105
  927TIP3    H224197   5.220   3.687  12.939  0.0689 -0.2316  1.1969
  928TIP3   OH224198   4.030   0.822   3.912  0.2948  0.0688  0.0297
  928TIP3    H124199   3.999   0.892   3.854  3.4689 -0.2873 -2.3975
  928TIP3    H224200   4.105   0.860   3.958 -1.3463 -0.1037  3.1037
  929TIP3   OH224201   5.916   0.638   2.109 -0.2049 -0.2225 -0.3736
  929TIP3    H124202   5.867   0.597   2.180  0.1547  0.9095  0.5760
  929TIP3    H224203   5.993   0.583   2.098  1.2767  1.1513  2.2229
  930TIP3   OH224204   3.976   5.865   2.006  0.3424 -0.1067  0.1330
  930TIP3    H124205   3.920   5.897   1.935  0.7834 -0.7815 -0.5340
  930TIP3    H224206   3.918   5.858   2.082 -0.0635  0.9475 -0.0575
  931TIP3   OH224207   6.481   5.096  13.669 -0.1251  0.5211 -0.0633
  931TIP3    H124208   6.464   5.092  13.763  1.1216  0.5976  0.1853
  931TIP3    H224209   6.536   5.019  13.652 -2.0266 -0.6820 -1.1281
  932TIP3   OH224210   5.985   3.244   0.390  0.1610  0.0403 -0.2691
  932TIP3    H124211   5.973   3.171   0.450 -0.2037 -0.2611 -0.6962
  932TIP3    H224212   5.928   3.223   0.315  1.6846 -0.3043 -1.3785
  933TIP3   OH224213   1.767   6.005   3.077  0.4310 -0.1796 -0.0287
  933TIP3    H124214   1.848   6.043   3.110  1.5466 -0.8186 -1.8570
  933TIP3    H224215   1.747   6.055   2.997 -0.3300 -0.7807 -0.2369
  934TIP3   OH224216   3.192   3.049  11.723  0.1216  0.5848 -0.1329
  934TIP3    H124217   3.113   3.078  11.769  0.1771 -1.9662  1.7722
  934TIP3    H224218   3.165   2.972  11.674  0.4358  2.3603 -3.4072
  935TIP3   OH224219   1.838   1.248   2.560  0.2605  0.0838  1.1171
  935TIP3    H124220   1.747   1.278   2.562  0.1235 -0.1220 -0.8487
  935TIP3    H224221   1.878   1.289   2.637 -1.3042  0.7211  1.6366
  936TIP3   OH224222   2.287   0.030   1.224  0.5123 -0.5077 -0.1662
  936TIP3    H124223   2.209   0.073   1.188  0.2074 -2.0341 -1.4398
  936TIP3    H224224   2.265   0.014   1.316  0.1867  0.9745  0.0267
  937TIP3   OH224225   5.125   4.665  14.341  0.5568  0.6893 -0.4849
  937TIP3    H124226   5.102   4.714  14.420 -2.3280 -0.7425 -0.2821
  937TIP3    H224227   5.210   4.627  14.360 -0.5151 -0.5291  2.4790
  938TIP3   OH224228   2.196   4.954  12.138 -0.6137  0.3134 -0.2065
  938TIP3    H124229   2.285   4.935  12.108 -0.7003 -0.4204 -0.0301
  938TIP3    H224230   2.201   4.947  12.233 -0.8221  0.4225 -0.1890
  939TIP3   OH224231   2.105   5.819   4.704  0.1770  0.5619 -0.0219
  939TIP3    H124232   2.168   5.769   4.757  1.5927  0.5869 -1.5774
  939TIP3    H224233   2.065   5.880   4.766  0.8645 -0.2239  1.2592
  940TIP3   OH224234   5.509   1.756  12.872  0.1544  0.0596  0.2570
  940TIP3    H124235   5.539   1.769  12.962  0.3520  2.5568 -0.1113
  940TIP3    H224236   5.577   1.797  12.819 -2.1211  2.7619 -0.7692
  941TIP3   OH224237   1.453   0.394  11.180  0.0133  0.2226  0.6144
  941TIP3    H124238   1.408   0.324  11.133 -1.3212  1.8198 -0.6315
  941TIP3    H224239   1.533   0.409  11.131  0.2432 -0.3395  0.8135
  942TIP3   OH224240   5.048   6.181  12.290  0.0848  0.2986  0.0034
  942TIP3    H124241   4.976   6.244  12.287 -2.7157 -2.6723 -2.5072
  942TIP3    H224242   5.037   6.136  12.374 -0.3753  0.5079  0.0556
  943TIP3   OH224243   2.702   2.176  12.325  0.2883  0.6179 -0.0109
  943TIP3    H124244   2.655   2.241  12.379  2.0269  1.5909  0.4168
  943TIP3    H224245   2.683   2.202  12.235 -1.1364  0.1041  0.1110
  944TIP3   OH224246   1.812   3.656   1.560 -0.4324  0.2708 -0.7331
  944TIP3    H124247   1.880   3.609   1.512 -1.1114 -1.5142 -0.0557
  944TIP3    H224248   1.826   3.630   1.652 -0.7726  1.4994 -0.3202
  945TIP3   OH224249   5.753   4.088  13.159 -0.8644  0.1543 -0.0623
  945TIP3    H124250   5.759   4.077  13.254 -0.1773  0.3222 -0.0847
  945TIP3    H224251   5.730   4.001  13.126  0.2642 -0.2317  0.1382
  946TIP3   OH224252   3.125   5.364  15.983 -0.2092  0.2517 -0.2571
  946TIP3    H124253   3.116   5.301  15.911 -0.0773  0.2315 -0.2561
  946TIP3    H224254   3.037   5.400  15.994 -0.3925 -0.2806  0.0569
  947TIP3   OH224255   5.540   1.512  15.581 -0.3873  0.1963  0.4130
  947TIP3    H124256   5.484   1.435  15.588 -0.0905 -0.0607 -0.0591
  947TIP3    H224257   5.515   1.566  15.657  0.2127 -0.8854  1.4165
  948TIP3   OH224258   0.209   6.510   5.625 -0.1554  1.1034 -0.3793
  948TIP3    H124259   0.230   6.423   5.592  0.8108  1.3377 -0.3955
  948TIP3    H224260   0.113   6.516   5.618 -0.3277 -0.2933  0.4997
  949TIP3   OH224261   1.016   2.590  11.200 -0.1244 -0.4399 -0.0897
  949TIP3    H124262   0.943   2.527  11.198 -0.4321 -0.0916 -1.8358
  949TIP3    H224263   1.092   2.536  11.220 -0.4687 -1.3032 -0.9912
  950TIP3   OH224264   1.333   0.035   5.236  0.8271 -0.2553 -0.4047
  950TIP3    H124265   1.282   0.083   5.171 -0.2192 -0.3006  0.3675
  950TIP3    H224266   1.287  -0.049   5.245  0.2069  0.2238  1.2901
  951TIP3   OH224267   4.407   5.798  10.510  0.1001  0.3441  0.0104
  951TIP3    H124268   4.353   5.869  10.475 -2.3558 -1.1286  0.6335
  951TIP3    H224269   4.385   5.722  10.456  3.4498  0.1415 -1.3295
  952TIP3   OH224270   3.527   6.732  16.625  0.0622 -0.3335  0.5334
  952TIP3    H124271   3.544   6.823  16.601  1.9959 -0.0193  2.6639
  952TIP3    H224272   3.580   6.680  16.564  1.1098  0.1552  1.0038
  953TIP3   OH224273   3.206   1.271  11.947  0.7353 -0.3674  0.0516
  953TIP3    H124274   3.283   1.247  11.895 -0.6550 -1.7378 -1.4797
  953TIP3    H224275   3.138   1.289  11.882  0.2505  2.9253  1.2835
  954TIP3   OH224276   4.379   4.165   2.378  0.3073  0.1589 -0.8457
  954TIP3    H124277   4.440   4.101   2.341  0.9620  0.1843  0.1507
  954TIP3    H224278   4.327   4.195   2.304  0.0425 -1.4735 -1.3493
  955TIP3   OH224279   6.184   5.975   1.338 -0.3135  0.2453  0.6141
  955TIP3    H124280   6.181   5.929   1.254  0.9319 -0.0072  0.6801
  955TIP3    H224281   6.113   6.039   1.334 -0.6996 -0.2357 -0.3503
  956TIP3   OH224282   4.836   4.865   0.954  0.2262 -0.2078  0.0027
  956TIP3    H124283   4.746   4.895   0.962  0.7706  1.4062  0.2852
  956TIP3    H224284   4.855   4.824   1.039 -0.1214 -0.2509  0.0609
  957TIP3   OH224285   1.018   2.166  11.389 -0.1389  0.2739 -0.0466
  957TIP3    H124286   1.016   2.071  11.400 -0.0785  0.2388 -0.3240
  957TIP3    H224287   0.927   2.193  11.394 -0.5083 -0.1299 -2.7057
  958TIP3   OH224288   2.699   3.610  13.423  0.2468 -0.7612  0.4234
  958TIP3    H124289   2.694   3.680  13.358  2.7094  0.0139  0.9693
  958TIP3    H224290   2.758   3.546  13.385  1.6442 -0.3457  1.7912
  959TIP3   OH224291   6.241   0.224   6.531 -0.2624 -0.7301 -0.4735
  959TIP3    H124292   6.158   0.262   6.556  0.1205  0.0505 -0.3635
  959TIP3    H224293   6.307   0.278   6.576  0.2744 -1.9036  0.1999
  960TIP3   OH224294   0.261   5.241  15.406 -0.4353 -0.2004 -0.2247
  960TIP3    H124295   0.234   5.212  15.493  0.4395 -1.6041 -0.3974
  960TIP3    H224296   0.356   5.252  15.413 -0.2577 -1.0049 -1.1738
  961TIP3   OH224297   3.975   0.352   5.353  0.3320 -0.8795 -0.1507
  961TIP3    H124298   4.009   0.427   5.304  1.7585 -0.1385  1.8429
  961TIP3    H224299   3.881   0.351   5.332  0.5410  0.5509 -1.3629
  962TIP3   OH224300   1.987   4.414   1.417  0.3772  0.1259  0.0156
  962TIP3    H124301   2.011   4.385   1.505 -0.8339 -0.5314  0.1578
  962TIP3    H224302   1.936   4.341   1.382 -1.7221  1.5599 -0.0823
  963TIP3   OH224303   4.699   3.856  14.860 -0.6043  0.4031  0.4366
  963TIP3    H124304   4.686   3.816  14.774  1.3194  0.4159  0.1080
  963TIP3    H224305   4.794   3.858  14.872 -0.8045  1.1939  2.1965
  964TIP3   OH224306   4.284   0.134   3.350 -0.4811  0.0818 -0.0044
  964TIP3    H124307   4.316   0.069   3.412  1.1665  1.5910  0.8024
  964TIP3    H224308   4.316   0.103   3.265 -0.2002 -0.4701  0.2964
  965TIP3   OH224309   6.779   6.699  14.409 -0.0621 -0.5975 -0.1625
  965TIP3    H124310   6.862   6.654  14.396  0.2994  0.1867 -0.6514
  965TIP3    H224311   6.712   6.630  14.401  0.5693 -1.4639  1.4478
  966TIP3   OH224312   4.941   0.905  13.960  0.6488 -0.2310  0.2788
  966TIP3    H124313   4.940   0.972  14.027  0.5170  1.0900 -0.9977
  966TIP3    H224314   4.871   0.844  13.985 -0.0209  0.7493  0.8291
  967TIP3   OH224315   2.572   5.377  12.810 -0.3238 -0.4146  0.1330
  967TIP3    H124316   2.520   5.391  12.889 -0.7780  0.8905 -0.3713
  967TIP3    H224317   2.654   5.423  12.826 -0.2818 -0.4320 -0.0285
  968TIP3   OH224318   6.009   3.792   0.467  0.1476  0.2959 -0.0832
  968TIP3    H124319   5.980   3.714   0.419  0.4785  0.7789 -1.0925
  968TIP3    H224320   5.989   3.865   0.409  2.2519  0.7495 -0.3255
  969TIP3   OH224321   0.429   1.377   2.957 -0.3261 -0.0202  0.4046
  969TIP3    H124322   0.474   1.298   2.986  1.5749  1.3053  1.2325
  969TIP3    H224323   0.337   1.361   2.978  0.2964 -1.1641  2.5587
  970TIP3   OH224324   6.136   1.734   2.212 -0.0503  0.1439  0.6024
  970TIP3    H124325   6.107   1.818   2.177  0.5448  0.9074  1.8454
  970TIP3    H224326   6.091   1.727   2.296  0.8041 -0.2039  1.0476
  971TIP3   OH224327   3.235   1.418   3.021 -0.2979 -0.2505 -0.2660
  971TIP3    H124328   3.226   1.508   3.052 -0.4523 -0.1722 -0.5340
  971TIP3    H224329   3.326   1.413   2.989 -0.0700 -0.3975  0.3998
  972TIP3   OH224330   1.794   3.997  14.711 -0.0890  0.2242 -0.8194
  972TIP3    H124331   1.864   3.938  14.685  1.1900  1.1607  0.3508
  972TIP3    H224332   1.799   4.000  14.807 -0.2564  2.0330 -0.8334
  973TIP3   OH224333   5.294   5.473  11.049 -0.4616  0.3622  0.5658
  973TIP3    H124334   5.272   5.419  10.973 -0.3013 -0.3788  1.0405
  973TIP3    H224335   5.216   5.526  11.063 -0.6394  0.2247  0.1207
  974TIP3   OH224336   6.746   6.488  13.173  0.4124 -0.5195  0.1882
  974TIP3    H124337   6.830   6.528  13.148 -0.4734  0.6132 -1.1367
  974TIP3    H224338   6.736   6.415  13.112  0.4788 -0.7040  0.3994
  975TIP3   OH224339   4.591   6.122   0.537 -0.0103 -0.0577  0.4614
  975TIP3    H124340   4.613   6.205   0.582 -0.7561  0.5514 -0.2808
  975TIP3    H224341   4.594   6.144   0.444 -0.1224 -0.9011  0.2570
  976TIP3   OH224342   4.933   0.389  12.949 -0.0766 -0.2773  0.0399
  976TIP3    H124343   4.889   0.362  12.868  0.6461  0.9157 -0.7790
  976TIP3    H224344   4.998   0.321  12.966 -1.1756 -1.2715  0.4323
  977TIP3   OH224345   2.965   5.001  12.777 -0.3000 -0.3556  0.3763
  977TIP3    H124346   2.873   4.975  12.773 -0.7747  1.0563  1.2842
  977TIP3    H224347   2.994   4.976  12.865  0.9282 -2.9035 -0.6223
  978TIP3   OH224348   4.945   4.636   3.293  1.0375  0.3019  0.5448
  978TIP3    H124349   5.033   4.665   3.271  0.2909  1.0675 -1.6387
  978TIP3    H224350   4.887   4.703   3.257 -0.5953 -1.9516 -1.3512
  979TIP3   OH224351   1.028   2.641  14.844  0.1175 -0.2677  0.0221
  979TIP3    H124352   0.939   2.614  14.821  0.5070 -1.7489  0.1949
  979TIP3    H224353   1.053   2.585  14.917  1.8702 -1.2133 -1.2214
  980TIP3   OH224354   4.868   5.306  12.670 -0.2783 -0.2687  0.2640
  980TIP3    H124355   4.858   5.269  12.582  1.0476 -1.1275  0.4347
  980TIP3    H224356   4.919   5.386  12.656 -1.3565  0.4076  0.1120
  981TIP3   OH224357   4.835   1.155  12.537 -0.2273 -0.2871 -0.4841
  981TIP3    H124358   4.917   1.142  12.586 -0.9654 -6.2609 -0.0140
  981TIP3    H224359   4.767   1.144  12.603 -1.2681 -1.5143 -1.7012
  982TIP3   OH224360   1.757   3.529  14.735 -0.3830 -0.1307  0.5444
  982TIP3    H124361   1.845   3.564  14.748 -0.3589 -0.2171  0.6127
  982TIP3    H224362   1.762   3.482  14.652 -0.7901  1.2486 -0.3044
  983TIP3   OH224363   2.890   4.328   1.957  0.1649 -0.6082  0.7553
  983TIP3    H124364   2.802   4.360   1.977 -0.7326 -0.6578 -2.4426
  983TIP3    H224365   2.949   4.393   1.993 -1.3242  0.8255  0.7048
  984TIP3   OH224366   3.392   6.079  12.248  0.4462 -0.4751  0.5835
  984TIP3    H124367   3.430   6.008  12.300  0.5136 -0.6734  0.2708
  984TIP3    H224368   3.371   6.037  12.164 -0.1536 -0.2913  0.6387
  985TIP3   OH224369   4.811   3.162   6.024 -0.1409 -0.6487 -0.2719
  985TIP3    H124370   4.868   3.233   5.993 -1.2558 -0.4710 -2.0527
  985TIP3    H224371   4.729   3.205   6.046  0.0731 -1.0320  1.3664
  986TIP3   OH224372   2.383   0.845  15.492 -0.1203  1.2155 -0.1133
  986TIP3    H124373   2.443   0.791  15.441  0.3411  1.0310  0.6176
  986TIP3    H224374   2.392   0.932  15.455 -0.2232  0.9791 -0.7229
  987TIP3   OH224375   4.935   2.053  14.445  0.7286  0.3351  0.1325
  987TIP3    H124376   4.889   1.977  14.408  0.1143  0.5827  0.3737
  987TIP3    H224377   4.865   2.111  14.474  1.1426 -0.4960  3.0494
  988TIP3   OH224378   0.785   4.150   2.204  0.1098  0.0046 -0.5174
  988TIP3    H124379   0.722   4.078   2.210 -0.6991  0.7099 -0.3206
  988TIP3    H224380   0.744   4.222   2.252  1.4276  0.2398  0.3198
  989TIP3   OH224381   6.408   1.588   0.437  0.3651 -0.1823  0.3995
  989TIP3    H124382   6.481   1.650   0.427  0.6334 -0.7588 -1.6068
  989TIP3    H224383   6.341   1.638   0.484  0.6335  1.6161 -0.9964
  990TIP3   OH224384   2.970   6.476   3.750 -0.1480  0.2471 -0.4636
  990TIP3    H124385   2.975   6.539   3.678  0.2532 -0.6078 -1.2017
  990TIP3    H224386   2.923   6.402   3.714  0.9877 -0.6369 -0.1894
  991TIP3   OH224387   6.199   5.598  12.545  0.2008  0.3029  0.3486
  991TIP3    H124388   6.152   5.607  12.628 -0.6263 -1.2710  0.0916
  991TIP3    H224389   6.290   5.581  12.570  0.1654  0.9054  0.8988
  992TIP3   OH224390   0.624   1.336  15.433 -0.5861 -0.0299 -0.1265
  992TIP3    H124391   0.609   1.365  15.343 -1.0194  0.3138  0.0570
  992TIP3    H224392   0.680   1.258  15.423  0.0120  0.4469 -0.6550
  993TIP3   OH224393   0.374   6.709  11.021 -0.0162  0.5213 -0.7877
  993TIP3    H124394   0.441   6.704  10.953 -0.5271  0.4899 -1.2979
  993TIP3    H224395   0.418   6.751  11.095  1.1247 -1.2699 -0.4129
  994TIP3   OH224396   2.418   5.426  17.161  0.4626  0.4564 -0.4233
  994TIP3    H124397   2.334   5.433  17.205  0.6838  2.0687 -0.1907
  994TIP3    H224398   2.445   5.335  17.175 -0.8260  0.1514  0.2248
  995TIP3   OH224399   3.088   5.115   5.401 -0.3467 -0.0181 -0.3177
  995TIP3    H124400   3.065   5.148   5.314 -1.2355  1.3066  0.3759
  995TIP3    H224401   3.178   5.144   5.414 -0.9496  1.8087  0.0738
  996TIP3   OH224402   3.738   4.496   0.387  0.1657  0.6082 -0.4626
  996TIP3    H124403   3.803   4.534   0.446  0.5172 -0.5705 -0.0441
  996TIP3    H224404   3.773   4.409   0.367 -1.5757 -0.3047  0.2692
  997TIP3   OH224405   3.279   3.943   5.934 -0.3814 -0.7126 -0.1873
  997TIP3    H124406   3.367   3.979   5.938 -0.2730 -0.8516 -1.0291
  997TIP3    H224407   3.269   3.914   5.843 -2.0783  1.2614 -0.7126
  998TIP3   OH224408   4.252   6.514  16.459  0.1367  0.3528  0.0573
  998TIP3    H124409   4.213   6.599  16.436 -0.3911  0.4566  1.2746
  998TIP3    H224410   4.230   6.501  16.551 -0.3933 -1.4373 -0.2819
  999TIP3   OH224411   5.032   1.680   2.342  0.2487  0.2364  0.0332
  999TIP3    H124412   5.124   1.664   2.324 -0.0102  0.0166 -1.1796
  999TIP3    H224413   5.018   1.772   2.319  0.1457  0.2454  0.1271
 1000TIP3   OH224414   2.274   6.703   6.540  0.1488  0.1811  0.2393
 1000TIP3    H124415   2.208   6.715   6.607 -1.4627  0.5368 -1.3315
 1000TIP3    H224416   2.227   6.666   6.465  1.4549  1.5962 -1.3818
 1001TIP3   OH224417   0.767   4.289   3.652 -0.1416  0.2333  0.3896
 1001TIP3    H124418   0.801   4.354   3.590 -1.0014 -0.1163 -0.4793
 1001TIP3    H224419   0.739   4.341   3.727  1.9360  0.5610  0.9966
 1002TIP3   OH224420   6.234   6.253   3.494  0.6186 -0.5486 -0.1018
 1002TIP3    H124421   6.279   6.186   3.442  2.1965 -0.1867  0.7381
 1002TIP3    H224422   6.304   6.294   3.546 -0.7000  0.0445  1.2580
 1003TIP3   OH224423   1.197   0.329  13.068  0.3421 -0.3920 -0.7155
 1003TIP3    H124424   1.137   0.383  13.017  2.1899  1.0499 -1.4827
 1003TIP3    H224425   1.246   0.279  13.003  0.6373 -0.8433 -0.1566
 1004TIP3   OH224426   5.943   2.398  12.798 -0.3906 -0.0163  0.3420
 1004TIP3    H124427   5.940   2.372  12.890 -1.8018  0.2142  0.3759
 1004TIP3    H224428   5.863   2.361  12.760 -0.6383  1.2500 -0.4195
 1005TIP3   OH224429   1.157   3.092  16.948 -0.3600 -0.3228 -0.1572
 1005TIP3    H124430   1.137   3.153  17.018 -0.2508 -0.0390 -0.3731
 1005TIP3    H224431   1.212   3.025  16.989 -0.4221 -0.2392  0.0620
 1006TIP3   OH224432   4.405   4.775  12.029  0.0569 -0.3931  0.5169
 1006TIP3    H124433   4.431   4.848  11.974  0.2997 -0.5843  0.3775
 1006TIP3    H224434   4.378   4.815  12.112 -1.0786 -0.0401 -0.0139
 1007TIP3   OH224435   2.789   1.726   4.388  0.4501 -0.8485 -0.9166
 1007TIP3    H124436   2.781   1.631   4.396 -1.4317 -0.6736 -0.1595
 1007TIP3    H224437   2.737   1.760   4.460 -1.3479  0.7578 -2.8544
 1008TIP3   OH224438   0.449   0.781  12.109  0.1633 -0.4964 -0.3554
 1008TIP3    H124439   0.394   0.859  12.114 -1.3453 -1.5644  0.9561
 1008TIP3    H224440   0.476   0.766  12.200  1.7833 -0.5985 -0.8355
 1009TIP3   OH224441   4.496   1.628  17.007  0.5024  0.3258  0.1500
 1009TIP3    H124442   4.428   1.692  16.989 -0.1867 -0.4021  0.0977
 1009TIP3    H224443   4.451   1.544  17.005  1.5450 -0.2348 -0.6259
 1010TIP3   OH224444   6.520   0.859  11.193 -0.4843  0.2354  0.2228
 1010TIP3    H124445   6.500   0.936  11.246 -0.5969  0.4255 -0.0911
 1010TIP3    H224446   6.553   0.895  11.110 -0.5977 -0.0496  0.0504
 1011TIP3   OH224447   4.567   6.334  15.351 -0.6567 -0.0584 -0.5946
 1011TIP3    H124448   4.513   6.407  15.383  0.0108 -0.0067  0.4770
 1011TIP3    H224449   4.539   6.320  15.261  0.4527  2.7440 -1.4678
 1012TIP3   OH224450   1.910   2.444  11.544  0.3685 -0.2334 -0.0629
 1012TIP3    H124451   1.834   2.403  11.503  0.1327 -0.9049  1.0130
 1012TIP3    H224452   1.985   2.414  11.491  0.0534 -0.9388 -0.1253
 1013TIP3   OH224453   3.210   1.906  14.682  0.5837 -0.3379 -0.5176
 1013TIP3    H124454   3.300   1.908  14.714  0.0724 -0.2362  1.0201
 1013TIP3    H224455   3.199   1.988  14.634  0.9862  0.2023  0.2854
 1014TIP3   OH224456   4.366   3.390  11.359 -0.1961  0.5119  0.4547
 1014TIP3    H124457   4.328   3.472  11.327  0.9406  1.0142  0.3269
 1014TIP3    H224458   4.374   3.335  11.282 -0.6285  0.4154  0.4781
 1015TIP3   OH224459   5.950   2.568  16.092  0.1093  0.2029 -0.2594
 1015TIP3    H124460   5.994   2.527  16.018 -2.2967  0.6340 -2.0353
 1015TIP3    H224461   5.890   2.501  16.124 -0.1972  0.6473  0.1003
 1016TIP3   OH224462   2.947   5.523  16.717  0.4129 -0.1896 -0.3660
 1016TIP3    H124463   2.953   5.614  16.687  0.0839  0.1348  0.5231
 1016TIP3    H224464   2.853   5.509  16.731  0.6404  0.0917  1.7331
 1017TIP3   OH224465   4.171   1.763  14.842 -0.3803 -0.3568 -0.1768
 1017TIP3    H124466   4.207   1.804  14.921 -1.4748  0.9216 -0.3129
 1017TIP3    H224467   4.218   1.680  14.835  0.5964  0.0493  1.1410
 1018TIP3   OH224468   2.231   1.430  13.190  0.4512 -0.2064  0.1053
 1018TIP3    H124469   2.220   1.492  13.261 -0.2084  0.3015 -0.4356
 1018TIP3    H224470   2.257   1.483  13.115 -2.2765 -0.2260 -0.9737
 1019TIP3   OH224471   5.404   2.850  13.770 -0.3440  0.1948 -0.1177
 1019TIP3    H124472   5.331   2.833  13.830 -0.2007  0.5372  0.1540
 1019TIP3    H224473   5.483   2.833  13.822 -0.2222 -1.2150 -0.7086
 1020TIP3   OH224474   3.695   4.680  11.546 -0.4922  0.1412  0.3051
 1020TIP3    H124475   3.695   4.696  11.452 -1.0875  3.8427  0.7875
 1020TIP3    H224476   3.787   4.687  11.572 -0.3176 -0.9800  0.0032
 1021TIP3   OH224477   4.211   2.211  13.567  0.1254 -0.1290 -0.6867
 1021TIP3    H124478   4.295   2.168  13.585 -0.5458 -0.4263  2.1562
 1021TIP3    H224479   4.165   2.150  13.509  1.5967 -0.2231 -1.8318
 1022TIP3   OH224480   4.976   0.802  15.134 -0.3071 -0.5607  0.3821
 1022TIP3    H124481   4.929   0.720  15.147 -1.3243  0.1641  1.4919
 1022TIP3    H224482   4.911   0.863  15.100 -0.1140  0.3460  1.5232
 1023TIP3   OH224483   6.391   2.834   0.513 -0.6247  0.2012  0.0838
 1023TIP3    H124484   6.343   2.753   0.533 -1.4946  0.7200  0.1045
 1023TIP3    H224485   6.446   2.810   0.438 -0.0408 -0.7251  0.7804
 1024TIP3   OH224486   4.216   6.040  15.059 -0.0170 -0.4308  0.4003
 1024TIP3    H124487   4.291   5.983  15.078  0.3839  1.0916  4.3228
 1024TIP3    H224488   4.147   6.010  15.118 -1.2669  0.4882 -0.5386
 1025TIP3   OH224489   0.756   0.784  11.103 -0.6921 -0.0186 -0.4333
 1025TIP3    H124490   0.735   0.876  11.114  0.0615  0.0320  0.8245
 1025TIP3    H224491   0.713   0.759  11.022 -0.4241  1.5838 -1.1019
 1026TIP3   OH224492   6.759   2.148   4.049 -0.2846 -0.3817 -0.0364
 1026TIP3    H124493   6.724   2.064   4.079 -0.5410 -0.7878 -1.3749
 1026TIP3    H224494   6.853   2.134   4.043  0.0031  0.2513  2.1569
 1027TIP3   OH224495   5.526   0.414   3.622  0.1079 -1.0617  0.1027
 1027TIP3    H124496   5.600   0.475   3.618 -0.6602 -0.0906  0.3286
 1027TIP3    H224497   5.559   0.333   3.583  1.4467 -0.8153  0.6917
 1028TIP3   OH224498   6.368   0.437  12.921  0.4268  0.1477  0.1926
 1028TIP3    H124499   6.338   0.526  12.906  1.0059  0.0324 -1.8760
 1028TIP3    H224500   6.290   0.390  12.949 -0.1137  1.0573  0.2513
 1029TIP3   OH224501   0.152   2.323  16.379  0.0140 -0.2263 -0.9726
 1029TIP3    H124502   0.076   2.295  16.328  1.3772 -0.7171 -2.8732
 1029TIP3    H224503   0.218   2.255  16.362  1.0095  0.3597  0.3332
 1030TIP3   OH224504   3.605   1.481  11.077  0.0022  0.1794 -0.2343
 1030TIP3    H124505   3.529   1.530  11.046 -0.0281  0.3002  0.0296
 1030TIP3    H224506   3.597   1.395  11.035  0.6884  0.7617 -1.6393
 1031TIP3   OH224507   6.724   4.523  16.054 -0.0724 -0.3111 -0.8174
 1031TIP3    H124508   6.729   4.442  16.003  1.5869  0.5363 -2.0912
 1031TIP3    H224509   6.790   4.512  16.122 -1.2961 -0.8397  0.3510
 1032TIP3   OH224510   3.500   5.523   0.504  0.0559  0.5223 -0.0110
 1032TIP3    H124511   3.582   5.570   0.487  1.2247 -2.0532 -2.3817
 1032TIP3    H224512   3.520   5.466   0.578 -0.2352  1.2582  0.6402
 1033TIP3   OH224513   1.453   4.688   5.040  0.4384 -0.2514 -0.0507
 1033TIP3    H124514   1.429   4.632   5.114  1.4427 -0.2174  0.3142
 1033TIP3    H224515   1.388   4.667   4.973  0.5615 -1.5851  0.2104
 1034TIP3   OH224516   6.236   5.278  12.086 -0.2561 -0.1799  0.5179
 1034TIP3    H124517   6.248   5.353  12.027  1.2782  1.3965  2.6515
 1034TIP3    H224518   6.295   5.211  12.051  1.0848  0.9323  0.5129
 1035TIP3   OH224519   2.456   4.597   3.173  0.0577  0.0589  0.3187
 1035TIP3    H124520   2.413   4.512   3.180  1.3645 -0.7095 -0.5131
 1035TIP3    H224521   2.548   4.579   3.195  0.4152  1.1784 -0.1872
 1036TIP3   OH224522   4.678   3.845  10.869 -0.4519 -0.2721  0.2255
 1036TIP3    H124523   4.660   3.871  10.960 -1.1543  1.1181 -0.2892
 1036TIP3    H224524   4.606   3.787  10.846  0.3257 -1.5701  0.8876
 1037TIP3   OH224525   3.646   4.836   0.732 -0.2465 -0.3101 -0.3547
 1037TIP3    H124526   3.736   4.843   0.700  0.4393 -0.3111  1.4404
 1037TIP3    H224527   3.634   4.742   0.747  0.2060 -0.1565  1.2634
 1038TIP3   OH224528   5.319   2.917   0.450 -0.1099  0.2673 -0.4630
 1038TIP3    H124529   5.349   2.907   0.541  0.5468 -0.1316 -0.7156
 1038TIP3    H224530   5.329   3.011   0.432  0.5246  0.2218 -0.3782
 1039TIP3   OH224531   2.185   1.833  15.725  0.0138 -0.0068  0.1901
 1039TIP3    H124532   2.119   1.850  15.792  1.2746  1.2312  1.1974
 1039TIP3    H224533   2.219   1.920  15.702  1.2748 -0.5945 -0.2861
 1040TIP3   OH224534   5.214   0.719  14.987 -0.0700 -0.2412 -0.1849
 1040TIP3    H124535   5.178   0.631  14.992  0.3714 -0.3793  4.1181
 1040TIP3    H224536   5.141   0.777  15.009  0.1859  0.2786 -0.6722
 1041TIP3   OH224537   4.334   3.254   3.506  0.1641 -0.0803 -0.0929
 1041TIP3    H124538   4.356   3.227   3.595  3.9175 -1.0416 -1.1171
 1041TIP3    H224539   4.412   3.300   3.475 -2.4399  3.7781 -1.6883
 1042TIP3   OH224540   4.770   2.931  14.149 -0.6769 -0.0012 -0.5371
 1042TIP3    H124541   4.739   2.869  14.215 -1.3522  0.5050 -0.3621
 1042TIP3    H224542   4.777   2.880  14.069  0.6253 -0.7438  0.0151
 1043TIP3   OH224543   0.995   3.675  14.799  0.0124  0.0223  0.7829
 1043TIP3    H124544   1.053   3.729  14.745 -0.7971  0.9185  0.7678
 1043TIP3    H224545   1.020   3.695  14.889 -0.7781  1.0403  0.8008
 1044TIP3   OH224546   2.741   4.970   2.244  0.4166 -0.0326  0.0802
 1044TIP3    H124547   2.648   4.982   2.264  0.2302  0.4008 -0.9689
 1044TIP3    H224548   2.759   5.037   2.177  1.5602  0.1017  0.5115
 1045TIP3   OH224549   0.899   4.682   2.866  0.1349  0.0955  0.2573
 1045TIP3    H124550   0.869   4.762   2.824  0.8087  0.0286 -0.3711
 1045TIP3    H224551   0.886   4.697   2.960 -0.3659  0.6711  0.1016
 1046TIP3   OH224552   5.217   0.877   0.115  0.1378 -0.3756  0.5785
 1046TIP3    H124553   5.268   0.891   0.194  1.2482 -1.2314  0.0330
 1046TIP3    H224554   5.258   0.933   0.049  0.7062 -1.4503  0.0048
 1047TIP3   OH224555   2.700   6.547   0.926  0.5238  0.4606  0.1799
 1047TIP3    H124556   2.714   6.599   0.847 -1.2715 -1.7956 -1.7982
 1047TIP3    H224557   2.604   6.546   0.937  0.5022 -2.0692  0.2808
 1048TIP3   OH224558   3.577   2.227   2.397  0.0054 -0.2205 -0.3782
 1048TIP3    H124559   3.533   2.280   2.463  1.4182  0.9407 -0.3305
 1048TIP3    H224560   3.598   2.145   2.442  1.1439  0.6372  0.7080
 1049TIP3   OH224561   4.826   5.295   3.565 -0.4778  0.1162  0.5196
 1049TIP3    H124562   4.905   5.345   3.543 -2.1929  1.3701 -3.5730
 1049TIP3    H224563   4.860   5.213   3.601  2.5666  1.5945  1.4186
 1050TIP3   OH224564   6.319   6.758   4.155 -0.6850  0.2057  0.3603
 1050TIP3    H124565   6.357   6.743   4.242 -0.2982 -1.1286 -0.0270
 1050TIP3    H224566   6.241   6.812   4.173  0.5760  1.8213  1.2904
 1051TIP3   OH224567   1.830   5.509  15.499 -0.1660 -0.1746 -0.6830
 1051TIP3    H124568   1.785   5.425  15.484  0.3524 -0.5879  0.0055
 1051TIP3    H224569   1.776   5.574  15.455 -1.0287 -0.7651 -0.5070
 1052TIP3   OH224570   1.268   3.289  16.767  0.6308 -0.1788 -0.4146
 1052TIP3    H124571   1.288   3.251  16.682 -0.6189  0.0303 -0.8207
 1052TIP3    H224572   1.210   3.226  16.809 -1.4309  1.1885 -1.0754
 1053TIP3   OH224573   2.413   2.259   5.085 -0.2359  0.2442  0.6349
 1053TIP3    H124574   2.498   2.277   5.047 -1.0150 -0.6679 -1.6972
 1053TIP3    H224575   2.361   2.337   5.067 -0.2282  0.3644  1.1042
 1054TIP3   OH224576   2.075   1.754   2.349 -0.1455 -0.0871 -0.1343
 1054TIP3    H124577   2.040   1.759   2.260 -1.3150  0.8970  0.3525
 1054TIP3    H224578   2.003   1.785   2.405  0.6740 -0.3941  1.1314
 1055TIP3   OH224579   2.595   0.450   0.769  0.0094 -0.1150 -0.2031
 1055TIP3    H124580   2.622   0.368   0.812  3.5770  1.3674  0.8090
 1055TIP3    H224581   2.570   0.507   0.841 -0.9105  0.1926 -0.7607
 1056TIP3   OH224582   1.598   2.728   3.863 -0.1692  1.0539  0.3190
 1056TIP3    H124583   1.664   2.659   3.854  0.6491  1.9544 -0.8982
 1056TIP3    H224584   1.593   2.768   3.776 -0.3023  2.8126  1.0971
 1057TIP3   OH224585   4.762   0.765   6.430 -0.7495  0.1208 -0.0623
 1057TIP3    H124586   4.837   0.774   6.371  0.1485  1.5783  1.2289
 1057TIP3    H224587   4.703   0.837   6.405 -0.5089  0.5525  0.6002
 1058TIP3   OH224588   2.232   1.984  11.730  0.3979  0.0760 -0.0007
 1058TIP3    H124589   2.176   2.041  11.677  0.2496 -2.0968 -2.3923
 1058TIP3    H224590   2.280   1.932  11.666  0.1753 -2.8303  1.9757
 1059TIP3   OH224591   4.106   6.366  16.224  0.1972  0.2792  0.7589
 1059TIP3    H124592   4.054   6.445  16.211  0.5130  0.2529 -0.8275
 1059TIP3    H224593   4.139   6.374  16.313 -0.3586  1.5801  0.8745
 1060TIP3   OH224594   1.140   4.963   2.686 -0.3254 -0.1946 -0.0635
 1060TIP3    H124595   1.098   4.878   2.669 -1.0026  0.0023  0.5970
 1060TIP3    H224596   1.184   4.984   2.604 -1.1801 -0.6012 -0.6431
 1061TIP3   OH224597   0.658   5.689  13.860  0.1878  0.3283 -0.0414
 1061TIP3    H124598   0.679   5.600  13.888 -0.3678  0.1657 -0.1404
 1061TIP3    H224599   0.664   5.741  13.939 -0.2403  0.0682  0.1665
 1062TIP3   OH224600   6.755   1.228  16.496 -0.3439  0.0276 -0.2367
 1062TIP3    H124601   6.778   1.222  16.589  0.7677  0.9550 -0.4299
 1062TIP3    H224602   6.703   1.308  16.489  2.3339  1.8390 -0.8751
 1063TIP3   OH224603   5.084   3.926   5.376  0.3279 -0.4735  0.1199
 1063TIP3    H124604   5.030   3.848   5.360  1.6211 -0.9851 -2.2608
 1063TIP3    H224605   5.133   3.905   5.456  1.6093 -2.7713 -1.1444
 1064TIP3   OH224606   6.277   3.800   4.946 -0.0105 -0.0041 -0.2074
 1064TIP3    H124607   6.368   3.792   4.919  0.8935  0.8732  2.3148
 1064TIP3    H224608   6.242   3.872   4.893  1.1285  0.4998 -0.2936
 1065TIP3   OH224609   0.425   0.299   3.839  0.3703 -0.0699 -0.1810
 1065TIP3    H124610   0.352   0.346   3.799  1.8800  0.7113 -2.1649
 1065TIP3    H224611   0.499   0.359   3.832  1.8887 -1.9404 -0.9273
 1066TIP3   OH224612   6.709   1.523  11.540  0.0295  0.0702 -0.4086
 1066TIP3    H124613   6.638   1.461  11.522  0.3665 -1.1870  2.1537
 1066TIP3    H224614   6.770   1.512  11.467  0.3987 -3.1682  0.2437
 1067TIP3   OH224615   6.014   2.054   0.506 -0.3230 -0.4994  0.7303
 1067TIP3    H124616   5.985   2.058   0.415  1.9400 -2.5072 -0.1925
 1067TIP3    H224617   5.953   1.995   0.549 -1.3275  0.3549  0.5021
 1068TIP3   OH224618   1.474   4.167  15.345 -0.0989  0.2825 -0.0007
 1068TIP3    H124619   1.483   4.260  15.365  0.6918  0.2076  0.0222
 1068TIP3    H224620   1.483   4.122  15.429 -1.4049  0.2179  0.1348
 1069TIP3   OH224621   6.744   1.516  10.495 -0.3502 -0.0636 -0.4415
 1069TIP3    H124622   6.733   1.430  10.454 -1.0382 -0.3700  0.3535
 1069TIP3    H224623   6.829   1.546  10.465 -0.1636 -0.9628 -0.8495
 1070TIP3   OH224624   5.580   6.225  13.709 -0.1337  0.0005 -0.1810
 1070TIP3    H124625   5.552   6.243  13.619 -1.3539 -5.0561 -1.1028
 1070TIP3    H224626   5.503   6.244  13.762 -0.5040 -0.0729 -0.6838
 1071TIP3   OH224627   0.179   0.004  13.274 -0.4738 -0.6544  0.1743
 1071TIP3    H124628   0.187   0.094  13.306 -0.5273 -0.1429 -1.2083
 1071TIP3    H224629   0.121  -0.039  13.338  0.0001  0.1255  1.1552
 1072TIP3   OH224630   6.245   1.825  15.038 -0.2777  1.1805 -0.5668
 1072TIP3    H124631   6.321   1.779  15.002  0.2626  1.5433  0.0794
 1072TIP3    H224632   6.172   1.765  15.025  0.6781 -0.6216  1.7443
 1073TIP3   OH224633   1.194   1.442   3.064 -0.4081  0.4731 -0.2991
 1073TIP3    H124634   1.226   1.497   2.992  1.2395 -0.0143  0.0180
 1073TIP3    H224635   1.230   1.482   3.143 -0.1298 -0.4258  0.0349
 1074TIP3   OH224636   0.509   2.369   6.036 -0.0415 -0.7795  0.5519
 1074TIP3    H124637   0.513   2.361   5.941  0.1315  2.6745  0.1569
 1074TIP3    H224638   0.585   2.421   6.059 -2.1499  1.8872  2.0352
 1075TIP3   OH224639   6.775   5.700   4.647 -0.0340 -0.0710  0.1470
 1075TIP3    H124640   6.835   5.764   4.684 -0.0470  0.0243  0.0058
 1075TIP3    H224641   6.707   5.752   4.605 -0.7896 -0.1706  1.2039
 1076TIP3   OH224642   6.529   3.761   4.826 -0.0440  0.5983  0.0110
 1076TIP3    H124643   6.530   3.845   4.779 -0.7348 -0.7776 -2.7044
 1076TIP3    H224644   6.609   3.717   4.798 -1.4244 -1.0632 -1.6467
 1077TIP3   OH224645   0.562   0.283  11.176 -0.4300 -0.3446 -0.0047
 1077TIP3    H124646   0.476   0.309  11.144 -0.6235 -1.1048 -0.1277
 1077TIP3    H224647   0.588   0.352  11.237 -1.3076 -0.3317  0.3584
 1078TIP3   OH224648   5.249   1.364   1.858  0.0271  0.4263 -0.0199
 1078TIP3    H124649   5.157   1.383   1.876  0.1663  2.7698 -1.3644
 1078TIP3    H224650   5.290   1.450   1.846  1.9817 -0.5991 -1.3950
 1079TIP3   OH224651   4.863   3.381  15.326  0.0312 -0.1561  0.5332
 1079TIP3    H124652   4.817   3.305  15.362  0.5334 -0.7543 -0.0699
 1079TIP3    H224653   4.890   3.354  15.239 -1.4001  1.3566 -0.4553
 1080TIP3   OH224654   0.204   1.307  16.109  0.0313  0.1440  0.2194
 1080TIP3    H124655   0.183   1.214  16.116  0.5519 -0.0107 -0.2177
 1080TIP3    H224656   0.261   1.314  16.033 -0.3771  0.8904 -0.0359
 1081TIP3   OH224657   4.672   1.242  14.588  0.2896 -0.1383  0.8556
 1081TIP3    H124658   4.668   1.158  14.543  1.0904  1.0961 -1.7077
 1081TIP3    H224659   4.759   1.243  14.628  0.7610 -0.0699 -0.1404
 1082TIP3   OH224660   6.759   6.165  13.261 -0.2771  0.4255 -0.3376
 1082TIP3    H124661   6.743   6.215  13.181 -1.6640  1.4013  0.5069
 1082TIP3    H224662   6.742   6.227  13.332  0.6090 -0.5125  0.7214
 1083TIP3   OH224663   4.222   4.524   2.751  0.1219 -0.4662  0.1871
 1083TIP3    H124664   4.266   4.471   2.685  2.1626  0.2412  0.9141
 1083TIP3    H224665   4.220   4.612   2.713 -2.0818 -0.7276 -0.4623
 1084TIP3   OH224666   2.334   1.174   4.481 -0.3203  0.1673 -0.1926
 1084TIP3    H124667   2.260   1.114   4.485 -0.2162  0.0177 -0.4666
 1084TIP3    H224668   2.403   1.124   4.436  0.1683  0.0659  0.6411
 1085TIP3   OH224669   0.300   1.309  16.651 -0.5133  0.2765  0.4081
 1085TIP3    H124670   0.344   1.244  16.595 -2.1246 -0.0846 -0.5079
 1085TIP3    H224671   0.368   1.337  16.712  0.1477 -2.6970  1.2465
 1086TIP3   OH224672   2.966   2.453  15.983  0.4847 -0.1813  0.3684
 1086TIP3    H124673   3.057   2.443  16.012  0.4373 -0.2966  0.4770
 1086TIP3    H224674   2.920   2.488  16.059  0.3980 -0.3112  0.3761
 1087TIP3   OH224675   6.529   2.206  11.109 -0.9196 -0.1711  0.0739
 1087TIP3    H124676   6.587   2.221  11.183 -1.2006  1.2108  0.0507
 1087TIP3    H224677   6.485   2.291  11.096 -1.7934 -0.7469 -0.8751
 1088TIP3   OH224678   2.980   3.892  17.094  0.0549 -0.9042  0.1476
 1088TIP3    H124679   2.955   3.940  17.015  1.0666  1.0657  0.9392
 1088TIP3    H224680   2.908   3.831  17.108 -0.1905 -1.2924 -2.2417
 1089TIP3   OH224681   0.785   6.668   1.428 -0.5305  0.1064 -0.1040
 1089TIP3    H124682   0.838   6.650   1.505 -0.2723 -0.4345 -0.4097
 1089TIP3    H224683   0.707   6.613   1.439  0.2474 -1.2405 -1.0237
 1090TIP3   OH224684   5.952   1.400   3.517 -0.3331  0.9824  0.0724
 1090TIP3    H124685   5.909   1.467   3.465 -0.0142  0.4945 -0.8426
 1090TIP3    H224686   5.917   1.411   3.606 -0.0132  2.5754  0.0176
 1091TIP3   OH224687   4.599   0.822  16.277 -0.3232  0.1225 -0.4511
 1091TIP3    H124688   4.690   0.812  16.249  0.2390 -1.1383  1.6041
 1091TIP3    H224689   4.601   0.895  16.339 -0.3202 -1.0394  0.9689
 1092TIP3   OH224690   1.214   3.731   2.721  0.2278 -0.1339  0.2553
 1092TIP3    H124691   1.215   3.651   2.667  0.4821  0.2646 -0.3390
 1092TIP3    H224692   1.286   3.783   2.687 -0.7856  0.9562 -0.2668
 1093TIP3   OH224693   0.983   5.122   2.270 -0.1888 -0.3405  0.0518
 1093TIP3    H124694   1.063   5.071   2.261 -1.1354 -1.7707 -0.7437
 1093TIP3    H224695   0.928   5.071   2.329 -0.8442  0.1899 -0.0779
 1094TIP3   OH224696   4.505   1.468   1.647  0.1052  0.6895 -0.3464
 1094TIP3    H124697   4.555   1.390   1.666 -1.5830 -0.1501  0.9007
 1094TIP3    H224698   4.563   1.521   1.591  2.0135 -0.5457  0.3735
 1095TIP3   OH224699   1.440   4.737   3.115 -0.0635 -0.3968 -0.0248
 1095TIP3    H124700   1.493   4.698   3.185 -0.4804 -0.4670  0.2534
 1095TIP3    H224701   1.445   4.831   3.130  0.3072 -0.3785 -0.2382
 1096TIP3   OH224702   6.013   3.470  12.867 -0.3208 -0.7934  0.8637
 1096TIP3    H124703   6.066   3.428  12.799  1.1659  1.2956  0.6462
 1096TIP3    H224704   6.071   3.534  12.906 -2.3640  0.8179  1.4232
 1097TIP3   OH224705   6.560   1.346   0.416 -0.1881  0.3467  0.2499
 1097TIP3    H124706   6.642   1.379   0.453 -0.4639  1.5314 -0.1362
 1097TIP3    H224707   6.502   1.422   0.416 -1.2161 -0.4253  0.3094
 1098TIP3   OH224708   4.120   6.576   0.011  0.2484 -0.0982 -0.7165
 1098TIP3    H124709   4.055   6.645   0.017  0.1182 -0.2850  0.1636
 1098TIP3    H224710   4.188   6.611  -0.046  0.4896  1.0070  0.2140
 1099TIP3   OH224711   1.610   5.572   3.470 -0.3201 -0.0713  0.4687
 1099TIP3    H124712   1.596   5.499   3.409 -4.9933  1.1669 -0.3255
 1099TIP3    H224713   1.623   5.648   3.415 -0.6288  0.4806  1.1439
 1100TIP3   OH224714   5.771   5.350   5.411 -0.2786 -0.1807  1.1129
 1100TIP3    H124715   5.694   5.408   5.411  1.5460  2.4745 -0.1729
 1100TIP3    H224716   5.833   5.393   5.471  0.1364 -2.4627  2.4227
 1101TIP3   OH224717   2.666   1.759  15.647  0.2005 -0.2683  0.3148
 1101TIP3    H124718   2.645   1.702  15.572  1.7375  1.0582 -1.2203
 1101TIP3    H224719   2.725   1.706  15.701  1.0809 -0.4155 -0.7421
 1102TIP3   OH224720   2.548   1.431   0.888 -0.1573  0.4690 -0.4186
 1102TIP3    H124721   2.541   1.524   0.910 -0.0500  0.2687  0.5028
 1102TIP3    H224722   2.547   1.387   0.973  1.3280 -0.2702 -0.7471
 1103TIP3   OH224723   0.868   5.785  13.215 -0.8099  0.3388  0.9210
 1103TIP3    H124724   0.847   5.851  13.149  0.8411 -0.4261 -0.4396
 1103TIP3    H224725   0.960   5.801  13.236 -0.1053 -1.9991 -0.0930
 1104TIP3   OH224726   5.439   1.735   0.762  0.2011 -0.1786  0.3580
 1104TIP3    H124727   5.482   1.814   0.797 -0.4627  0.0513  0.6788
 1104TIP3    H224728   5.345   1.755   0.767  0.0561 -0.5129 -0.6943
 1105TIP3   OH224729   1.525   0.664  11.322  0.7174 -0.0815 -0.0433
 1105TIP3    H124730   1.534   0.756  11.296  0.1766 -0.5734 -2.1561
 1105TIP3    H224731   1.613   0.638  11.348  0.6293  1.3658  2.0234
 1106TIP3   OH224732   5.210   0.176  11.035 -0.7842  0.4137  0.8381
 1106TIP3    H124733   5.183   0.248  10.978  0.6403 -0.5074 -1.1392
 1106TIP3    H224734   5.189   0.097  10.984 -0.6157 -0.5087  2.1541
 1107TIP3   OH224735   0.336   5.180  13.725 -0.1168  0.3012  0.0573
 1107TIP3    H124736   0.385   5.138  13.654 -0.1015  0.8304 -0.2439
 1107TIP3    H224737   0.399   5.189  13.796  0.5052  1.8401 -0.6501
 1108TIP3   OH224738   0.537   0.656  14.350  0.4555  0.3014  0.0224
 1108TIP3    H124739   0.574   0.737  14.315 -1.0190  1.2451  0.5123
 1108TIP3    H224740   0.455   0.645  14.302 -2.1672  2.1783  3.5579
 1109TIP3   OH224741   5.660   6.101  15.896  0.3183 -0.5113  0.1798
 1109TIP3    H124742   5.628   6.047  15.968  0.9584 -1.5556 -0.2924
 1109TIP3    H224743   5.596   6.088  15.826  0.0582 -0.0328  0.3250
 1110TIP3   OH224744   5.869   0.864  16.876  0.1598  0.3331  0.3656
 1110TIP3    H124745   5.838   0.887  16.788  2.0350 -1.0619 -0.7345
 1110TIP3    H224746   5.951   0.913  16.885  1.9060 -2.2961 -0.2461
 1111TIP3   OH224747   1.963   2.719   0.656 -0.1741 -0.2999 -0.5079
 1111TIP3    H124748   1.997   2.645   0.705  0.0924 -0.2298 -0.5839
 1111TIP3    H224749   2.040   2.757   0.614  0.0342  1.1846  1.0750
 1112TIP3   OH224750   0.581   6.612  15.811 -0.2507  0.2308  0.4008
 1112TIP3    H124751   0.572   6.527  15.768 -0.3315  1.4005 -2.0198
 1112TIP3    H224752   0.674   6.619  15.832 -0.1773 -0.2693  0.2648
 1113TIP3   OH224753   1.871   0.707  16.053  0.3667 -0.0362 -0.0519
 1113TIP3    H124754   1.906   0.625  16.017  1.1478  0.0299  0.5193
 1113TIP3    H224755   1.906   0.775  15.995  0.0138 -0.0742 -0.3133
 1114TIP3   OH224756   0.694   3.457  13.000  0.0304 -0.3535 -0.6070
 1114TIP3    H124757   0.675   3.536  12.950 -0.0536 -0.2934 -0.4798
 1114TIP3    H224758   0.756   3.486  13.067 -0.4753 -0.2681 -0.1757
 1115TIP3   OH224759   2.902   5.667  11.678  0.2876 -0.5248 -0.6273
 1115TIP3    H124760   2.938   5.607  11.743  1.1046 -0.8153 -1.3241
 1115TIP3    H224761   2.950   5.647  11.597 -1.0593 -0.5366 -1.4577
 1116TIP3   OH224762   1.875   6.045  13.415 -0.4399  0.5467 -0.2925
 1116TIP3    H124763   1.918   5.992  13.348 -0.2519  2.9658 -2.2120
 1116TIP3    H224764   1.782   6.037  13.396 -0.3722  1.4877 -1.1205
 1117TIP3   OH224765   2.595   2.442  16.535  0.2469 -0.6701  0.3683
 1117TIP3    H124766   2.631   2.500  16.467 -0.1009 -0.0397  0.7119
 1117TIP3    H224767   2.661   2.443  16.605  0.5388 -1.2055  0.1038
 1118TIP3   OH224768   5.736   4.103   2.898  0.0326 -0.5149  0.1018
 1118TIP3    H124769   5.751   4.149   2.816 -1.5967 -2.0562 -1.1381
 1118TIP3    H224770   5.773   4.161   2.965 -1.9896  2.6992 -1.3038
 1119TIP3   OH224771   6.123   4.689   0.531  0.6659 -0.1700  0.0203
 1119TIP3    H124772   6.133   4.776   0.491  0.0013 -0.3907 -0.6540
 1119TIP3    H224773   6.121   4.706   0.625  3.4636  0.2491  0.0841
 1120TIP3   OH224774   5.840   1.646   4.537  0.1025  0.0205 -0.1426
 1120TIP3    H124775   5.856   1.568   4.590  0.0579 -0.4917 -0.8681
 1120TIP3    H224776   5.927   1.684   4.525  0.2407 -0.3992 -0.5093
 1121TIP3   OH224777   3.183   0.554  15.207 -0.0650 -0.1313 -0.2699
 1121TIP3    H124778   3.143   0.505  15.135  0.5520  0.1828 -0.8479
 1121TIP3    H224779   3.273   0.521  15.210 -0.3450 -0.8257  1.0001
 1122TIP3   OH224780   0.224   4.860  12.137  0.8575 -0.0660  0.2099
 1122TIP3    H124781   0.313   4.871  12.105  1.5244  0.3462  2.0593
 1122TIP3    H224782   0.218   4.918  12.213 -0.0981 -2.0458  1.7546
 1123TIP3   OH224783   0.560   3.528   2.568 -0.0717 -0.5053 -0.0752
 1123TIP3    H124784   0.485   3.477   2.598  0.0436 -0.1357  0.8685
 1123TIP3    H224785   0.555   3.611   2.616  1.9456 -1.1774  1.4577
 1124TIP3   OH224786   5.755   1.630   2.767 -0.6545 -0.0364 -0.2020
 1124TIP3    H124787   5.792   1.587   2.844  0.4836  0.2464 -0.5686
 1124TIP3    H224788   5.704   1.562   2.723  2.0656 -1.4318 -1.4181
 1125TIP3   OH224789   6.355   2.346   2.051 -0.1880 -0.3470 -0.5163
 1125TIP3    H124790   6.428   2.324   1.993  0.2737 -0.4330  0.0922
 1125TIP3    H224791   6.360   2.280   2.120 -0.7460 -0.2506 -0.3849
 1126TIP3   OH224792   6.766   5.761   6.014 -0.1524 -0.6488 -0.4268
 1126TIP3    H124793   6.721   5.807   6.085 -2.6185 -0.1547 -2.1524
 1126TIP3    H224794   6.836   5.821   5.987  0.1635 -0.3990  0.8924
 1127TIP3   OH224795   3.427   2.715   1.184 -0.3689  0.3305  0.3273
 1127TIP3    H124796   3.444   2.654   1.111 -0.5902  1.5269 -0.7645
 1127TIP3    H224797   3.455   2.667   1.262 -2.2760 -1.8992 -0.2372
 1128TIP3   OH224798   2.153   0.366  10.544  0.1676  0.1618 -0.3004
 1128TIP3    H124799   2.071   0.409  10.521  0.2433 -0.2430 -1.3745
 1128TIP3    H224800   2.136   0.272  10.531 -0.0041 -0.1780  2.0308
 1129TIP3   OH224801   4.420   5.539  16.856  0.7059  0.3222 -0.3688
 1129TIP3    H124802   4.483   5.468  16.872  1.9423  1.1299 -1.4865
 1129TIP3    H224803   4.452   5.612  16.909 -0.0858  0.3294  0.1161
 1130TIP3   OH224804   2.522   1.523  17.018 -0.0424 -0.2172 -0.9185
 1130TIP3    H124805   2.436   1.482  17.014  0.6529 -2.4795  2.7737
 1130TIP3    H224806   2.511   1.596  17.079  0.4338  0.3535 -1.4887
 1131TIP3   OH224807   4.368   0.792   3.394  0.1637  0.5173 -0.3965
 1131TIP3    H124808   4.395   0.761   3.481  0.0905 -0.2846 -0.6598
 1131TIP3    H224809   4.274   0.808   3.403 -0.2527 -1.4690 -0.8648
 1132TIP3   OH224810   1.948   1.513   1.775 -0.1967  0.1190  0.4670
 1132TIP3    H124811   1.884   1.449   1.807  0.7334 -0.5241  1.0930
 1132TIP3    H224812   2.018   1.510   1.840  0.7784  0.3285 -0.5589
 1133TIP3   OH224813   4.487   1.983   1.689  0.3235  0.2584  0.2409
 1133TIP3    H124814   4.544   1.973   1.613  0.5366  1.5155  0.2030
 1133TIP3    H224815   4.533   1.940   1.760  0.1808 -0.8194 -0.3060
 1134TIP3   OH224816   3.392   5.077  14.035 -0.6720  0.7090 -0.6905
 1134TIP3    H124817   3.438   5.153  13.999  0.3113  0.7025  0.4925
 1134TIP3    H224818   3.357   5.031  13.958 -1.2551  2.3225 -1.4353
 1135TIP3   OH224819   2.789   6.064  16.574  0.4472  0.0505 -0.2392
 1135TIP3    H124820   2.792   6.157  16.552  1.3058  0.4039  1.1825
 1135TIP3    H224821   2.804   6.018  16.491 -0.9653  1.1413 -1.1287
 1136TIP3   OH224822   2.791   0.734  11.152 -0.0950  0.5778 -0.1567
 1136TIP3    H124823   2.769   0.735  11.058  1.0245 -2.2816 -0.5491
 1136TIP3    H224824   2.707   0.717  11.195 -0.2572 -0.6032 -0.8791
 1137TIP3   OH224825   3.383   1.885  11.333  0.3221  0.1154  0.0010
 1137TIP3    H124826   3.403   1.854  11.244  1.0969  1.9912 -0.5199
 1137TIP3    H224827   3.438   1.832  11.390 -0.8571 -1.7637 -0.5022
 1138TIP3   OH224828   5.648   5.231   6.144 -0.8002 -0.0881  0.3657
 1138TIP3    H124829   5.672   5.306   6.197  2.0386 -1.3657  1.0567
 1138TIP3    H224830   5.559   5.208   6.174 -0.3265  0.8329  2.6788
 1139TIP3   OH224831   4.068   3.818   4.069  0.2718 -0.1557 -0.2170
 1139TIP3    H124832   4.137   3.782   4.013 -0.7225 -0.7739 -1.0719
 1139TIP3    H224833   4.003   3.748   4.076 -0.4528  0.5425  0.2724
 1140TIP3   OH224834   1.489   6.458   4.670 -0.4918  0.1921  0.2419
 1140TIP3    H124835   1.489   6.550   4.645 -1.2841  0.8899  2.5682
 1140TIP3    H224836   1.397   6.434   4.672 -0.4316  0.0066  1.7677
 1141TIP3   OH224837   4.895   5.411   1.820 -0.2511 -0.0782  0.1188
 1141TIP3    H124838   4.850   5.333   1.855 -0.2173  0.2949  1.0149
 1141TIP3    H224839   4.972   5.420   1.875  0.4953 -0.2128 -0.8764
 1142TIP3   OH224840   1.012   0.730  13.658 -0.3458 -0.2304 -0.4366
 1142TIP3    H124841   1.011   0.635  13.656  0.7816 -0.3394  1.4045
 1142TIP3    H224842   0.947   0.754  13.724 -0.6124  0.2773 -0.8737
 1143TIP3   OH224843   2.731   2.849   6.835 -0.1239 -0.2393 -0.0348
 1143TIP3    H124844   2.722   2.860   6.740  0.0274 -1.6891 -0.2550
 1143TIP3    H224845   2.715   2.755   6.849  1.8106 -0.4411  1.1233
 1144TIP3   OH224846   3.793   2.629   2.398  0.4343  0.6323 -0.2119
 1144TIP3    H124847   3.750   2.701   2.353 -0.5901 -0.3597 -0.8838
 1144TIP3    H224848   3.722   2.585   2.445  0.9933 -0.0935 -0.0275
 1145TIP3   OH224849   5.168   5.903   3.255 -0.2061 -0.0424 -0.7334
 1145TIP3    H124850   5.142   5.888   3.164 -0.4631 -2.6837 -0.3118
 1145TIP3    H224851   5.086   5.895   3.304  0.1978 -0.5556 -0.1194
 1146TIP3   OH224852   1.688   1.965  11.312 -0.1135 -0.1065  0.2334
 1146TIP3    H124853   1.728   2.048  11.288 -0.1280 -0.4238 -0.9588
 1146TIP3    H224854   1.752   1.899  11.285 -0.3783 -0.5095  0.5825
 1147TIP3   OH224855   5.856   3.858   6.169 -0.3051 -0.0515 -0.3955
 1147TIP3    H124856   5.840   3.780   6.222 -1.2271 -0.6210 -1.4645
 1147TIP3    H224857   5.905   3.916   6.226  1.0322 -1.6922  0.2192
 1148TIP3   OH224858   0.468   1.498  17.143 -0.0876  0.1133  0.2930
 1148TIP3    H124859   0.555   1.483  17.181  0.0898 -1.7753 -0.7297
 1148TIP3    H224860   0.408   1.494  17.217  0.3984 -1.9491  0.6117
 1149TIP3   OH224861   0.670   4.906   0.978  0.1820  0.1070  0.3890
 1149TIP3    H124862   0.624   4.945   1.053 -1.1440  1.0736 -0.8656
 1149TIP3    H224863   0.655   4.812   0.986  0.4419  0.1519  1.5585
 1150TIP3   OH224864   0.358   5.285   2.163  0.3847  0.0124  0.0899
 1150TIP3    H124865   0.374   5.231   2.086  0.6539  0.8147 -0.4271
 1150TIP3    H224866   0.273   5.254   2.196 -0.5023  0.6940 -1.4418
 1151TIP3   OH224867   4.465   0.975   4.572 -0.2599 -0.1290 -0.4212
 1151TIP3    H124868   4.457   1.069   4.588 -0.1925 -0.3145  0.7967
 1151TIP3    H224869   4.442   0.964   4.480 -1.3358  0.9443 -0.3026
 1152TIP3   OH224870   4.725   5.588  11.753 -0.6532 -0.0903  0.2963
 1152TIP3    H124871   4.750   5.617  11.840  0.5703 -0.2999  0.0388
 1152TIP3    H224872   4.690   5.666  11.710  0.7437  0.5565  0.2698
 1153TIP3   OH224873   4.453   1.062  16.073 -0.7430 -0.2693 -0.1694
 1153TIP3    H124874   4.416   1.149  16.056  0.3587  0.3574  0.5507
 1153TIP3    H224875   4.525   1.077  16.133 -0.6265 -1.7155  0.1000
 1154TIP3   OH224876   6.765   4.639  16.664 -0.4361  0.1381  0.6400
 1154TIP3    H124877   6.741   4.566  16.606 -2.5103  0.6254  0.8076
 1154TIP3    H224878   6.765   4.600  16.751  0.5240 -0.0985  0.5498
 1155TIP3   OH224879   2.802   5.410  14.932  0.1058 -0.4291  0.6257
 1155TIP3    H124880   2.769   5.329  14.971  0.2671 -0.0294  1.6228
 1155TIP3    H224881   2.821   5.467  15.007 -0.8886  0.8820 -0.0592
 1156TIP3   OH224882   5.732   6.103   5.232  0.8172 -0.0164 -0.2254
 1156TIP3    H124883   5.814   6.063   5.260  0.8682  1.7039  2.4091
 1156TIP3    H224884   5.758   6.186   5.192  0.4003  1.2225  1.9156
 1157TIP3   OH224885   6.375   2.159   5.510 -0.5571  0.4944 -0.7664
 1157TIP3    H124886   6.306   2.224   5.523 -1.9107 -1.3183  2.1463
 1157TIP3    H224887   6.341   2.101   5.442 -1.0708  0.6778 -0.6711
 1158TIP3   OH224888   4.151   2.921  14.652  0.1799  0.1784 -0.4025
 1158TIP3    H124889   4.106   3.004  14.666  0.2718 -0.0049  1.2212
 1158TIP3    H224890   4.134   2.899  14.561 -4.3530 -0.5939  0.3713
 1159TIP3   OH224891   2.247   3.258   1.052  0.5041 -0.2691 -0.0897
 1159TIP3    H124892   2.277   3.258   0.961  2.3849 -0.9097  0.4855
 1159TIP3    H224893   2.155   3.232   1.047  0.7683 -1.0043 -1.7398
 1160TIP3   OH224894   1.781   5.243  14.362  0.1128  0.2867 -0.6702
 1160TIP3    H124895   1.728   5.252  14.283  0.5460 -1.3235 -1.1923
 1160TIP3    H224896   1.872   5.249  14.331  0.3385 -1.7567 -0.5798
 1161TIP3   OH224897   1.313   0.165  11.079 -0.3274  0.7159  0.1786
 1161TIP3    H124898   1.393   0.126  11.043 -0.4795  0.5650  0.0019
 1161TIP3    H224899   1.279   0.100  11.139 -1.5852 -0.2413 -1.4911
 1162TIP3   OH224900   4.452   0.682   4.287 -0.5648 -0.2273  0.4020
 1162TIP3    H124901   4.387   0.753   4.282 -1.2790 -0.9420 -1.3717
 1162TIP3    H224902   4.401   0.605   4.312 -0.7130 -1.0423 -2.0940
 1163TIP3   OH224903   3.546   2.977   5.227 -0.5260  0.2224  0.7073
 1163TIP3    H124904   3.578   2.899   5.272 -0.1560  0.7650  1.3946
 1163TIP3    H224905   3.614   2.996   5.162 -0.1161  0.5641  1.2293
 1164TIP3   OH224906   6.104   3.836  15.544  0.4035 -0.3248  0.0477
 1164TIP3    H124907   6.105   3.858  15.451  0.5059  1.1259  0.3698
 1164TIP3    H224908   6.073   3.745  15.547  0.7422 -0.5175 -1.4112
 1165TIP3   OH224909   5.810   5.650   3.297 -0.2231 -0.3401 -0.5644
 1165TIP3    H124910   5.833   5.733   3.340  1.8861 -0.3023 -1.6264
 1165TIP3    H224911   5.826   5.584   3.365 -0.6637 -0.0029 -0.1176
 1166TIP3   OH224912   1.571   6.283  13.407 -0.2943  0.2278 -0.4618
 1166TIP3    H124913   1.574   6.195  13.444 -1.2940 -0.3247 -1.6417
 1166TIP3    H224914   1.645   6.328  13.447  0.7269 -1.3844 -0.4586
 1167TIP3   OH224915   2.690   5.901  17.122  0.2867 -0.1790  0.0359
 1167TIP3    H124916   2.715   5.956  17.048 -0.8360 -1.2887 -1.2158
 1167TIP3    H224917   2.601   5.872  17.102 -0.4939  0.3391  2.3550
 1168TIP3   OH224918   3.881   2.444   5.298  0.4925  0.1099 -0.4224
 1168TIP3    H124919   3.946   2.512   5.281  2.1461 -1.3450 -0.3069
 1168TIP3    H224920   3.928   2.379   5.351 -0.8581 -1.3487 -0.9215
 1169TIP3   OH224921   0.903   6.022  15.404 -0.2350  0.4295  0.0331
 1169TIP3    H124922   0.849   5.960  15.356  0.7629 -1.9884  1.8514
 1169TIP3    H224923   0.959   6.061  15.336 -0.7546 -0.7912 -1.1543
 1170TIP3   OH224924   3.647   0.473  12.000  0.7183  0.3827  0.2495
 1170TIP3    H124925   3.689   0.559  11.994  2.5203 -0.5526 -1.3961
 1170TIP3    H224926   3.588   0.470  11.924 -0.5804  0.7551  1.2115
 1171TIP3   OH224927   0.486   5.505  12.699 -0.9771  0.1658 -0.0922
 1171TIP3    H124928   0.499   5.424  12.749  2.8583 -0.1370 -1.2486
 1171TIP3    H224929   0.504   5.480  12.608 -5.7841  1.1302 -1.5971
 1172TIP3   OH224930   5.024   2.223   0.124 -0.3231  0.0894 -0.6224
 1172TIP3    H124931   4.980   2.147   0.087  2.1244 -1.4428 -0.5828
 1172TIP3    H224932   5.034   2.203   0.217  0.1798  0.5280 -0.5742
 1173TIP3   OH224933   3.934   2.317   5.684  0.1764 -0.3073  0.5915
 1173TIP3    H124934   3.951   2.402   5.724  1.4168  0.1192 -0.7493
 1173TIP3    H224935   3.954   2.253   5.752  0.9116  0.4284  1.0727
 1174TIP3   OH224936   6.038   0.170   3.888  0.2007 -0.2452 -0.6257
 1174TIP3    H124937   6.059   0.145   3.978 -0.9741 -0.3311 -0.3708
 1174TIP3    H224938   5.945   0.151   3.878 -0.0509  1.2007 -1.3651
 1175TIP3   OH224939   5.006   5.102  17.053 -0.3720  0.2114  0.2118
 1175TIP3    H124940   4.950   5.026  17.038 -0.5969 -0.1351  2.4373
 1175TIP3    H224941   5.017   5.142  16.966 -1.6197 -1.3872 -0.7335
 1176TIP3   OH224942   4.222   6.469   1.589 -0.2632 -0.0005 -0.2828
 1176TIP3    H124943   4.180   6.544   1.629 -0.3022 -1.0164  1.7346
 1176TIP3    H224944   4.181   6.393   1.631  1.1055 -1.0932 -0.8188
 1177TIP3   OH224945   5.239   3.840  16.442  0.2254 -0.3147  0.0468
 1177TIP3    H124946   5.147   3.829  16.467  0.8813 -0.3642  2.8233
 1177TIP3    H224947   5.281   3.875  16.521  2.4501  0.5379 -1.4153
 1178TIP3   OH224948   4.899   5.719  12.334 -0.0240 -0.4844  0.0157
 1178TIP3    H124949   4.838   5.792  12.336 -1.8157 -1.9297  0.2117
 1178TIP3    H224950   4.941   5.725  12.248 -1.2566 -0.1063 -0.5735
 1179TIP3   OH224951   1.091   2.004   4.018 -0.4099  0.3625  0.0259
 1179TIP3    H124952   1.096   1.921   3.969  1.4426  0.2962  0.2549
 1179TIP3    H224953   1.028   2.057   3.969  0.3306 -0.2240 -1.6492
 1180TIP3   OH224954   1.198   2.444   5.325  0.4678 -0.1288 -0.2371
 1180TIP3    H124955   1.202   2.535   5.294  0.7776 -0.9720 -2.9356
 1180TIP3    H224956   1.222   2.392   5.248 -0.4096 -2.5354  1.0335
 1181TIP3   OH224957   6.651   3.410  15.812 -0.2721 -0.0850 -0.4039
 1181TIP3    H124958   6.671   3.317  15.801  0.2188  0.1978 -2.0743
 1181TIP3    H224959   6.663   3.448  15.725  0.0738  1.6540  0.3681
 1182TIP3   OH224960   6.145   6.002  15.403  0.0615  0.3569 -0.2549
 1182TIP3    H124961   6.173   5.953  15.480  1.4880  0.5867 -0.5920
 1182TIP3    H224962   6.142   5.937  15.332 -0.9325  0.2087 -0.0942
 1183TIP3   OH224963   5.280   1.669   4.880  0.3304  0.1930 -0.0110
 1183TIP3    H124964   5.338   1.627   4.944  0.5389  2.7265  1.6249
 1183TIP3    H224965   5.211   1.709   4.933  1.1541  3.4265 -1.1385
 1184TIP3   OH224966   0.724   5.765   0.809 -0.1051  0.3939 -0.2246
 1184TIP3    H124967   0.699   5.755   0.901  2.9110  1.9166  0.8994
 1184TIP3    H224968   0.712   5.858   0.791  1.3738  0.5133 -0.6693
 1185TIP3   OH224969   0.771   2.041  16.804 -0.1842  0.5472  0.7475
 1185TIP3    H124970   0.806   1.966  16.852 -2.1045  1.4962  3.9572
 1185TIP3    H224971   0.693   2.007  16.761 -0.3591  0.4024  1.1695
 1186TIP3   OH224972   5.675   4.564   0.807  0.0839 -0.0942  0.0047
 1186TIP3    H124973   5.761   4.525   0.820 -0.2395 -1.5121 -1.7755
 1186TIP3    H224974   5.687   4.657   0.829  2.0042 -0.2826 -0.0808
 1187TIP3   OH224975   6.415   1.417   0.757  0.5502  0.7358  0.2996
 1187TIP3    H124976   6.336   1.471   0.752 -0.0915 -0.1933 -0.0829
 1187TIP3    H224977   6.488   1.478   0.750 -0.1017  1.7680  1.8922
 1188TIP3   OH224978   3.958   1.050  13.471 -0.5480  0.1688  0.2268
 1188TIP3    H124979   3.981   0.989  13.401  0.1060  0.7731 -0.0988
 1188TIP3    H224980   4.038   1.057  13.524 -1.5784 -1.8248  2.2627
 1189TIP3   OH224981   6.123   4.385   0.648  0.3883  0.0795 -0.1540
 1189TIP3    H124982   6.145   4.355   0.737  0.6779 -0.7256 -0.4831
 1189TIP3    H224983   6.203   4.369   0.598  0.5789  1.4971 -0.3402
 1190TIP3   OH224984   0.822   2.943  11.217  0.1292 -0.1983 -0.5662
 1190TIP3    H124985   0.790   2.853  11.214 -1.1579  0.2097  0.3055
 1190TIP3    H224986   0.850   2.962  11.127 -0.3359 -1.1925 -0.9275
 1191TIP3   OH224987   0.390   1.850  15.417  0.5196 -0.1714 -0.3202
 1191TIP3    H124988   0.319   1.786  15.414 -0.3339  0.6365  1.3150
 1191TIP3    H224989   0.407   1.871  15.325  0.3348 -2.1699 -0.8534
 1192TIP3   OH224990   6.663   3.548  11.313 -0.0061  0.3775  0.4521
 1192TIP3    H124991   6.745   3.570  11.269  0.0520  1.5018  1.0845
 1192TIP3    H224992   6.626   3.478  11.260  1.1383  0.1675 -0.1089
 1193TIP3   OH224993   4.991   2.553  16.754  0.3468 -0.4135  0.3836
 1193TIP3    H124994   5.012   2.624  16.814  3.1394 -0.7831 -0.0396
 1193TIP3    H224995   5.019   2.585  16.668 -0.1944 -1.2776 -0.1359
 1194TIP3   OH224996   4.364   6.705   3.482 -0.0201  0.2495  0.0428
 1194TIP3    H124997   4.339   6.662   3.564 -0.8407 -0.8599 -0.7551
 1194TIP3    H224998   4.335   6.645   3.414  0.1437  1.4069 -1.0857
 1195TIP3   OH224999   4.665   3.521   2.297  0.4349  0.2791 -0.7271
 1195TIP3    H125000   4.753   3.502   2.330 -0.1847  0.2831  1.0290
 1195TIP3    H225001   4.676   3.530   2.203  1.9577 -1.8736 -0.8204
 1196TIP3   OH225002   0.716   3.081  17.070  0.6685 -0.3036  0.3286
 1196TIP3    H125003   0.629   3.119  17.082  0.6619 -0.2736  0.1857
 1196TIP3    H225004   0.777   3.148  17.100  0.7996  0.9552 -2.4853
 1197TIP3   OH225005   3.381   5.881  16.482 -0.6209 -0.4262  0.3584
 1197TIP3    H125006   3.452   5.931  16.442 -2.7956  1.7121 -1.1222
 1197TIP3    H225007   3.404   5.877  16.575  1.5747 -0.1652 -0.1091
 1198TIP3   OH225008   3.525   3.889  15.547 -0.1496  0.2152 -0.9024
 1198TIP3    H125009   3.609   3.854  15.577 -0.8594 -0.6577  0.1359
 1198TIP3    H225010   3.496   3.828  15.480 -0.0206  0.4362 -1.1591
 1199TIP3   OH225011   0.292   0.733  11.755  0.1860  0.3363 -0.2717
 1199TIP3    H125012   0.305   0.809  11.813 -0.1686  1.0327 -1.0737
 1199TIP3    H225013   0.342   0.755  11.676 -0.1053 -0.1638 -0.5999
 1200TIP3   OH225014   5.305   0.129  13.965  0.0474  0.0054 -0.2681
 1200TIP3    H125015   5.371   0.192  13.995  1.6331 -1.8824  0.4020
 1200TIP3    H225016   5.239   0.183  13.920  0.9983  2.1904  0.7943
 1201TIP3   OH225017   3.602   1.727  16.274 -0.6554 -0.0583  0.1861
 1201TIP3    H125018   3.523   1.717  16.221 -1.1912 -2.1623  1.2782
 1201TIP3    H225019   3.605   1.649  16.328  2.3829 -0.2467 -0.0435
 1202TIP3   OH225020   4.651   5.687   4.858  0.4401 -0.2798  0.0256
 1202TIP3    H125021   4.666   5.599   4.824  1.1195 -0.8929  1.7735
 1202TIP3    H225022   4.560   5.705   4.837  0.4987 -1.1036 -1.0056
 1203TIP3   OH225023   4.667   2.919   0.530 -0.1432  0.4190  0.0703
 1203TIP3    H125024   4.745   2.885   0.485  1.3939  1.4062  1.8529
 1203TIP3    H225025   4.650   3.003   0.487 -0.8124 -0.2102 -0.9268
 1204TIP3   OH225026   4.362   3.300   1.716 -0.3623 -0.3063  0.4918
 1204TIP3    H125027   4.376   3.213   1.752 -0.3775 -0.6244 -0.2689
 1204TIP3    H225028   4.376   3.291   1.622 -1.5588  0.2413  0.2330
 1205TIP3   OH225029   6.185   4.008   4.256 -0.0848 -0.0426 -0.5462
 1205TIP3    H125030   6.279   4.018   4.239 -0.1896 -0.7082 -1.6076
 1205TIP3    H225031   6.178   3.928   4.308  0.0448  0.8111  0.8330
 1206TIP3   OH225032   0.074   0.112  16.057  0.0857  0.2419 -0.5765
 1206TIP3    H125033  -0.004   0.085  16.105 -0.0758  1.1340 -0.3260
 1206TIP3    H225034   0.126   0.160  16.120 -0.4504  2.0352 -1.4152
 1207TIP3   OH225035   5.789   2.293  10.653 -0.0280 -0.0682 -0.3227
 1207TIP3    H125036   5.872   2.307  10.697  0.5820  0.4836 -1.6051
 1207TIP3    H225037   5.782   2.364  10.589 -1.4780 -0.1064 -0.2614
 1208TIP3   OH225038   2.006   6.511   2.591 -0.2016  0.0449  0.4614
 1208TIP3    H125039   1.975   6.495   2.680  0.6107 -0.5260  0.6521
 1208TIP3    H225040   1.931   6.551   2.546 -1.6321 -2.2860  0.5858
 1209TIP3   OH225041   1.002   1.087   5.586 -0.2128 -0.2355  0.4710
 1209TIP3    H125042   0.953   1.136   5.519 -0.3706  0.2012  0.8935
 1209TIP3    H225043   1.016   1.001   5.547 -2.9077 -1.0207  0.9894
 1210TIP3   OH225044   1.325   3.788  12.062  0.8112 -0.3969 -0.0453
 1210TIP3    H125045   1.378   3.807  12.140  2.5185  0.2612 -1.3057
 1210TIP3    H225046   1.385   3.743  12.003 -0.3523 -0.5818 -1.1180
 1211TIP3   OH225047   3.301   4.007   2.137 -0.1368  0.6398  0.6266
 1211TIP3    H125048   3.362   4.034   2.069 -2.1849  0.4222 -1.4369
 1211TIP3    H225049   3.260   4.089   2.166 -1.9841  0.4606 -1.2456
 1212TIP3   OH225050   5.824   2.862   3.788  0.2097 -0.1294  0.2359
 1212TIP3    H125051   5.913   2.873   3.754 -0.7364  0.5865 -2.2587
 1212TIP3    H225052   5.803   2.945   3.829  0.3049  0.1349 -0.2375
 1213TIP3   OH225053   0.849   4.575   5.823 -0.0756  0.0600  0.0349
 1213TIP3    H125054   0.760   4.547   5.803 -0.3183 -0.0249  1.1629
 1213TIP3    H225055   0.890   4.587   5.738 -1.3087  0.5748 -0.5201
 1214TIP3   OH225056   1.645   3.234   4.772  0.1151  0.1573  0.0799
 1214TIP3    H125057   1.667   3.173   4.842 -0.7127 -0.1410  0.0889
 1214TIP3    H225058   1.664   3.187   4.692  1.2926  0.5846  0.0898
 1215TIP3   OH225059   5.037   0.930   3.994  0.2800 -0.6521 -0.1245
 1215TIP3    H125060   5.064   0.942   3.903 -1.1982 -1.7335 -0.7453
 1215TIP3    H225061   4.964   0.991   4.005  0.9982  0.0962  0.6196
 1216TIP3   OH225062   0.079   3.224  11.482 -0.1147  0.0939 -0.0872
 1216TIP3    H125063   0.172   3.220  11.504  0.3042 -2.0334 -1.9084
 1216TIP3    H225064   0.049   3.307  11.519  2.3433  0.5434  1.0894
 1217TIP3   OH225065   0.602   5.469  17.242  0.0211  0.1889 -0.2743
 1217TIP3    H125066   0.571   5.378  17.250 -3.8451  1.3269 -0.4354
 1217TIP3    H225067   0.599   5.487  17.148  1.1766  0.4235 -0.2814
 1218TIP3   OH225068   2.636   4.513  15.395  0.2277  0.2517  0.3334
 1218TIP3    H125069   2.567   4.546  15.337 -0.1181 -0.4243  0.3592
 1218TIP3    H225070   2.652   4.424  15.366 -0.7731 -0.5124  2.0003
 1219TIP3   OH225071   6.658   4.716  10.423  0.0407  0.2211  0.2544
 1219TIP3    H125072   6.596   4.645  10.413  1.6624 -1.2256 -0.0236
 1219TIP3    H225073   6.627   4.784  10.364 -1.1400 -0.5295 -0.0146
 1220TIP3   OH225074   2.906   3.148  14.931 -0.4720  0.1987  0.3393
 1220TIP3    H125075   2.867   3.067  14.898 -1.1731 -0.0977  1.8139
 1220TIP3    H225076   2.885   3.148  15.025  1.2074  1.1223  0.7543
 1221TIP3   OH225077   1.932   6.079   5.199 -0.8865 -0.2740  0.3122
 1221TIP3    H125078   2.024   6.056   5.205 -0.7580 -0.1347 -0.7842
 1221TIP3    H225079   1.887   5.996   5.185 -0.8331 -0.2682  0.0916
 1222TIP3   OH225080   5.561   6.650   0.589 -0.2103 -1.1207 -1.4798
 1222TIP3    H125081   5.598   6.739   0.593 -0.6062 -1.0182  1.1865
 1222TIP3    H225082   5.580   6.622   0.499  0.8941  1.2288 -2.0877
 1223TIP3   OH225083   0.652   0.763  13.110  0.4517  0.1663  0.4706
 1223TIP3    H125084   0.609   0.690  13.155  1.0287  0.6878  1.9283
 1223TIP3    H225085   0.601   0.776  13.031 -0.1366 -1.3081  0.5799
 1224TIP3   OH225086   3.675   4.125  11.911 -0.2058 -0.0413 -0.2377
 1224TIP3    H125087   3.711   4.132  11.999 -0.9678 -0.1584  0.0848
 1224TIP3    H225088   3.750   4.140  11.853  0.5520 -1.1775  0.4174
 1225TIP3   OH225089   4.887   2.932   3.116  0.0546  0.2064  0.4363
 1225TIP3    H125090   4.871   2.932   3.210  0.0956 -1.8065  0.4944
 1225TIP3    H225091   4.902   2.840   3.094 -1.4343  0.4074 -1.7899
 1226TIP3   OH225092   5.504   2.101  16.800  0.3280  0.4646  0.2228
 1226TIP3    H125093   5.415   2.075  16.823 -0.8804  2.1926 -2.0733
 1226TIP3    H225094   5.513   2.078  16.708  1.4731  2.1842 -0.1518
 1227TIP3   OH225095   1.028   3.870  10.773 -0.0876  0.5619  0.1583
 1227TIP3    H125096   1.009   3.859  10.866  2.8408  0.0828  0.7990
 1227TIP3    H225097   0.946   3.848  10.729 -1.3943  0.2360  2.5740
 1228TIP3   OH225098   4.587   0.341  13.848  0.1502 -0.2433  0.2315
 1228TIP3    H125099   4.610   0.434  13.851 -2.1795  0.3598  1.1681
 1228TIP3    H225100   4.637   0.302  13.919  1.0005  0.3005 -0.0455
 1229TIP3   OH225101   4.892   2.328   6.289  0.1535  0.2030 -0.3593
 1229TIP3    H125102   4.832   2.396   6.318  0.2455 -1.0450  3.3295
 1229TIP3    H225103   4.979   2.361   6.312  0.4179 -0.1798 -0.7847
 1230TIP3   OH225104   4.111   2.346  13.802  0.7751 -0.4942  0.4898
 1230TIP3    H125105   4.139   2.292  13.728  0.4885 -1.5982  1.1569
 1230TIP3    H225106   4.084   2.282  13.869 -0.6555  0.4845  0.8950
 1231TIP3   OH225107   2.996   6.643  11.701  0.0882 -0.4204  0.2627
 1231TIP3    H125108   2.963   6.727  11.670  0.5877  0.2586  1.5092
 1231TIP3    H225109   3.057   6.615  11.633 -1.9277 -1.0200 -1.3914
 1232TIP3   OH225110   3.851   4.467   4.582  0.2732 -0.3242  0.1886
 1232TIP3    H125111   3.930   4.413   4.580  0.3029 -0.2781  0.0869
 1232TIP3    H225112   3.806   4.446   4.500 -0.8437 -1.8761  1.1509
 1233TIP3   OH225113   3.610   4.233  13.893  0.3446  0.0538 -0.4274
 1233TIP3    H125114   3.567   4.312  13.926  1.8692  0.7075  0.0961
 1233TIP3    H225115   3.539   4.180  13.857 -0.8722  1.0860  0.3756
 1234TIP3   OH225116   0.201   6.402  14.829  0.2433  0.4031  0.4541
 1234TIP3    H125117   0.243   6.334  14.776  3.0938  1.2142  1.4634
 1234TIP3    H225118   0.248   6.400  14.912 -3.3751 -0.1229  2.7008
 1235TIP3   OH225119   4.645   6.443  12.119  0.8495  0.7011  0.0655
 1235TIP3    H125120   4.717   6.505  12.111  1.2872  0.0289 -1.6433
 1235TIP3    H225121   4.568   6.491  12.086  0.7570  0.9999  0.7009
 1236TIP3   OH225122   1.665   6.510  13.582  0.0199 -0.0595  0.1591
 1236TIP3    H125123   1.574   6.493  13.607 -0.2300  1.3357  0.2885
 1236TIP3    H225124   1.678   6.603  13.601  0.6877  0.4043 -2.2017
 1237TIP3   OH225125   1.368   1.197   2.229  0.2110  0.0995  0.4252
 1237TIP3    H125126   1.366   1.145   2.149 -0.1588 -1.0953  1.1748
 1237TIP3    H225127   1.309   1.270   2.212  1.1568  0.5948 -0.8447
 1238TIP3   OH225128   3.820   4.096   4.182 -0.0821 -0.3328 -0.3876
 1238TIP3    H125129   3.773   4.029   4.231  0.5102 -0.1024  0.5300
 1238TIP3    H225130   3.911   4.087   4.211  0.1672  0.2466 -0.9680
 1239TIP3   OH225131   1.272   3.137  12.004 -0.4413 -0.5409  0.4465
 1239TIP3    H125132   1.283   3.151  11.910  0.7424 -2.2243  0.2822
 1239TIP3    H225133   1.184   3.099  12.012  0.2695 -2.4862 -0.3058
 1240TIP3   OH225134   5.741   3.409   4.502  0.1346  0.3619  0.2041
 1240TIP3    H125135   5.662   3.359   4.486  0.3668 -0.1043  0.5000
 1240TIP3    H225136   5.764   3.389   4.593  1.2296 -0.4078 -0.2239
 1241TIP3   OH225137   3.261   5.902   1.040  0.3116 -0.6352 -0.1764
 1241TIP3    H125138   3.335   5.952   1.007  0.0224  0.4525  0.7802
 1241TIP3    H225139   3.286   5.810   1.026  1.5275 -0.2662 -0.5134
 1242TIP3   OH225140   4.270   0.321  15.631  0.3998  0.5023 -0.2499
 1242TIP3    H125141   4.331   0.259  15.591  1.0634  0.6763  0.4792
 1242TIP3    H225142   4.220   0.356  15.557 -1.3166 -2.2571 -0.5104
 1243TIP3   OH225143   0.262   0.148   5.364 -0.1207 -0.4987  0.0177
 1243TIP3    H125144   0.185   0.201   5.385  0.4166  0.4698 -0.3638
 1243TIP3    H225145   0.304   0.195   5.292  0.3534 -1.4820 -0.3585
 1244TIP3   OH225146   1.487   1.329  11.698 -0.0431  0.2910  0.0540
 1244TIP3    H125147   1.403   1.373  11.681 -0.7837 -1.0336  0.1894
 1244TIP3    H225148   1.509   1.286  11.616 -0.1040 -0.3419  0.3639
 1245TIP3   OH225149   1.994   4.378   2.562 -0.6284  0.2833 -0.0348
 1245TIP3    H125150   2.015   4.285   2.554 -1.4120  0.1483 -0.7306
 1245TIP3    H225151   1.918   4.381   2.620 -0.3479  0.5306  0.3240
 1246TIP3   OH225152   1.056   6.248  14.092  0.2945 -0.4092  0.2845
 1246TIP3    H125153   0.961   6.234  14.096  0.0758  1.0973  1.9853
 1246TIP3    H225154   1.084   6.206  14.011 -1.9174 -0.4021 -0.5373
 1247TIP3   OH225155   5.601   2.888   3.255 -0.3622 -0.3807  0.0038
 1247TIP3    H125156   5.642   2.879   3.340 -0.4521  1.7312  0.3120
 1247TIP3    H225157   5.672   2.876   3.192  0.3451  1.1620  0.4768
 1248TIP3   OH225158   3.725   4.188  14.894 -0.5125  0.5913  0.0283
 1248TIP3    H125159   3.793   4.125  14.919  0.4658  0.7506 -2.0043
 1248TIP3    H225160   3.705   4.235  14.974  0.3001 -0.8438  1.1305
 1249TIP3   OH225161   5.781   4.029  11.916  0.3729  0.1171  0.3017
 1249TIP3    H125162   5.754   4.118  11.940  1.5575  0.3870  0.6995
 1249TIP3    H225163   5.871   4.038  11.886 -0.1147 -0.6858 -1.4920
 1250TIP3   OH225164   4.478   2.519   3.934  1.2070  0.1773  0.0777
 1250TIP3    H125165   4.402   2.577   3.937  0.0827 -1.1407 -1.0075
 1250TIP3    H225166   4.553   2.577   3.924  0.1312  1.4532 -1.0473
 1251TIP3   OH225167   1.214   4.440  13.566  0.2415 -0.1405  0.3355
 1251TIP3    H125168   1.298   4.486  13.570  0.0671  0.2007  0.1687
 1251TIP3    H225169   1.229   4.359  13.614  0.8215 -0.3206 -0.1259
 1252TIP3   OH225170   5.168   0.512   2.949 -0.3940 -0.2265  0.6650
 1252TIP3    H125171   5.181   0.450   3.020 -0.1197 -0.5285  0.3589
 1252TIP3    H225172   5.209   0.593   2.979  2.3223 -1.1326 -0.2475
 1253TIP3   OH225173   3.698   4.261   1.861 -0.2060  0.0395 -0.3535
 1253TIP3    H125174   3.638   4.263   1.936  0.8915 -1.6764  0.6279
 1253TIP3    H225175   3.709   4.167   1.842 -0.2198  0.4199 -2.4946
 1254TIP3   OH225176   6.718   5.933   6.261 -0.0854 -0.0886  0.0383
 1254TIP3    H125177   6.672   5.924   6.344 -2.7165 -1.7350 -1.4714
 1254TIP3    H225178   6.665   5.993   6.209  0.2212 -0.8845 -1.2552
 1255TIP3   OH225179   4.560   5.912   1.072  0.0172  0.0036  0.4943
 1255TIP3    H125180   4.653   5.912   1.096  0.5271  0.6238 -1.2965
 1255TIP3    H225181   4.542   6.001   1.044  0.2208 -1.0811 -3.7072
 1256TIP3   OH225182   4.101   0.190   6.245  0.4377 -0.1009 -0.6618
 1256TIP3    H125183   4.068   0.270   6.286 -0.1873 -0.3359 -0.6978
 1256TIP3    H225184   4.026   0.154   6.199  0.4579 -1.2415  0.1629
 1257TIP3   OH225185   4.722   4.051   0.553 -0.2086  0.4102  0.2312
 1257TIP3    H125186   4.749   3.980   0.612  1.1223  0.3150 -0.4410
 1257TIP3    H225187   4.727   4.130   0.606  0.7850  0.3016  0.3144
 1258TIP3   OH225188   4.740   4.919   4.823  0.1979  0.6309 -0.0450
 1258TIP3    H125189   4.812   4.898   4.883 -0.6309  0.9136  1.0800
 1258TIP3    H225190   4.692   4.837   4.813  0.3568  0.5753 -0.3536
 1259TIP3   OH225191   4.291   0.502  17.084  0.2005 -0.1659  0.3402
 1259TIP3    H125192   4.202   0.539  17.083  0.1436 -0.0523  2.7206
 1259TIP3    H225193   4.277   0.408  17.098  0.4421 -0.4857 -1.4069
 1260TIP3   OH225194   3.047   1.964  16.037 -0.4581 -0.1484  0.0084
 1260TIP3    H125195   3.064   2.040  16.093 -3.0351  0.6768 -0.1663
 1260TIP3    H225196   3.002   2.001  15.961  0.7460 -1.5575 -1.4388
 1261TIP3   OH225197   4.929   3.039  13.107  0.0014 -0.0612  0.0730
 1261TIP3    H125198   4.863   3.069  13.169  1.0540  0.5513  0.9384
 1261TIP3    H225199   4.879   3.001  13.035 -1.3067  0.9074  0.4277
 1262TIP3   OH225200   3.771   1.890  13.635 -0.1532  0.3779  0.4457
 1262TIP3    H125201   3.739   1.954  13.698 -1.8312  0.7810 -0.7476
 1262TIP3    H225202   3.713   1.815  13.645  0.2810  0.0016  0.1764
 1263TIP3   OH225203   0.899   4.129   6.340 -0.0240  0.0669 -0.3124
 1263TIP3    H125204   0.811   4.117   6.375 -0.7224  1.3082 -1.5251
 1263TIP3    H225205   0.899   4.081   6.257 -0.1682  1.4898 -1.1684
 1264TIP3   OH225206   3.942   2.000   4.102 -0.5496  0.1583  0.2375
 1264TIP3    H125207   3.968   1.962   4.186  0.9233 -1.3551 -0.8536
 1264TIP3    H225208   3.919   1.926   4.048 -0.1900  1.0105 -1.1289
 1265TIP3   OH225209   6.058   3.309   2.554 -0.4580  0.4289  0.1902
 1265TIP3    H125210   5.994   3.303   2.483  0.8393 -1.0145 -0.9233
 1265TIP3    H225211   6.112   3.230   2.544  2.1415  2.0621  0.4429
 1266TIP3   OH225212   3.391   4.442  12.204 -0.1082 -0.3337  0.1650
 1266TIP3    H125213   3.461   4.491  12.246 -0.2624 -1.1457  1.4410
 1266TIP3    H225214   3.385   4.478  12.115  1.8357 -0.1703  0.0627
 1267TIP3   OH225215   4.928   1.241   3.265 -0.1972 -0.0391  0.1864
 1267TIP3    H125216   4.978   1.162   3.287  2.9582  1.5022 -0.7507
 1267TIP3    H225217   4.933   1.295   3.343  2.6753  1.4533 -0.8580
 1268TIP3   OH225218   5.142   1.752  12.232 -0.0949 -0.3385  1.0537
 1268TIP3    H125219   5.138   1.673  12.285 -0.2160 -2.7979 -2.2958
 1268TIP3    H225220   5.064   1.749  12.178  1.2467  0.5372 -1.0719
 1269TIP3   OH225221   1.690   3.362   0.839 -0.3731 -0.2456 -0.3839
 1269TIP3    H125222   1.623   3.404   0.893 -1.1038 -0.8353 -0.8068
 1269TIP3    H225223   1.711   3.281   0.887  1.7629  1.0201  0.9524
 1270TIP3   OH225224   4.701   5.275   0.497  0.5922  0.0256  0.1060
 1270TIP3    H125225   4.708   5.339   0.567  1.2263 -1.3207  1.3266
 1270TIP3    H225226   4.789   5.270   0.460  0.0419  1.4780 -1.5330
 1271TIP3   OH225227   2.877   1.443   6.218 -0.1759  0.0685  0.3846
 1271TIP3    H125228   2.795   1.400   6.192 -0.1669 -0.2919  0.9499
 1271TIP3    H225229   2.884   1.427   6.312  0.1117  0.8340  0.5009
 1272TIP3   OH225230   2.222   3.726   2.544 -0.3834 -0.2502  0.6317
 1272TIP3    H125231   2.155   3.744   2.479 -1.4710 -0.2945  1.7214
 1272TIP3    H225232   2.283   3.666   2.499 -2.1423 -1.8397  0.2566
 1273TIP3   OH225233   5.489   0.696   4.768  0.2876 -0.1168 -0.1278
 1273TIP3    H125234   5.474   0.747   4.848 -0.6493  0.0805 -0.4156
 1273TIP3    H225235   5.569   0.733   4.730 -0.2196  0.9518 -0.1837
 1274TIP3   OH225236   3.739   0.457   0.979 -0.5598 -0.1517 -0.4772
 1274TIP3    H125237   3.670   0.446   1.044 -1.3317 -0.6527 -1.3586
 1274TIP3    H225238   3.818   0.470   1.031 -1.0561 -1.1079  0.5655
 1275TIP3   OH225239   4.733   3.225   4.871  0.7376 -0.3946 -0.0352
 1275TIP3    H125240   4.693   3.285   4.934  1.0133 -1.5175  1.2626
 1275TIP3    H225241   4.755   3.280   4.796 -1.9406  0.5477 -0.2536
 1276TIP3   OH225242   5.060   1.292   5.280  0.0327 -0.1734 -0.3784
 1276TIP3    H125243   4.980   1.331   5.245  0.6025  0.3027 -1.1923
 1276TIP3    H225244   5.114   1.367   5.303  0.4729 -0.4852 -0.3814
 1277TIP3   OH225245   4.373   0.413   5.436  0.4647 -0.2976  0.4159
 1277TIP3    H125246   4.356   0.319   5.444  2.6971 -0.7654  0.5454
 1277TIP3    H225247   4.382   0.428   5.342  0.3762 -0.2656  0.4126
 1278TIP3   OH225248   2.960   0.346   3.548 -0.1762 -0.1124  0.2431
 1278TIP3    H125249   2.888   0.351   3.611 -1.1950 -0.1945 -0.8786
 1278TIP3    H225250   3.037   0.328   3.601 -0.9766 -0.0144  1.4810
 1279TIP3   OH225251   5.973   1.770  15.509  0.3083  0.2997 -0.4526
 1279TIP3    H125252   6.048   1.725  15.549 -0.4397 -1.0575 -0.5000
 1279TIP3    H225253   5.910   1.779  15.581  0.7839  2.1264 -0.2259
 1280TIP3   OH225254   3.730   0.888  13.632  0.5920  0.7542 -0.8950
 1280TIP3    H125255   3.795   0.952  13.602 -1.5112  3.4552 -0.0530
 1280TIP3    H225256   3.674   0.874  13.556  0.1422  1.1384 -0.6383
 1281TIP3   OH225257   3.059   2.456   2.070  0.6110 -0.7684  0.0169
 1281TIP3    H125258   3.076   2.362   2.060 -0.2073 -0.7799 -1.5069
 1281TIP3    H225259   3.041   2.487   1.981 -1.6303  0.3307  0.7875
 1282TIP3   OH225260   4.736   2.461   0.989  0.0588  0.2593 -0.1876
 1282TIP3    H125261   4.811   2.521   0.977 -2.7416  4.2725  0.3581
 1282TIP3    H225262   4.670   2.494   0.928 -2.1972 -1.4077  1.2292
 1283TIP3   OH225263   1.141   1.689   1.364 -0.0943  0.6634 -0.2875
 1283TIP3    H125264   1.124   1.666   1.455  2.8047 -1.6642 -0.1846
 1283TIP3    H225265   1.203   1.761   1.368  0.3014  0.3345 -0.3793
 1284TIP3   OH225266   6.569   1.372   0.093 -0.0231 -0.1426  0.1634
 1284TIP3    H125267   6.488   1.373   0.144  0.2725  0.9702  0.6554
 1284TIP3    H225268   6.591   1.465   0.083  0.8826 -0.4184 -0.4598
 1285TIP3   OH225269   1.564   3.692  16.991 -0.3337 -0.1791  0.2269
 1285TIP3    H125270   1.502   3.620  16.983 -1.2474  0.4293  1.5538
 1285TIP3    H225271   1.510   3.769  17.006  0.7165  0.4503  0.9296
 1286TIP3   OH225272   6.202   4.388  13.168  0.4236 -0.2177 -0.2195
 1286TIP3    H125273   6.108   4.382  13.183  0.3617  1.8892  0.5867
 1286TIP3    H225274   6.211   4.459  13.104  1.4851 -0.2821 -0.1577
 1287TIP3   OH225275   1.727   5.766  10.817 -0.2872  0.1969 -0.2331
 1287TIP3    H125276   1.637   5.733  10.816  0.4120 -1.8769 -1.3080
 1287TIP3    H225277   1.777   5.700  10.769  1.4802  2.3281 -1.5112
 1288TIP3   OH225278   0.145   1.523   0.724  0.1139  0.4059  0.9306
 1288TIP3    H125279   0.079   1.509   0.791 -0.5373  1.0122  0.4362
 1288TIP3    H225280   0.166   1.616   0.730  0.8622  0.2355  1.0230
 1289TIP3   OH225281   1.413   6.638   2.879 -0.2559 -0.3840  0.2322
 1289TIP3    H125282   1.360   6.591   2.814  0.2825 -1.3544  0.4711
 1289TIP3    H225283   1.491   6.666   2.832  0.3791 -1.5359  0.5347
 1290TIP3   OH225284   1.408   1.985   1.542  0.1756 -0.0219  0.1469
 1290TIP3    H125285   1.407   2.074   1.577 -1.7047 -0.1048  0.4517
 1290TIP3    H225286   1.411   1.929   1.620 -0.7824 -0.2058  0.0668
 1291TIP3   OH225287   1.897   1.010   4.013  0.4805  0.6045 -0.5578
 1291TIP3    H125288   1.977   1.064   4.012  0.1048  1.1646 -1.0463
 1291TIP3    H225289   1.900   0.964   4.097  2.2612 -0.8150 -1.3160
 1292TIP3   OH225290   4.633   0.378   1.494 -0.2808  0.5645  0.4537
 1292TIP3    H125291   4.646   0.471   1.513  0.2093  0.3248  1.3196
 1292TIP3    H225292   4.720   0.347   1.468 -0.0219 -0.0684  2.0158
 1293TIP3   OH225293   3.980   0.671   4.627  0.4692 -0.0877  0.0300
 1293TIP3    H125294   3.955   0.705   4.713 -0.8985  0.9565 -0.7323
 1293TIP3    H225295   3.974   0.747   4.569  0.3363 -0.9845 -1.1666
 1294TIP3   OH225296   0.775   5.580   5.335 -0.4506 -0.4201  0.3489
 1294TIP3    H125297   0.783   5.632   5.255  0.8093 -1.8529 -0.5152
 1294TIP3    H225298   0.863   5.546   5.350 -0.9088 -1.0543  1.7468
 1295TIP3   OH225299   4.072   1.409  14.995 -0.1558  0.2444  0.2246
 1295TIP3    H125300   4.009   1.353  14.949 -0.1314  0.1277  0.3316
 1295TIP3    H225301   4.143   1.423  14.933 -1.8661  3.3040 -1.2775
 1296TIP3   OH225302   5.676   0.735   4.488  0.0937 -0.1517 -0.1376
 1296TIP3    H125303   5.698   0.684   4.565 -0.9758  0.0217  0.3042
 1296TIP3    H225304   5.580   0.745   4.492 -0.0503 -0.4954 -1.6946
 1297TIP3   OH225305   6.475   2.862   4.528  0.7682 -0.0958 -0.2654
 1297TIP3    H125306   6.501   2.901   4.611  2.9018 -1.5384 -0.1855
 1297TIP3    H225307   6.543   2.890   4.466 -0.9969  1.3099 -1.6882
 1298TIP3   OH225308   1.133   3.424   5.030  0.5558 -0.4879  0.2609
 1298TIP3    H125309   1.094   3.452   5.112 -1.0721  0.4101 -0.7580
 1298TIP3    H225310   1.218   3.468   5.027  0.4472 -0.1947  1.2542
 1299TIP3   OH225311   4.603   6.616   0.886 -0.4566 -0.3095 -0.6569
 1299TIP3    H125312   4.654   6.675   0.942 -1.0013  0.6482 -1.1606
 1299TIP3    H225313   4.576   6.545   0.945  0.5345 -0.2771 -0.1352
 1300TIP3   OH225314   2.413   1.017  13.416 -0.6359 -1.0659  0.0685
 1300TIP3    H125315   2.397   0.953  13.346 -0.8472 -1.4364  0.4543
 1300TIP3    H225316   2.503   1.047  13.400 -0.6887 -1.1331 -0.3743
 1301TIP3   OH225317   3.503   1.807  12.559 -0.5684  0.3687 -0.3360
 1301TIP3    H125318   3.515   1.727  12.507 -0.2588 -0.2300  0.6412
 1301TIP3    H225319   3.568   1.868  12.525  0.2965 -0.3536 -0.0139
 1302TIP3   OH225320   2.568   0.823  16.699 -0.2117  0.8394 -0.1621
 1302TIP3    H125321   2.644   0.783  16.741 -0.1967  0.5145 -0.4949
 1302TIP3    H225322   2.525   0.751  16.652 -1.2971  0.8094  0.8340
 1303TIP3   OH225323   2.797   0.215  16.078  0.2514 -0.7258  0.2078
 1303TIP3    H125324   2.833   0.213  16.166  0.5424 -0.1865  0.1000
 1303TIP3    H225325   2.857   0.162  16.026  1.1646  0.5469 -0.0701
 1304TIP3   OH225326   3.707   4.392   6.581 -0.5029  0.1616 -0.2796
 1304TIP3    H125327   3.680   4.445   6.657  1.4272 -0.5321  0.9559
 1304TIP3    H225328   3.665   4.308   6.594  0.5315 -0.2534  0.5576
 1305TIP3   OH225329   1.384   4.290   3.536 -0.0112  0.2524  0.1909
 1305TIP3    H125330   1.424   4.357   3.591  0.3015  0.8759 -0.7805
 1305TIP3    H225331   1.382   4.328   3.448 -1.1016 -0.4666 -0.1192
 1306TIP3   OH225332   0.684   1.787   5.248  0.8854 -0.0991 -0.2395
 1306TIP3    H125333   0.625   1.727   5.295  0.5688 -0.2180 -0.7790
 1306TIP3    H225334   0.753   1.808   5.312  1.0360 -1.0864 -0.0623
 1307TIP3   OH225335   3.999   1.251  11.994  0.0485  0.1950  0.0793
 1307TIP3    H125336   3.945   1.306  12.050 -1.7797 -1.5063  0.1105
 1307TIP3    H225337   3.986   1.287  11.906 -1.6984 -0.5318 -0.0054
 1308TIP3   OH225338   5.789   0.060  11.631 -0.1622  0.5623  0.1688
 1308TIP3    H125339   5.820   0.034  11.717 -0.0694 -2.5839 -0.6955
 1308TIP3    H225340   5.694   0.068  11.641 -0.4910 -2.3534  0.0910
 1309TIP3   OH225341   2.260   0.575   1.567 -0.8991 -0.0805  0.1314
 1309TIP3    H125342   2.288   0.499   1.618 -0.0234 -1.3703 -2.1172
 1309TIP3    H225343   2.227   0.538   1.485 -0.4676  1.9604 -1.0340
 1310TIP3   OH225344   6.324   3.063   4.751 -0.6587 -0.2132 -0.1625
 1310TIP3    H125345   6.334   2.989   4.810  0.8717 -0.6331 -0.9014
 1310TIP3    H225346   6.413   3.084   4.723 -1.0263  2.0867  0.2162
 1311TIP3   OH225347   4.109   4.822   4.206 -0.3838 -0.1985 -0.3461
 1311TIP3    H125348   4.164   4.894   4.236 -0.2033  0.1589 -1.5183
 1311TIP3    H225349   4.128   4.751   4.268  2.3667 -0.5121 -1.4022
 1312TIP3   OH225350   1.746   1.340   3.434 -0.1272  0.0726 -0.2513
 1312TIP3    H125351   1.729   1.428   3.399 -2.2997  0.0059  0.4628
 1312TIP3    H225352   1.827   1.349   3.484 -0.1795  1.6117 -0.3987
 1313TIP3   OH225353   5.071   6.658   5.062 -0.2920 -0.1541 -0.2499
 1313TIP3    H125354   5.046   6.702   4.980  0.8790  0.5182 -0.2698
 1313TIP3    H225355   4.992   6.611   5.089 -1.1712  0.8660 -0.9526
 1314TIP3   OH225356   0.352   3.556  12.906 -0.6039  0.0080 -0.3803
 1314TIP3    H125357   0.425   3.615  12.922 -1.1510  0.0935  2.3740
 1314TIP3    H225358   0.386   3.491  12.844  1.5555  0.4499  0.2679
 1315TIP3   OH225359   0.060   4.212   4.706 -0.0823  0.2914  0.0233
 1315TIP3    H125360   0.052   4.282   4.641  3.1197  3.0193  2.2350
 1315TIP3    H225361   0.103   4.141   4.660 -0.9982  0.7572 -1.6398
 1316TIP3   OH225362   1.332   6.369  15.152  0.3048  0.3029 -0.2452
 1316TIP3    H125363   1.251   6.321  15.168  1.5820 -1.6906  0.4924
 1316TIP3    H225364   1.336   6.434  15.222 -0.1931 -0.1903  0.2416
 1317TIP3   OH225365   0.949   1.393   2.549  0.5808  0.2474  0.3297
 1317TIP3    H125366   0.932   1.485   2.568  2.3459  0.1053  3.0727
 1317TIP3    H225367   0.879   1.346   2.594  0.6937  0.1896  0.4460
 1318TIP3   OH225368   1.345   6.762  14.567 -0.6716 -0.2228  0.6157
 1318TIP3    H125369   1.400   6.730  14.496 -1.1276  0.9432 -0.2981
 1318TIP3    H225370   1.383   6.724  14.646  1.5322  0.6410  0.0472
 1319TIP3   OH225371   3.514   2.928  17.069  0.3365  0.0408 -0.5864
 1319TIP3    H125372   3.604   2.939  17.036 -0.4222  1.3747 -2.4692
 1319TIP3    H225373   3.460   2.931  16.990 -1.3878 -0.4809  0.5262
 1320TIP3   OH225374   0.390   6.075   1.911  0.2502  0.4277 -0.3212
 1320TIP3    H125375   0.481   6.066   1.939  1.2376  2.1406 -2.6324
 1320TIP3    H225376   0.347   6.121   1.983  1.1378 -0.5647  0.8789
 1321TIP3   OH225377   3.347   5.620   3.820 -0.3017  0.5110  0.4600
 1321TIP3    H125378   3.311   5.654   3.738 -1.0545 -1.0089  0.1244
 1321TIP3    H225379   3.289   5.655   3.888 -1.2143 -0.2479  0.0981
 1322TIP3   OH225380   0.135   2.836  12.433  0.5246  0.3835  0.3345
 1322TIP3    H125381   0.218   2.860  12.474  1.7149 -0.9164 -1.1347
 1322TIP3    H225382   0.137   2.878  12.347  0.0770 -0.3478 -0.0521
 1323TIP3   OH225383   5.296   2.754  11.937 -0.3968 -0.2370 -0.0801
 1323TIP3    H125384   5.337   2.822  11.883  0.2772  0.5947  1.4181
 1323TIP3    H225385   5.227   2.799  11.986  0.5778 -0.4133  1.5287
 1324TIP3   OH225386   6.583   1.569   3.313 -0.4511  0.0297  0.1600
 1324TIP3    H125387   6.564   1.625   3.388 -0.0880 -0.8297  0.9119
 1324TIP3    H225388   6.673   1.540   3.328 -0.6323 -0.7396 -0.2191
 1325TIP3   OH225389   2.366   3.593  13.377  0.4844 -0.4283  0.1508
 1325TIP3    H125390   2.295   3.564  13.319 -0.4631 -0.1102  1.1218
 1325TIP3    H225391   2.380   3.684  13.353  0.9636 -0.6539 -0.4328
 1326TIP3   OH225392   3.800   4.698  14.768  0.2893 -0.4535 -0.1427
 1326TIP3    H125393   3.718   4.665  14.805  0.3254 -1.1344 -0.6463
 1326TIP3    H225394   3.773   4.755  14.696  0.2530 -1.2201 -0.7544
 1327TIP3   OH225395   6.573   4.928   0.606  0.6148  0.0647  0.2175
 1327TIP3    H125396   6.554   4.982   0.683 -0.2317 -0.8343  0.6487
 1327TIP3    H225397   6.649   4.875   0.632  0.0087 -0.6139  0.6367
 1328TIP3   OH225398   6.539   1.840   5.467  0.4541 -0.8749  0.1767
 1328TIP3    H125399   6.604   1.877   5.527 -0.4044  0.7070  0.1677
 1328TIP3    H225400   6.478   1.793   5.524  0.8634 -1.2659  0.3054
 1329TIP3   OH225401   0.558   3.536   2.240 -0.5039 -0.0499 -0.1553
 1329TIP3    H125402   0.644   3.553   2.201 -0.5288 -0.8399 -0.5771
 1329TIP3    H225403   0.576   3.524   2.333 -0.1725 -0.0867 -0.2210
 1330TIP3   OH225404   4.192   4.848  11.530  0.2341  0.0857 -0.3031
 1330TIP3    H125405   4.108   4.887  11.505  0.0450  0.5851  1.0313
 1330TIP3    H225406   4.252   4.923  11.537  0.6554 -0.2079 -0.7159
 1331TIP3   OH225407   1.555   2.480   0.264  0.3958 -0.4705 -0.3346
 1331TIP3    H125408   1.579   2.388   0.276 -0.4350 -0.6015  0.4655
 1331TIP3    H225409   1.597   2.505   0.182  1.2068 -1.3603 -0.2120
 1332TIP3   OH225410   1.879   3.906   0.348  0.0387 -0.0391  0.4777
 1332TIP3    H125411   1.963   3.897   0.304  0.9451  0.2668  2.0706
 1332TIP3    H225412   1.898   3.959   0.425 -1.4820 -0.5263  1.2237
 1333TIP3   OH225413   0.203   3.322   1.013  0.7709 -0.2672 -0.0842
 1333TIP3    H125414   0.140   3.348   1.081  1.9941  0.5051  0.7931
 1333TIP3    H225415   0.154   3.329   0.931 -0.3607  0.0434  0.5961
 1334TIP3   OH225416   2.342   4.529   2.735  0.2062  0.5240  0.4427
 1334TIP3    H125417   2.319   4.471   2.663  0.4723  0.5719  0.3162
 1334TIP3    H225418   2.259   4.566   2.764  0.3175  2.7451 -1.7240
 1335TIP3   OH225419   1.865   5.836   1.469  0.2407 -0.5872 -0.3996
 1335TIP3    H125420   1.836   5.868   1.383  1.4358 -2.1515 -1.4579
 1335TIP3    H225421   1.924   5.763   1.448  0.0885 -1.4076  1.7827
 1336TIP3   OH225422   2.829   2.024  14.342 -0.2098 -0.4844 -0.6567
 1336TIP3    H125423   2.734   2.033  14.336 -0.3862 -0.7128  1.3606
 1336TIP3    H225424   2.861   2.049  14.255 -1.9470  1.7411 -0.7197
 1337TIP3   OH225425   0.933   6.370   1.528  0.5453  0.0899  0.2015
 1337TIP3    H125426   0.839   6.356   1.521  0.7704 -2.3098  1.1072
 1337TIP3    H225427   0.943   6.434   1.598 -0.3843 -0.5940  0.9829
 1338TIP3   OH225428   0.615   4.912   0.687 -0.5931  0.0315 -0.2511
 1338TIP3    H125429   0.652   4.824   0.682 -0.6607 -0.0855  1.1615
 1338TIP3    H225430   0.627   4.939   0.777  0.2751  1.8651 -0.8715
 1339TIP3   OH225431   0.961   6.654   1.691 -0.0210  0.1746 -0.2405
 1339TIP3    H125432   1.056   6.644   1.689  0.0662  0.9384 -0.4826
 1339TIP3    H225433   0.943   6.704   1.771 -0.5072 -2.4303  1.3741
 1340TIP3   OH225434   0.733   2.705   4.182 -0.6097 -0.1077  0.4307
 1340TIP3    H125435   0.706   2.672   4.096 -1.5280  2.5953 -0.4037
 1340TIP3    H225436   0.825   2.678   4.190 -0.4364 -0.2219 -1.5155
 1341TIP3   OH225437   6.118   1.007  11.875  0.1885 -0.0641 -0.0135
 1341TIP3    H125438   6.132   0.946  11.803 -2.0484 -0.4974 -0.1439
 1341TIP3    H225439   6.109   1.092  11.832  1.8333  0.1910  0.0565
 1342TIP3   OH225440   0.047   2.742  13.601 -0.6213  0.2589 -0.0361
 1342TIP3    H125441   0.063   2.659  13.646  1.0821  0.7504  0.3239
 1342TIP3    H225442  -0.028   2.724  13.545  0.2288 -1.7874 -0.6047
 1343TIP3   OH225443   0.463   1.366  16.906  0.7849 -0.2180 -0.4745
 1343TIP3    H125444   0.476   1.408  16.991  0.9540 -2.7355  0.8272
 1343TIP3    H225445   0.551   1.353  16.871  1.0080 -2.5580  0.7800
 1344TIP3   OH225446   2.663   3.129   0.758 -0.0239 -0.1283  0.0791
 1344TIP3    H125447   2.600   3.130   0.686  0.8367 -0.9124 -0.7210
 1344TIP3    H225448   2.723   3.201   0.737 -2.0057  2.2838  2.1608
 1345TIP3   OH225449   5.393   1.933  15.658  0.4948 -0.3627 -0.3553
 1345TIP3    H125450   5.376   2.022  15.626  1.6014 -0.0967 -0.2252
 1345TIP3    H225451   5.487   1.922  15.651  0.8212 -0.3369  2.6101
 1346TIP3   OH225452   5.975   5.138   1.092  0.4733 -0.2332 -0.5365
 1346TIP3    H125453   6.058   5.115   1.049  1.6245  0.8556  1.0070
 1346TIP3    H225454   5.963   5.231   1.073  1.2261  0.3952  1.7076
 1347TIP3   OH225455   3.365   2.307  17.048 -0.2595 -0.1537 -0.3416
 1347TIP3    H125456   3.450   2.343  17.023  0.4988 -1.8274 -0.2974
 1347TIP3    H225457   3.316   2.382  17.081  0.3964  1.2583 -2.3973
 1348TIP3   OH225458   3.990   1.309   3.953 -0.0260  0.0881  0.3154
 1348TIP3    H125459   3.934   1.312   4.031 -0.3385 -0.6881  0.1366
 1348TIP3    H225460   3.939   1.354   3.885  0.6591  1.6212  0.7955
 1349TIP3   OH225461   5.625   4.675  11.306 -0.4197 -0.5483 -0.5209
 1349TIP3    H125462   5.632   4.580  11.311 -0.5211 -0.6607 -2.0089
 1349TIP3    H225463   5.672   4.699  11.227  0.6620  0.7934  0.4763
 1350TIP3   OH225464   2.279   5.111  15.644  0.6248  0.2162 -0.3327
 1350TIP3    H125465   2.226   5.034  15.662 -0.4756  0.4079 -2.4544
 1350TIP3    H225466   2.228   5.184  15.678  1.2824  0.1074  0.9313
 1351TIP3   OH225467   0.700   5.769  15.712  0.0218  0.0904 -0.3584
 1351TIP3    H125468   0.683   5.675  15.720 -1.3920  0.4464  1.3144
 1351TIP3    H225469   0.643   5.798  15.640  1.2922 -0.4680 -1.6563
 1352TIP3   OH225470   4.324   0.068  16.144  0.6517 -0.0761 -0.2186
 1352TIP3    H125471   4.336   0.162  16.137  0.2586 -0.1178 -2.5164
 1352TIP3    H225472   4.248   0.057  16.201  1.6564  0.8876  1.3667
 1353TIP3   OH225473   4.980   6.053   2.647  0.3329 -0.1684 -0.1157
 1353TIP3    H125474   4.922   6.098   2.587 -0.0951  0.3647  0.6894
 1353TIP3    H225475   4.927   6.035   2.724  1.4162  1.0593  0.9777
 1354TIP3   OH225476   0.668   6.529   1.073 -0.0005 -0.1559  0.0293
 1354TIP3    H125477   0.592   6.546   1.128 -0.9679 -2.2242 -0.5690
 1354TIP3    H225478   0.743   6.540   1.131 -0.7163  1.6329  0.7109
 1355TIP3   OH225479   0.053   0.502  13.584  0.3262 -0.6353  0.0713
 1355TIP3    H125480  -0.001   0.572  13.620 -1.1273 -1.2153 -0.8884
 1355TIP3    H225481   0.139   0.543  13.570  0.0313  0.4315  1.2070
 1356TIP3   OH225482   6.000   3.146  13.682 -0.1280 -0.3046  0.6034
 1356TIP3    H125483   6.000   3.241  13.681 -1.0456 -0.2869  1.3253
 1356TIP3    H225484   6.085   3.121  13.645  0.0613  0.7811  0.2867
 1357TIP3   OH225485   3.785   3.463  13.383  0.6224 -0.3234 -0.5652
 1357TIP3    H125486   3.739   3.417  13.313 -0.3115 -0.7025  0.2806
 1357TIP3    H225487   3.750   3.553  13.378  0.0943 -0.5050 -0.1941
 1358TIP3   OH225488   0.195   3.315  15.954 -0.0226 -0.4725 -0.1409
 1358TIP3    H125489   0.188   3.352  15.866 -1.8899 -0.9589 -0.2500
 1358TIP3    H225490   0.223   3.225  15.939 -2.7078 -1.3366 -0.5083
 1359TIP3   OH225491   1.806   2.973   4.292  0.3669  0.0936 -0.6117
 1359TIP3    H125492   1.795   3.015   4.207 -1.1134  0.7822 -0.1004
 1359TIP3    H225493   1.900   2.953   4.296  0.6945  1.2085 -1.8556
 1360TIP3   OH225494   6.012   3.974  14.991  0.4954 -0.1083  0.0819
 1360TIP3    H125495   6.102   3.985  14.960  0.4510 -0.9080 -0.3671
 1360TIP3    H225496   5.986   4.061  15.021  1.9922 -0.2100  1.8276
 1361TIP3   OH225497   5.618   6.603   1.913 -0.1170 -0.0382  0.3652
 1361TIP3    H125498   5.608   6.639   1.825 -1.7227 -0.2919  0.4142
 1361TIP3    H225499   5.646   6.677   1.966 -1.7317  0.7764  0.1372
 1362TIP3   OH225500   1.615   0.527   5.629 -0.5356 -0.2325 -0.2981
 1362TIP3    H125501   1.666   0.498   5.554  0.4730  0.2555  0.1813
 1362TIP3    H225502   1.528   0.546   5.593  0.2547  1.1632 -1.5824
 1363TIP3   OH225503   3.605   2.771   3.092  0.0131  0.4340  0.0286
 1363TIP3    H125504   3.690   2.813   3.092  0.4268 -0.3744 -0.3362
 1363TIP3    H225505   3.550   2.827   3.038  0.8544 -0.0524 -1.3910
 1364TIP3   OH225506   1.841   0.600  12.622 -0.2231 -0.0695 -0.2735
 1364TIP3    H125507   1.822   0.515  12.662  1.0096 -0.2187  0.0437
 1364TIP3    H225508   1.797   0.664  12.678  0.3657 -0.3793  0.5712
 1365TIP3   OH225509   4.950   0.739  13.298  0.1247  0.1382 -0.4532
 1365TIP3    H125510   5.011   0.812  13.303  0.1864  0.0928 -0.5313
 1365TIP3    H225511   4.993   0.668  13.346  0.6858 -0.2782 -1.5400
 1366TIP3   OH225512   0.656   3.917  14.800 -0.2849 -0.8062  0.8236
 1366TIP3    H125513   0.563   3.927  14.818  0.1371  0.5046  2.4043
 1366TIP3    H225514   0.659   3.861  14.722 -2.3779 -0.7662  0.6708
 1367TIP3   OH225515   2.532   2.737  11.881  0.7268 -0.1882  0.0377
 1367TIP3    H125516   2.580   2.666  11.925  0.1578 -0.4406  0.2665
 1367TIP3    H225517   2.552   2.725  11.788  2.9827  1.1239  0.2906
 1368TIP3   OH225518   0.032   2.776   1.144  0.4309 -0.2489 -0.4277
 1368TIP3    H125519   0.059   2.698   1.094  0.2274 -0.1457 -0.6956
 1368TIP3    H225520   0.042   2.848   1.083 -1.0135 -0.2708 -0.7215
 1369TIP3   OH225521   5.763   2.350  14.402  0.0676 -0.0847  0.1812
 1369TIP3    H125522   5.787   2.330  14.492  1.2631  3.5733  0.8411
 1369TIP3    H225523   5.671   2.378  14.407 -0.7060 -2.3505 -0.2689
 1370TIP3   OH225524   4.184   0.242   3.808  0.1241 -0.1165 -0.0444
 1370TIP3    H125525   4.121   0.313   3.803  1.9791  1.7204  1.0454
 1370TIP3    H225526   4.251   0.264   3.743 -0.2147 -1.9462 -1.0897
 1371TIP3   OH225527   2.323   6.111  14.372  0.3593 -0.2620 -0.7198
 1371TIP3    H125528   2.362   6.181  14.320  1.5667 -1.3646 -1.3395
 1371TIP3    H225529   2.391   6.044  14.377 -1.1237 -1.8326 -1.0102
 1372TIP3   OH225530   5.106   4.092  16.236 -0.1149 -0.6520  0.1354
 1372TIP3    H125531   5.169   4.051  16.295  1.5528 -0.5016 -1.4490
 1372TIP3    H225532   5.044   4.022  16.215 -0.0169 -1.0404  1.0743
 1373TIP3   OH225533   6.116   4.859  16.850 -0.1827  0.5164 -0.2610
 1373TIP3    H125534   6.046   4.861  16.915  1.4366 -1.2194  1.6975
 1373TIP3    H225535   6.071   4.858  16.766 -2.3841  2.4135  0.7912
 1374TIP3   OH225536   3.442   6.664   4.261 -0.9171  0.3817  0.2750
 1374TIP3    H125537   3.348   6.649   4.259 -1.3572  2.6472  0.6745
 1374TIP3    H225538   3.480   6.586   4.222 -2.8197 -1.4698  1.9198
 1375TIP3   OH225539   5.773   1.198  14.656 -0.0903  0.2895  0.4443
 1375TIP3    H125540   5.840   1.246  14.608 -0.9195  0.7667 -0.2714
 1375TIP3    H225541   5.819   1.124  14.695  0.5968 -0.1429 -1.1320
 1376TIP3   OH225542   0.120   1.000   4.551  0.0504  0.4669 -0.7288
 1376TIP3    H125543   0.072   0.951   4.618  0.6124  1.4002  0.3898
 1376TIP3    H225544   0.101   1.092   4.569  0.1644  0.7380 -1.9014
 1377TIP3   OH225545   0.730   6.702  11.372  0.0293 -0.4612  0.4643
 1377TIP3    H125546   0.788   6.744  11.436  1.5902  1.0819 -1.7603
 1377TIP3    H225547   0.776   6.622  11.347  1.7915  1.1337 -1.8559
 1378TIP3   OH225548   0.493   4.573   2.537 -0.4798 -0.4517  0.2528
 1378TIP3    H125549   0.457   4.508   2.596 -0.3177 -1.2236 -0.4743
 1378TIP3    H225550   0.469   4.657   2.576 -1.6610 -0.9399  0.6321
 1379TIP3   OH225551   6.080   1.308  13.717  0.1015  0.0514 -0.0239
 1379TIP3    H125552   6.092   1.402  13.736  0.3550 -0.2658  1.5569
 1379TIP3    H225553   6.152   1.286  13.658 -0.1222  0.9043 -0.6332
 1380TIP3   OH225554   2.446   0.072   4.896 -0.3251 -0.5926 -0.1062
 1380TIP3    H125555   2.408   0.018   4.827 -0.9946  0.4291 -0.5509
 1380TIP3    H225556   2.497   0.139   4.850 -1.7334  0.8284  0.3064
 1381TIP3   OH225557   0.795   2.209   1.654 -0.1141 -0.1250  0.2993
 1381TIP3    H125558   0.707   2.174   1.639 -1.8116  2.7487  2.5679
 1381TIP3    H225559   0.805   2.208   1.750  1.6756  1.0497  0.1706
 1382TIP3   OH225560   6.752   1.021   0.744  1.0065 -0.1553 -0.4108
 1382TIP3    H125561   6.720   1.009   0.655 -0.1248  0.5953 -0.1220
 1382TIP3    H225562   6.762   0.931   0.777 -2.1148 -0.5183 -0.0956
 1383TIP3   OH225563   1.066   5.959   5.676  0.4655  0.1721 -0.1186
 1383TIP3    H125564   1.125   6.033   5.693  2.1604 -1.6231  2.7242
 1383TIP3    H225565   0.980   5.991   5.702  0.6646  1.8700 -1.3496
 1384TIP3   OH225566   4.004   2.794   1.412  0.2668 -0.0601  0.0801
 1384TIP3    H125567   4.075   2.853   1.388  0.5660 -0.0321  0.9883
 1384TIP3    H225568   4.042   2.738   1.480 -0.8906  0.6536  1.3512
 1385TIP3   OH225569   4.059   2.229  12.322 -0.4478 -0.0861 -0.5904
 1385TIP3    H125570   4.093   2.317  12.307 -0.4572 -0.0399 -0.3463
 1385TIP3    H225571   4.094   2.204  12.407 -1.5771  0.2394 -0.0012
 1386TIP3   OH225572   0.648   1.927   0.013  0.2516  0.7585 -0.0724
 1386TIP3    H125573   0.645   1.967   0.100  1.5801  0.3898  0.1752
 1386TIP3    H225574   0.626   1.997  -0.047 -0.5655  1.0523  0.5532
 1387TIP3   OH225575   1.475   6.077  15.784  0.1193 -0.4246 -0.4110
 1387TIP3    H125576   1.398   6.024  15.804  1.4449 -1.4262  2.7411
 1387TIP3    H225577   1.453   6.164  15.816  0.0940 -0.5738 -0.0199
 1388TIP3   OH225578   6.540   0.927   4.155  0.4224 -0.2686  0.4772
 1388TIP3    H125579   6.567   0.875   4.231 -0.5359 -2.1954 -0.4467
 1388TIP3    H225580   6.452   0.895   4.133 -0.9502  2.8594  0.7995
 1389TIP3   OH225581   6.611   1.269  15.691 -0.3265  0.3579  0.1688
 1389TIP3    H125582   6.706   1.281  15.682 -0.1552 -1.6319 -1.5135
 1389TIP3    H225583   6.603   1.182  15.732 -1.4651  2.0173  3.9172
 1390TIP3   OH225584   2.278   6.499   5.564 -0.1636 -0.5402  0.0832
 1390TIP3    H125585   2.303   6.518   5.474 -2.0505  3.8390  0.1889
 1390TIP3    H225586   2.354   6.523   5.616 -0.5288  1.4358 -0.2088
 1391TIP3   OH225587   0.775   6.117  11.398  0.1166 -0.0302 -0.1289
 1391TIP3    H125588   0.844   6.063  11.359  0.6184 -0.0963  0.8214
 1391TIP3    H225589   0.716   6.054  11.439  0.0203  0.0745 -0.1072
 1392TIP3   OH225590   0.430   3.397   0.794  0.2020  0.3670 -0.1614
 1392TIP3    H125591   0.340   3.380   0.764 -0.2184  0.6602  0.9013
 1392TIP3    H225592   0.442   3.337   0.868  0.9253  0.2629 -0.3534
 1393TIP3   OH225593   1.235   0.084  11.334 -0.7972 -0.2323 -0.2531
 1393TIP3    H125594   1.189   0.029  11.398 -2.8836 -0.5304 -1.8836
 1393TIP3    H225595   1.173   0.154  11.313 -0.0513  0.0392 -1.6941
 1394TIP3   OH225596   3.407   5.395  10.408 -0.1060 -0.0592 -0.6402
 1394TIP3    H125597   3.344   5.323  10.398 -0.7672  0.4770 -0.4419
 1394TIP3    H225598   3.380   5.439  10.489  1.4804 -0.7420  0.3040
 1395TIP3   OH225599   3.604   6.606   3.381  0.3060 -0.6794 -0.5001
 1395TIP3    H125600   3.519   6.626   3.420  0.7998 -2.0112  1.4206
 1395TIP3    H225601   3.666   6.665   3.426  0.6671 -1.1391 -0.3805
 1396TIP3   OH225602   2.075   5.847   3.443  0.2200 -0.0985 -0.0202
 1396TIP3    H125603   2.042   5.817   3.358 -2.2391 -0.6422  1.0292
 1396TIP3    H225604   2.008   5.907   3.475  1.3669  0.5314  1.3035
 1397TIP3   OH225605   0.074   5.780  13.757  0.3834 -0.3833 -0.0615
 1397TIP3    H125606   0.016   5.714  13.795 -0.1085 -1.8673 -3.0495
 1397TIP3    H225607   0.159   5.763  13.796 -0.4603 -0.4285  1.8419
 1398TIP3   OH225608   5.947   0.615  16.784  0.1051  0.3379 -0.3783
 1398TIP3    H125609   5.975   0.637  16.696  1.3012  1.1073  0.1780
 1398TIP3    H225610   5.913   0.697  16.820 -0.4051  0.0240 -0.1213
 1399TIP3   OH225611   5.632   1.636  15.993  0.4573 -0.2711 -0.3997
 1399TIP3    H125612   5.620   1.549  16.032 -0.3072  0.1373  0.3111
 1399TIP3    H225613   5.574   1.635  15.916 -0.0722 -0.1738 -0.0126
 1400TIP3   OH225614   4.710   2.418  15.676  0.2065  0.6988  0.1873
 1400TIP3    H125615   4.768   2.474  15.727  2.0564  0.6923 -1.7480
 1400TIP3    H225616   4.658   2.479  15.624 -1.7901  0.7118  2.0970
 1401TIP3   OH225617   6.064   6.169  16.427 -0.1682 -0.1942 -0.3308
 1401TIP3    H125618   5.981   6.157  16.473  0.4260  0.4872  0.9985
 1401TIP3    H225619   6.051   6.247  16.374 -0.9069 -1.0590 -1.4530
 1402TIP3   OH225620   4.864   2.662  13.433  0.4650 -0.4477 -0.1940
 1402TIP3    H125621   4.779   2.630  13.403  0.5874 -2.2660  1.2226
 1402TIP3    H225622   4.898   2.714  13.360 -1.0826 -1.1575 -1.4641
 1403TIP3   OH225623   5.903   3.632   3.115 -0.3903  0.5609  0.3264
 1403TIP3    H125624   5.837   3.699   3.095  0.5633  0.9204 -1.9278
 1403TIP3    H225625   5.858   3.549   3.097  0.1605  0.8482 -2.8727
 1404TIP3   OH225626   6.120   1.021   3.286 -0.4137 -0.1728  0.6469
 1404TIP3    H125627   6.055   1.091   3.284 -0.5753 -0.3153  0.8480
 1404TIP3    H225628   6.203   1.066   3.300 -0.4391  0.0303  0.1436
 1405TIP3   OH225629   0.765   4.760   0.015 -0.1861  0.2848 -0.0041
 1405TIP3    H125630   0.845   4.707   0.012  0.1489  0.8241 -1.0819
 1405TIP3    H225631   0.695   4.696   0.004  0.1122 -0.1517  0.5856
 1406TIP3   OH225632   4.431   2.654  12.944 -0.0473 -0.3357  0.6396
 1406TIP3    H125633   4.494   2.628  13.011 -0.2675  1.8583  1.7808
 1406TIP3    H225634   4.385   2.573  12.921  2.6242 -1.8741  0.2888
 1407TIP3   OH225635   2.787   4.684  14.387 -0.0826  0.4346  0.0407
 1407TIP3    H125636   2.858   4.684  14.452 -0.3585  2.3328  0.4054
 1407TIP3    H225637   2.782   4.775  14.358 -1.9458  0.2079 -0.4615
 1408TIP3   OH225638   2.226   1.312  15.356  0.1082 -0.1117  0.3695
 1408TIP3    H125639   2.290   1.372  15.395  1.4906 -1.2392 -0.0585
 1408TIP3    H225640   2.265   1.225  15.367 -0.6912 -0.7107 -1.1452
 1409TIP3   OH225641   2.602   4.288  14.152  0.1985  0.3391 -0.4493
 1409TIP3    H125642   2.526   4.345  14.161  0.5460  0.6672  0.5832
 1409TIP3    H225643   2.599   4.258  14.061 -2.3311 -1.3405  0.1133
 1410TIP3   OH225644   0.281   2.022  13.728  0.4444 -0.2541  0.1394
 1410TIP3    H125645   0.268   2.032  13.822 -0.0327 -0.5100  0.1051
 1410TIP3    H225646   0.259   1.931  13.710  1.7288 -0.5403 -0.0400
 1411TIP3   OH225647   2.757   2.316  16.969  0.1121 -0.1097  0.0419
 1411TIP3    H125648   2.830   2.258  16.989  0.3415  0.7695  2.0270
 1411TIP3    H225649   2.682   2.258  16.957  0.2855 -0.8770  2.2239
 1412TIP3   OH225650   4.783   0.532   3.834  0.0606  0.3444  0.2107
 1412TIP3    H125651   4.821   0.588   3.902 -0.6890  1.2664 -0.1198
 1412TIP3    H225652   4.857   0.511   3.776  0.4379  0.5964  0.5939
 1413TIP3   OH225653   6.017   1.321   3.844 -0.3006  0.2489 -0.0742
 1413TIP3    H125654   6.019   1.319   3.940 -0.1343  0.4796 -0.0727
 1413TIP3    H225655   5.929   1.291   3.821  0.5401 -2.6363  0.0672
 1414TIP3   OH225656   1.090   5.459   5.763 -0.1108 -0.1573 -0.4207
 1414TIP3    H125657   1.047   5.373   5.765 -0.3803 -0.0162 -0.0460
 1414TIP3    H225658   1.098   5.483   5.856  1.8966 -0.7350 -0.4065
 1415TIP3   OH225659   4.686   2.416  13.101  0.0541  0.0659 -0.0773
 1415TIP3    H125660   4.776   2.385  13.090 -0.3265 -1.3061  0.4550
 1415TIP3    H225661   4.632   2.340  13.082 -0.9585  0.5802  0.6541
 1416TIP3   OH225662   6.776   5.263  16.035  0.1397  0.4117  0.1280
 1416TIP3    H125663   6.843   5.201  16.005 -0.9884  0.5012 -2.9158
 1416TIP3    H225664   6.715   5.209  16.085  0.9895 -0.2174  0.5213
 1417TIP3   OH225665   5.834   1.474   4.766 -0.2201  0.0228 -0.5196
 1417TIP3    H125666   5.758   1.425   4.736  0.2869 -1.6819  0.7895
 1417TIP3    H225667   5.803   1.524   4.841 -0.2884  0.2046 -0.6672
 1418TIP3   OH225668   0.914   0.982  13.587  0.1977 -0.2621  0.3168
 1418TIP3    H125669   0.897   1.076  13.583  0.8629 -0.0810  1.2801
 1418TIP3    H225670   0.840   0.946  13.635  0.5138 -0.0606  0.9599
 1419TIP3   OH225671   2.073   1.631  16.286 -0.0395  0.1340  0.2652
 1419TIP3    H125672   2.110   1.716  16.261 -0.4330 -0.1797 -1.4806
 1419TIP3    H225673   2.139   1.568  16.258 -0.1917 -0.2080  0.6654
 1420TIP3   OH225674   5.662   4.424  17.219 -0.3000  0.2094  0.0892
 1420TIP3    H125675   5.621   4.338  17.206 -0.2891  0.6046 -3.1177
 1420TIP3    H225676   5.605   4.468  17.282 -1.0357 -1.6174  0.7868
 1421TIP3   OH225677   4.608   6.774   2.811  1.0345 -0.3710 -0.5373
 1421TIP3    H125678   4.567   6.722   2.741 -1.4219 -3.3114  2.7112
 1421TIP3    H225679   4.547   6.847   2.825 -0.9005 -2.2076  1.2473
 1422TIP3   OH225680   5.029   0.272  15.726 -0.0757 -0.0557  0.1326
 1422TIP3    H125681   5.091   0.208  15.692 -0.8393 -1.0808  0.6088
 1422TIP3    H225682   5.053   0.283  15.818 -1.0616 -1.0753  0.5379
 1423TIP3   OH225683   4.599   4.910  15.177  0.4978  0.3631 -0.2026
 1423TIP3    H125684   4.612   4.815  15.172  1.5201  0.4425  0.4740
 1423TIP3    H225685   4.557   4.924  15.262  1.2420  0.5777  0.1439
 1424TIP3   OH225686   0.658   1.065  12.410 -0.0137 -0.1946 -0.3347
 1424TIP3    H125687   0.590   1.119  12.371  0.5141 -0.3491 -1.5227
 1424TIP3    H225688   0.699   1.021  12.335  1.7646  0.3412  0.2701
 1425TIP3   OH225689   2.478   3.611   1.242 -0.8063  0.4538  0.1265
 1425TIP3    H125690   2.473   3.524   1.282  1.3356  0.0820 -0.3175
 1425TIP3    H225691   2.529   3.598   1.162  0.1762  2.2298  0.4177
 1426TIP3   OH225692   6.568   2.703  14.431 -0.4198 -0.1585 -0.3963
 1426TIP3    H125693   6.517   2.622  14.435 -0.8060  0.1282  1.0090
 1426TIP3    H225694   6.590   2.713  14.338  0.6392 -2.4662 -0.4518
 1427TIP3   OH225695   1.012   4.289   1.830  0.6682 -0.6337  0.1742
 1427TIP3    H125696   1.031   4.366   1.777 -0.4894  0.7206  1.6447
 1427TIP3    H225697   0.920   4.270   1.813  0.2627 -0.1373  1.7174
 1428TIP3   OH225698   2.426   1.869  14.115  0.0044 -0.0864  0.8217
 1428TIP3    H125699   2.379   1.841  14.194 -1.7143 -0.4966 -0.2904
 1428TIP3    H225700   2.481   1.793  14.093  0.3431 -0.0476  1.4947
 1429TIP3   OH225701   2.739   3.015  12.353  0.5143 -0.5477  0.5741
 1429TIP3    H125702   2.793   2.940  12.378 -1.7032 -2.5568 -0.3394
 1429TIP3    H225703   2.765   3.035  12.263  0.5076 -0.7744  0.5217
 1430TIP3   OH225704   4.695   4.094  17.216 -0.0981  0.4760 -0.1007
 1430TIP3    H125705   4.786   4.107  17.188  0.2394 -1.6510 -0.2130
 1430TIP3    H225706   4.642   4.122  17.142  0.5477  0.1605 -0.6892
 1431TIP3   OH225707   5.911   4.639   5.710  0.9479  0.0015 -0.0013
 1431TIP3    H125708   5.924   4.547   5.688 -0.8435 -0.5012  0.8577
 1431TIP3    H225709   5.860   4.674   5.637 -1.0348 -0.5093  1.0773
 1432TIP3   OH225710   4.677   6.193  14.387  0.8077  0.2378 -0.1923
 1432TIP3    H125711   4.606   6.176  14.326  2.8583 -2.2670 -2.1277
 1432TIP3    H225712   4.641   6.256  14.450 -3.2771 -1.4416 -0.5916
 1433TIP3   OH225713   6.196   2.621  13.246 -0.2867  0.3093  0.1644
 1433TIP3    H125714   6.219   2.536  13.284 -0.1976  0.5713  0.7193
 1433TIP3    H225715   6.248   2.684  13.296 -1.6568  0.8451  0.9635
 1434TIP3   OH225716   3.307   5.626  13.375 -0.0967  0.1532 -0.3253
 1434TIP3    H125717   3.225   5.641  13.422 -0.6579  1.1760 -1.5353
 1434TIP3    H225718   3.319   5.531  13.375 -1.7740 -0.0933 -0.8772
 1435TIP3   OH225719   0.884   5.650  11.760  0.4385  0.0886 -0.2488
 1435TIP3    H125720   0.903   5.622  11.850 -0.5116 -0.6146 -0.2585
 1435TIP3    H225721   0.789   5.663  11.758  0.7156  2.7484 -0.4142
 1436TIP3   OH225722   1.424   3.152   6.092 -0.7221  0.0998  0.6637
 1436TIP3    H125723   1.494   3.126   6.033 -1.4860 -0.2868 -0.0785
 1436TIP3    H225724   1.417   3.247   6.080 -0.4051  0.1265  0.6687
 1437TIP3   OH225725   0.773   3.211   0.462  0.2310 -0.0688 -0.4741
 1437TIP3    H125726   0.711   3.277   0.493 -0.4507 -0.5633 -0.7548
 1437TIP3    H225727   0.858   3.255   0.464 -0.1116  0.5864  0.0180
 1438TIP3   OH225728   1.074   5.452   4.965  0.1999 -0.4090 -0.3362
 1438TIP3    H125729   1.129   5.374   4.959  0.2336 -0.3570 -0.6831
 1438TIP3    H225730   1.135   5.525   4.959  0.1128 -0.3517 -0.5184
 1439TIP3   OH225731   5.566   2.578   5.617  0.3302 -0.4254 -0.2806
 1439TIP3    H125732   5.524   2.531   5.545  0.4022 -1.9401  0.6255
 1439TIP3    H225733   5.508   2.564   5.692 -1.4495  3.7568 -0.6079
 1440TIP3   OH225734   1.185   4.086  12.860 -0.3992  0.2473 -0.0348
 1440TIP3    H125735   1.175   4.101  12.954  0.6748 -0.4221  0.1994
 1440TIP3    H225736   1.278   4.064  12.849  0.0218  2.4091 -1.5388
 1441TIP3   OH225737   1.640   2.666   0.606  0.0999  0.0184 -0.1228
 1441TIP3    H125738   1.713   2.612   0.636 -1.1806 -1.2497  0.7948
 1441TIP3    H225739   1.624   2.727   0.677 -0.9221 -0.9430  0.4970
 1442TIP3   OH225740   0.953   3.005  14.100  0.2326 -0.0684 -0.2910
 1442TIP3    H125741   0.865   3.044  14.100  0.3322  0.1826  0.8459
 1442TIP3    H225742   0.970   2.987  14.008 -1.2277 -0.6096 -0.4889
 1443TIP3   OH225743   6.447   5.879  13.773 -0.1218 -0.1253  0.5040
 1443TIP3    H125744   6.373   5.901  13.717 -0.1690 -0.7184  0.3194
 1443TIP3    H225745   6.512   5.843  13.713 -0.7432 -2.1738  0.9820
 1444TIP3   OH225746   3.691   5.696  15.644 -0.3719  0.1005 -0.0733
 1444TIP3    H125747   3.636   5.697  15.722 -1.7667 -0.5229 -1.0096
 1444TIP3    H225748   3.751   5.623  15.659 -1.3880 -0.7626 -0.0573
 1445TIP3   OH225749   2.931   5.850   1.444  0.5628  0.2468  0.0676
 1445TIP3    H125750   2.986   5.927   1.428  0.0641  0.2960 -1.5077
 1445TIP3    H225751   2.883   5.871   1.524  0.7522  1.3897 -0.1077
 1446TIP3   OH225752   2.237   4.876   0.823  0.4394  0.4727 -0.2176
 1446TIP3    H125753   2.186   4.892   0.903  0.1274  0.7929 -0.4795
 1446TIP3    H225754   2.279   4.960   0.805  0.4493  0.4200 -0.4350
 1447TIP3   OH225755   1.316   2.983   1.060 -0.0819 -0.0289 -0.5631
 1447TIP3    H125756   1.297   2.950   1.148 -0.3491  1.8327  0.1279
 1447TIP3    H225757   1.410   3.003   1.062 -0.2064  0.5534 -0.5114
 1448TIP3   OH225758   5.091   4.941   2.722 -0.1653  0.0519  0.5048
 1448TIP3    H125759   5.132   4.975   2.643  0.1730  0.8522  1.0074
 1448TIP3    H225760   5.118   4.849   2.725 -0.6165 -0.1290 -0.5711
 1449TIP3   OH225761   3.473   2.931  15.801  0.2720  0.1508  0.2133
 1449TIP3    H125762   3.451   2.923  15.708 -0.8094 -0.9138  0.5373
 1449TIP3    H225763   3.569   2.932  15.803  0.3886 -2.5875 -0.7317
 1450TIP3   OH225764   4.225   3.224   5.040  0.1807 -0.6416  0.1778
 1450TIP3    H125765   4.169   3.167   4.987  1.8632 -1.4372 -0.8392
 1450TIP3    H225766   4.199   3.313   5.014 -0.1107 -1.0037 -0.8479
 1451TIP3   OH225767   3.670   5.388  16.904  0.6589 -0.3060 -0.3241
 1451TIP3    H125768   3.601   5.345  16.955  2.0942 -1.1248  0.9802
 1451TIP3    H225769   3.697   5.322  16.840  0.2399  0.0255 -0.8538
 1452TIP3   OH225770   0.997   3.802   0.279  0.1964  0.2627 -0.2462
 1452TIP3    H125771   1.016   3.729   0.220  0.0324  0.1697 -0.1834
 1452TIP3    H225772   1.033   3.879   0.234 -1.3170  0.4521 -1.2201
 1453TIP3   OH225773   3.456   2.721   1.737 -0.3281 -0.0095  0.4139
 1453TIP3    H125774   3.471   2.803   1.690 -0.5025  1.1591  2.3249
 1453TIP3    H225775   3.544   2.693   1.764 -0.3235 -0.1899  0.2173
 1454TIP3   OH225776   0.808   2.561  16.860 -0.1477  0.3803 -0.1669
 1454TIP3    H125777   0.855   2.531  16.938  3.5206  1.8017 -1.5917
 1454TIP3    H225778   0.745   2.625  16.893 -1.4440 -1.8221  1.9118
 1455TIP3   OH225779   2.211   0.589  15.826  0.3583  0.3254 -0.1272
 1455TIP3    H125780   2.287   0.546  15.788  1.2297 -0.2902  2.1193
 1455TIP3    H225781   2.161   0.518  15.867 -0.1218  1.0026  0.5033
 1456TIP3   OH225782   5.438   2.090  15.333 -0.1500  0.3486 -0.3157
 1456TIP3    H125783   5.503   2.156  15.359  0.9403  0.4206 -2.9291
 1456TIP3    H225784   5.355   2.138  15.334  0.5539  1.6907 -1.7087
 1457TIP3   OH225785   1.965   1.627   4.540  0.3428  0.4886  0.4872
 1457TIP3    H125786   2.038   1.613   4.601 -0.8378 -0.0365  1.8372
 1457TIP3    H225787   1.897   1.668   4.594  0.2718  2.7530 -1.1710
 1458TIP3   OH225788   1.700   0.735  15.624  0.0755 -0.1971  0.3088
 1458TIP3    H125789   1.654   0.695  15.550 -0.2097  0.8135 -0.0868
 1458TIP3    H225790   1.697   0.669  15.693 -0.7676 -0.6803 -0.1652
 1459TIP3   OH225791   4.894   6.498   6.319 -0.3035  0.1787 -0.5749
 1459TIP3    H125792   4.845   6.440   6.378 -1.1710  0.8757 -0.5825
 1459TIP3    H225793   4.968   6.528   6.371 -0.1018 -0.5559 -0.4173
 1460TIP3   OH225794   5.132   2.696   1.129 -0.7697  0.0140  0.5846
 1460TIP3    H125795   5.186   2.634   1.080 -0.0496 -0.0433  1.4092
 1460TIP3    H225796   5.042   2.678   1.101 -0.4215 -0.3551 -0.3134
 1461TIP3   OH225797   6.296   1.132  14.374  0.0095  0.1432  0.2869
 1461TIP3    H125798   6.228   1.097  14.431  1.9045 -1.2249  1.8707
 1461TIP3    H225799   6.360   1.172  14.433  2.0817 -1.3679 -0.7686
 1462TIP3   OH225800   4.627   6.279  12.992 -0.1912  0.3362  0.4123
 1462TIP3    H125801   4.534   6.254  12.988 -0.1660  0.3498 -0.3977
 1462TIP3    H225802   4.628   6.369  12.958 -0.0195  0.7572  1.4658
 1463TIP3   OH225803   3.519   2.613   1.419 -0.3162 -0.1441 -0.0219
 1463TIP3    H125804   3.595   2.565   1.451  0.1875  0.7810  0.1992
 1463TIP3    H225805   3.496   2.672   1.490  0.9035  2.0477 -1.3223
 1464TIP3   OH225806   3.670   3.468  15.822  0.1083  0.3246  0.0813
 1464TIP3    H125807   3.687   3.375  15.805 -1.6381 -0.3023  1.4045
 1464TIP3    H225808   3.732   3.492  15.891  0.9888  0.3355 -0.6988
 1465TIP3   OH225809   2.629   3.626   4.686 -0.1294  0.0414 -0.0771
 1465TIP3    H125810   2.707   3.678   4.665  2.0822 -2.9053  0.2078
 1465TIP3    H225811   2.602   3.588   4.602  0.7230 -1.4196  0.2824
 1466TIP3   OH225812   0.558   2.338  13.333 -0.2930 -0.1922 -0.2933
 1466TIP3    H125813   0.556   2.246  13.360 -0.6852 -0.3770 -0.9333
 1466TIP3    H225814   0.642   2.370  13.365  1.3666 -1.6440 -2.8306
 1467TIP3   OH225815   2.056   1.960   4.685 -0.2522  0.3821  0.1453
 1467TIP3    H125816   2.137   2.002   4.655 -1.0154  2.0655  0.3902
 1467TIP3    H225817   2.081   1.868   4.697  1.0433  0.3654 -2.0323
 1468TIP3   OH225818   1.937   2.274  13.541  0.4409  0.1649 -0.1475
 1468TIP3    H125819   1.859   2.262  13.596 -1.0961 -0.4278 -2.3302
 1468TIP3    H225820   2.009   2.238  13.594 -0.2525  2.7872  2.8861
 1469TIP3   OH225821   3.944   4.631   4.856 -1.0205  0.5653  0.6009
 1469TIP3    H125822   4.021   4.686   4.870 -1.0149  0.8657 -0.5218
 1469TIP3    H225823   3.914   4.653   4.767 -2.3919  0.4422  1.0121
 1470TIP3   OH225824   3.950   0.347   3.484  0.9521  0.5514 -0.4964
 1470TIP3    H125825   3.958   0.407   3.410  2.3809 -1.2894 -1.9376
 1470TIP3    H225826   3.860   0.358   3.514  0.6817  2.1675 -1.7729
 1471TIP3   OH225827   1.226   6.081   4.031 -0.3404 -0.5930  0.0317
 1471TIP3    H125828   1.233   6.176   4.041 -0.2495 -0.6238  0.2713
 1471TIP3    H225829   1.302   6.047   4.077  0.8275 -0.6891 -1.8435
 1472TIP3   OH225830   5.196   3.763  15.447 -0.0087 -0.1306 -0.1862
 1472TIP3    H125831   5.259   3.707  15.403 -0.7581 -2.2121  1.2308
 1472TIP3    H225832   5.247   3.810  15.513 -0.0426 -3.1520  2.2136
 1473TIP3   OH225833   3.827   2.945   3.147  0.0067  0.2041  0.3049
 1473TIP3    H125834   3.886   2.892   3.201  0.9208  1.6483  0.7626
 1473TIP3    H225835   3.879   3.021   3.121 -0.3768 -0.3954 -2.6343
 1474TIP3   OH225836   2.916   6.138   3.317  0.8925 -0.5578  0.6690
 1474TIP3    H125837   2.969   6.059   3.309 -0.2955 -1.3190 -0.0983
 1474TIP3    H225838   2.839   6.110   3.365  1.1094  0.4998  1.6618
 1475TIP3   OH225839   4.819   1.985   4.889  0.1055  0.2927  0.3338
 1475TIP3    H125840   4.845   1.893   4.889  1.0987  0.5578  0.6596
 1475TIP3    H225841   4.839   2.016   4.801 -3.0971 -0.5308 -0.8108
 1476TIP3   OH225842   6.019   4.354  13.576  0.0902  0.3500 -0.0786
 1476TIP3    H125843   6.080   4.376  13.647  0.8798  0.8253 -0.8773
 1476TIP3    H225844   6.056   4.275  13.537 -0.7977 -0.3931  0.5437
 1477TIP3   OH225845   6.429   0.454  14.923 -0.1183  0.4038  0.3035
 1477TIP3    H125846   6.518   0.476  14.952  0.5883  0.5565 -1.8582
 1477TIP3    H225847   6.388   0.539  14.905 -0.4986  0.3020  0.6692
 1478TIP3   OH225848   5.970   0.509  15.951  0.0898 -0.2640 -0.3233
 1478TIP3    H125849   5.976   0.605  15.946  1.1576 -0.2199  1.0921
 1478TIP3    H225850   6.043   0.478  15.897 -0.7162 -0.3280 -1.4132
 1479TIP3   OH225851   3.157   1.249  15.333 -0.1879  0.1994 -0.5342
 1479TIP3    H125852   3.231   1.253  15.273 -0.6555  1.2930 -1.0618
 1479TIP3    H225853   3.180   1.309  15.404 -0.2407 -0.0375 -0.3140
 1480TIP3   OH225854   3.128   0.657  14.659  0.0312 -0.1963 -0.0592
 1480TIP3    H125855   3.095   0.738  14.620  0.6200 -0.1048 -0.3658
 1480TIP3    H225856   3.090   0.587  14.606  1.1123 -0.0641 -1.0180
 1481TIP3   OH225857   3.198   2.990  12.480 -0.0114 -0.5998  0.2182
 1481TIP3    H125858   3.223   2.924  12.416  1.0956  0.8502 -0.9378
 1481TIP3    H225859   3.212   3.073  12.435 -4.6771  0.5104  0.3288
 1482TIP3   OH225860   6.001   6.315  16.846 -0.0462  0.3620  0.1047
 1482TIP3    H125861   6.032   6.232  16.883 -0.8062  0.8035  1.8072
 1482TIP3    H225862   6.067   6.379  16.874 -0.6299  0.7019  0.7107
 1483TIP3   OH225863   5.959   3.755   5.415  0.1600  0.1638  0.1582
 1483TIP3    H125864   6.040   3.705   5.415 -0.2781 -0.7123 -2.3938
 1483TIP3    H225865   5.909   3.720   5.341 -0.8251  3.3358 -0.8645
 1484TIP3   OH225866   1.218   3.487   0.845  0.1643  0.3637 -0.0366
 1484TIP3    H125867   1.223   3.513   0.753 -0.4683  1.3005  0.1813
 1484TIP3    H225868   1.166   3.406   0.844  0.7664 -0.0309 -0.5601
 1485TIP3   OH225869   0.524   2.321   2.945  0.2384 -0.7508  0.0044
 1485TIP3    H125870   0.491   2.404   2.978  0.9624 -1.3487  2.4654
 1485TIP3    H225871   0.446   2.270   2.923 -0.2798 -0.2014  0.5511
 1486TIP3   OH225872   6.571   5.529   2.435  0.0129 -0.6750 -0.4165
 1486TIP3    H125873   6.482   5.528   2.400 -0.5866  0.9206  0.9543
 1486TIP3    H225874   6.603   5.617   2.418  1.3691 -1.2342 -0.9203
 1487TIP3   OH225875   4.901   0.877  15.996  0.0683 -0.0616  0.1973
 1487TIP3    H125876   4.942   0.963  15.983 -1.7898  1.2603  2.2739
 1487TIP3    H225877   4.815   0.886  15.956 -0.6350 -0.4719  1.5723
 1488TIP3   OH225878   0.034   1.883   4.482 -0.5529  0.0227  0.1569
 1488TIP3    H125879   0.116   1.880   4.433 -0.5141  2.0475  0.0156
 1488TIP3    H225880   0.015   1.976   4.491 -2.8884 -0.3939  0.1234
 1489TIP3   OH225881   6.604   2.612   3.184  0.1670 -0.1635 -0.8552
 1489TIP3    H125882   6.674   2.615   3.250 -0.6571  2.8546  0.0355
 1489TIP3    H225883   6.564   2.526   3.196  2.1877 -1.0412  0.2168
 1490TIP3   OH225884   1.533   6.283   1.304 -0.1861 -0.1893  0.3054
 1490TIP3    H125885   1.459   6.293   1.364 -1.0698  0.5140 -0.8474
 1490TIP3    H225886   1.584   6.363   1.314 -0.6066  0.1486 -0.2312
 1491TIP3   OH225887   0.034   3.971  12.591  0.4467 -1.0722 -0.4523
 1491TIP3    H125888   0.059   3.916  12.517  0.3118  0.9902 -2.1245
 1491TIP3    H225889   0.065   4.058  12.568 -0.9915 -0.0540  1.1990
 1492TIP3   OH225890   1.670   2.052  15.634  0.5630 -0.1826 -0.2878
 1492TIP3    H125891   1.753   2.074  15.591  0.3837  0.1511 -0.4707
 1492TIP3    H225892   1.658   1.959  15.617  0.5121 -0.0641 -0.9455
 1493TIP3   OH225893   5.735   2.565   4.615 -0.4679  0.2814  0.0167
 1493TIP3    H125894   5.786   2.545   4.693 -0.0823 -0.1709 -0.3399
 1493TIP3    H225895   5.701   2.653   4.629  1.3840  1.0737 -0.2473
 1494TIP3   OH225896   4.033   4.028   1.193  0.1173  0.0646  0.1470
 1494TIP3    H125897   4.076   4.090   1.134  0.8525 -0.0571  0.5421
 1494TIP3    H225898   3.941   4.033   1.169  0.1922  1.1478  0.0253
 1495TIP3   OH225899   3.441   5.932   6.106 -0.4215  0.0247  0.2054
 1495TIP3    H125900   3.357   5.966   6.135 -0.3140  0.3872  0.0979
 1495TIP3    H225901   3.504   5.999   6.132  0.0104 -0.8469  1.4908
 1496TIP3   OH225902   4.838   1.006   1.644  0.1370 -0.2031  0.1992
 1496TIP3    H125903   4.900   1.027   1.713 -0.7881  0.7693  0.7494
 1496TIP3    H225904   4.866   1.058   1.569 -0.7185  1.2383  0.8305
 1497TIP3   OH225905   2.635   1.126  14.012  0.0681 -0.4256  0.2689
 1497TIP3    H125906   2.595   1.123  14.099  0.0345  1.2824  0.3553
 1497TIP3    H225907   2.572   1.085  13.954  0.9252 -3.4075  1.2829
 1498TIP3   OH225908   2.631   0.095  12.545 -0.2073 -1.1242  0.4791
 1498TIP3    H125909   2.673   0.090  12.459 -2.1410  0.8397 -0.7030
 1498TIP3    H225910   2.697   0.063  12.606  1.7865 -1.1906 -1.5585
 1499TIP3   OH225911   2.181   6.038  14.005 -0.0359 -0.0017 -0.6668
 1499TIP3    H125912   2.103   6.020  13.953 -0.7284 -1.4655  0.8041
 1499TIP3    H225913   2.151   6.098  14.073  0.3583  0.2059 -0.6730
 1500TIP3   OH225914   6.551   3.102  16.198 -0.3046  0.4449  0.1082
 1500TIP3    H125915   6.482   3.131  16.259 -1.2240  0.3205 -0.8395
 1500TIP3    H225916   6.506   3.042  16.138  1.1477 -1.4548  0.8449
 1501TIP3   OH225917   5.509   2.203   4.082 -0.5444  0.3393 -0.4273
 1501TIP3    H125918   5.564   2.209   4.160 -0.3151 -0.7478 -0.4943
 1501TIP3    H225919   5.420   2.206   4.115 -0.4528  1.1221 -0.2349
 1502TIP3   OH225920   1.634   5.518   5.637 -0.4023  0.4822 -0.6104
 1502TIP3    H125921   1.678   5.591   5.681 -1.2139 -0.2600  1.5610
 1502TIP3    H225922   1.659   5.440   5.688 -2.0540 -0.3188 -0.9478
 1503TIP3   OH225923   0.986   2.431  12.292  0.3207 -0.0252 -0.0883
 1503TIP3    H125924   0.942   2.401  12.213 -0.4656 -0.1089  0.3634
 1503TIP3    H225925   0.970   2.361  12.356 -0.3732  0.7258  0.5810
 1504TIP3   OH225926   4.807   1.407  12.991 -0.3013  0.2026  0.0339
 1504TIP3    H125927   4.794   1.313  12.978 -0.2984  0.4565 -2.2616
 1504TIP3    H225928   4.892   1.413  13.035 -0.2468 -0.8588  0.1132
 1505TIP3   OH225929   3.601   2.452  17.024  0.1720  0.7624 -0.1013
 1505TIP3    H125930   3.596   2.485  17.113  0.6835 -0.3705  0.3633
 1505TIP3    H225931   3.695   2.445  17.005  0.0758  0.1675 -0.3989
 1506TIP3   OH225932   2.348   5.526  16.917 -0.4710  0.4145 -0.0976
 1506TIP3    H125933   2.384   5.483  16.995 -0.3977 -0.4512 -0.5959
 1506TIP3    H225934   2.257   5.496  16.913 -0.0976 -0.6528 -1.0950
 1507TIP3   OH225935   4.351   3.285  11.105  0.1871  0.4681  0.5915
 1507TIP3    H125936   4.395   3.336  11.037 -0.6585 -1.9530 -1.9797
 1507TIP3    H225937   4.259   3.313  11.100  0.2989  1.0691  1.5856
 1508TIP3   OH225938   2.431   6.534   5.325  0.1300  0.7180 -0.1928
 1508TIP3    H125939   2.419   6.496   5.238 -1.2403  1.0795 -0.1852
 1508TIP3    H225940   2.430   6.629   5.310  0.5981  0.7802  0.1410
 1509TIP3   OH225941   6.525   5.243   5.923  0.1450  0.1013  0.1735
 1509TIP3    H125942   6.502   5.202   6.006 -1.8874  0.3706 -0.2099
 1509TIP3    H225943   6.557   5.171   5.869 -2.8272 -1.0197 -0.2914
 1510TIP3   OH225944   2.265   4.313  17.005  0.5177  0.0229 -0.2352
 1510TIP3    H125945   2.322   4.251  16.959 -0.9477 -0.9440 -0.8363
 1510TIP3    H225946   2.198   4.336  16.940  0.8129  1.9737  0.1067
 1511TIP3   OH225947   1.426   1.600  13.448  0.1004 -0.3004  0.4726
 1511TIP3    H125948   1.474   1.520  13.467  1.6816  0.2635 -0.9259
 1511TIP3    H225949   1.478   1.669  13.489 -1.0377  0.0715  1.3312
 1512TIP3   OH225950   1.539   3.799   0.826 -0.2542  0.2113  0.7753
 1512TIP3    H125951   1.621   3.750   0.816  0.3219  1.5821 -2.9918
 1512TIP3    H225952   1.471   3.731   0.834  0.8772 -1.1184 -0.3358
 1513TIP3   OH225953   4.509   3.790   0.261  0.1201 -0.4841 -0.0759
 1513TIP3    H125954   4.528   3.868   0.209  1.8185 -1.2396 -0.6990
 1513TIP3    H225955   4.424   3.760   0.230  0.2315  0.1661 -1.0555
 1514TIP3   OH225956   1.124   0.877  11.171 -0.7063  0.2694  0.5067
 1514TIP3    H125957   1.061   0.823  11.218 -1.2136 -0.5481 -1.0432
 1514TIP3    H225958   1.076   0.957  11.150 -1.0366 -0.0686 -0.0681
 1515TIP3   OH225959   2.819   1.556  14.826 -0.0765 -0.0544  0.2421
 1515TIP3    H125960   2.801   1.509  14.745 -1.5076  1.4399 -0.3951
 1515TIP3    H225961   2.904   1.597  14.813  0.0090 -0.3905 -0.2426
 1516TIP3   OH225962   4.429   3.615  11.620  0.5091 -0.5791 -0.3879
 1516TIP3    H125963   4.508   3.645  11.576  0.7888  2.5147  1.8858
 1516TIP3    H225964   4.453   3.531  11.659  1.5063 -1.3577 -2.5374
 1517TIP3   OH225965   1.132   2.685   0.318 -0.4193 -0.3439  0.0244
 1517TIP3    H125966   1.097   2.668   0.230  0.5383  0.4690 -0.5325
 1517TIP3    H225967   1.091   2.767   0.343 -0.7570 -0.6195  0.3860
 1518TIP3   OH225968   2.883   3.516   4.813 -0.0323 -0.2951  0.0733
 1518TIP3    H125969   2.917   3.428   4.827 -1.4270 -1.1137 -1.3236
 1518TIP3    H225970   2.931   3.548   4.736 -1.1083 -0.7840 -0.8402
 1519TIP3   OH225971   0.780   4.616  12.440 -0.5774 -0.6865  0.0983
 1519TIP3    H125972   0.859   4.666  12.459 -0.1694 -1.3125  0.0944
 1519TIP3    H225973   0.742   4.597  12.526 -2.2098  1.8928  0.0298
 1520TIP3   OH225974   2.009   6.175   0.130  0.0838 -0.0287 -0.8201
 1520TIP3    H125975   1.949   6.244   0.159 -0.2362 -0.0530 -1.4326
 1520TIP3    H225976   2.095   6.204   0.162 -0.1465  0.3400 -0.5302
 1521TIP3   OH225977   2.370   4.164  15.969 -1.0632 -0.3456 -0.1271
 1521TIP3    H125978   2.327   4.170  15.883  0.8128  0.0825 -1.0898
 1521TIP3    H225979   2.418   4.082  15.966  0.2792  0.4093 -0.1364
 1522TIP3   OH225980   6.052   6.727  13.428  0.3835 -0.1824 -0.0389
 1522TIP3    H125981   5.995   6.697  13.499  0.3056  0.0319 -0.0127
 1522TIP3    H225982   6.016   6.684  13.350 -1.3397  1.8583 -0.4503
 1523TIP3   OH225983   3.824   2.965  12.148  0.1168  0.2826  0.1993
 1523TIP3    H125984   3.786   2.878  12.156  1.0616 -0.1344  0.2875
 1523TIP3    H225985   3.801   2.993  12.059  1.2907 -0.7973 -0.4672
 1524TIP3   OH225986   2.879   1.306   5.815  0.3065 -0.0485 -0.1871
 1524TIP3    H125987   2.818   1.233   5.802 -1.7893  1.5238  0.2454
 1524TIP3    H225988   2.963   1.264   5.831 -0.1991 -2.3202 -2.7064
 1525TIP3   OH225989   4.678   3.427   5.034  0.3656  0.0938 -0.0080
 1525TIP3    H125990   4.709   3.513   5.005  1.0881  1.2252  3.6332
 1525TIP3    H225991   4.588   3.443   5.063 -0.0534 -0.8019 -0.7467
 1526TIP3   OH225992   3.394   1.677   4.776 -0.3585  0.6826 -0.3091
 1526TIP3    H125993   3.327   1.658   4.841  0.7928  1.9698  1.3220
 1526TIP3    H225994   3.348   1.667   4.692 -2.2607  0.3598  0.6957
 1527TIP3   OH225995   6.682   3.765   3.585 -0.2020  0.5051  0.3669
 1527TIP3    H125996   6.635   3.704   3.527  1.0791 -0.5812  0.4265
 1527TIP3    H225997   6.673   3.850   3.542 -2.9400  0.5450  0.8177
 1528TIP3   OH225998   4.703   3.888   2.515 -0.0324 -0.2766 -0.0521
 1528TIP3    H125999   4.632   3.829   2.541 -1.1026 -0.0149 -2.1471
 1528TIP3    H226000   4.768   3.880   2.585 -1.0405 -2.3692  0.7362
 1529TIP3   OH226001   1.254   4.298  17.092 -0.0972 -0.6830 -0.1491
 1529TIP3    H126002   1.238   4.212  17.130 -0.4973  0.2759  2.0188
 1529TIP3    H226003   1.172   4.346  17.104 -0.6513 -0.6052 -3.3308
 1530TIP3   OH226004   5.431   3.358   3.207 -0.0342  0.3355  0.0766
 1530TIP3    H126005   5.493   3.288   3.228  1.2482  1.1587 -0.8291
 1530TIP3    H226006   5.381   3.325   3.132  1.3121  0.7871 -1.0486
 1531TIP3   OH226007   4.266   3.717  15.174  0.2464  0.3840  0.2161
 1531TIP3    H126008   4.342   3.725  15.116  1.4113 -1.1556  1.4516
 1531TIP3    H226009   4.303   3.704  15.261 -1.4655  1.7663  1.2328
 1532TIP3   OH226010   4.739   1.097   3.479 -0.0542 -0.1210  0.3086
 1532TIP3    H126011   4.794   1.033   3.434 -0.9731 -0.5389 -0.2635
 1532TIP3    H226012   4.742   1.175   3.424 -2.1642 -1.0312 -1.2313
 1533TIP3   OH226013   2.319   5.103   2.551 -0.0212 -0.7095 -1.0381
 1533TIP3    H126014   2.269   5.022   2.564  1.6624 -1.8398 -1.3245
 1533TIP3    H226015   2.379   5.106   2.625 -0.6849  0.8045 -0.5203
 1534TIP3   OH226016   6.258   4.060   1.082  0.4708 -0.2187  0.0597
 1534TIP3    H126017   6.168   4.087   1.065 -0.1826 -2.2597 -0.0262
 1534TIP3    H226018   6.294   4.128   1.139 -0.8702  1.0104 -0.5193
 1535TIP3   OH226019   0.797   4.084   6.674  0.1408  0.4639  0.0330
 1535TIP3    H126020   0.870   4.141   6.700  0.4422 -0.2219  0.7421
 1535TIP3    H226021   0.819   3.999   6.712  0.9136 -0.8165 -2.9808
 1536TIP3   OH226022   4.903   4.146  15.219 -0.0458  0.1211 -0.0940
 1536TIP3    H126023   4.956   4.184  15.289 -0.2800  0.0537  0.1226
 1536TIP3    H226024   4.833   4.099  15.265 -0.1666  0.0264 -0.3724
 1537TIP3   OH226025   2.379   3.863  13.339  0.0443 -0.2081 -0.1752
 1537TIP3    H126026   2.337   3.891  13.421  0.0471 -1.9992  0.4766
 1537TIP3    H226027   2.468   3.897  13.345  0.2431 -0.8767  0.8844
 1538TIP3   OH226028   4.186   0.267  14.929  0.1278  0.1362 -0.2196
 1538TIP3    H126029   4.244   0.191  14.932  0.5412  0.4653  1.3960
 1538TIP3    H226030   4.109   0.237  14.882  0.0266 -1.4923  0.8998
 1539TIP3   OH226031   5.226   5.263  15.715  0.7319 -0.3610 -0.4658
 1539TIP3    H126032   5.175   5.220  15.783 -1.6309 -0.4213 -2.1883
 1539TIP3    H226033   5.310   5.216  15.714 -0.2931 -2.2855  0.3771
 1540TIP3   OH226034   1.485   2.076   3.489 -0.4829 -0.4946 -0.1821
 1540TIP3    H126035   1.482   2.075   3.584  1.7161 -0.2436 -0.0716
 1540TIP3    H226036   1.399   2.110   3.463 -1.5011 -1.4920  1.6457
 1541TIP3   OH226037   4.899   0.953   2.307 -0.0000 -0.4962  0.6051
 1541TIP3    H126038   4.858   1.024   2.257 -1.5887 -2.4662 -1.0487
 1541TIP3    H226039   4.992   0.960   2.286 -0.3343  0.1258 -0.8261
 1542TIP3   OH226040   6.192   5.183   4.435 -0.0604  0.0379  0.0868
 1542TIP3    H126041   6.239   5.262   4.411  1.5582 -1.0392 -0.4770
 1542TIP3    H226042   6.114   5.183   4.380 -0.0776  1.2072  0.0902
 1543TIP3   OH226043   4.566   3.951  11.389  0.6640 -0.4414  0.2571
 1543TIP3    H126044   4.619   3.885  11.344 -0.7621  0.7487 -3.5813
 1543TIP3    H226045   4.526   4.002  11.319 -2.2936  1.3660  2.9511
 1544TIP3   OH226046   2.747   5.209   1.247  0.1056 -0.1887 -0.1791
 1544TIP3    H126047   2.803   5.192   1.171 -1.0168 -0.8034 -0.8851
 1544TIP3    H226048   2.764   5.136   1.306 -1.0693 -1.2031 -1.0665
 1545TIP3   OH226049   0.198   5.572   6.043  0.4135 -0.3266 -0.3912
 1545TIP3    H126050   0.126   5.635   6.043  0.6560 -0.0479 -0.6391
 1545TIP3    H226051   0.155   5.487   6.036 -0.0842 -0.4087  2.4428
 1546TIP3   OH226052   2.011   6.387  13.728  0.7159 -0.2107  0.2535
 1546TIP3    H126053   1.930   6.356  13.689 -0.0369  0.8659  0.9239
 1546TIP3    H226054   1.992   6.395  13.821  0.7499  2.5048  0.0987
 1547TIP3   OH226055   1.587   0.054  14.862 -0.4933  0.2494  0.7527
 1547TIP3    H126056   1.531  -0.020  14.837  0.1894 -0.4458  1.2329
 1547TIP3    H226057   1.537   0.131  14.836  0.0420 -0.3658 -2.5315
 1548TIP3   OH226058   1.901   5.801  12.146 -0.0804 -0.3885  0.0802
 1548TIP3    H126059   1.865   5.722  12.105 -0.3446  0.5925 -1.6855
 1548TIP3    H226060   1.978   5.770  12.193  1.7304 -1.3250 -3.1625
 1549TIP3   OH226061   5.081   0.222  13.868 -0.3090  0.2281 -0.3088
 1549TIP3    H126062   4.999   0.256  13.904  0.1145  0.6961  0.2353
 1549TIP3    H226063   5.065   0.218  13.774 -0.7153  1.0053 -0.2862
 1550TIP3   OH226064   3.633   5.761  16.737  0.7402  0.0709 -0.2325
 1550TIP3    H126065   3.628   5.804  16.652  1.9081  0.5850 -0.0629
 1550TIP3    H226066   3.721   5.724  16.740 -0.1179 -2.1570 -0.2564
 1551TIP3   OH226067   0.329   3.119   5.468 -0.3589  0.6256 -0.6325
 1551TIP3    H126068   0.292   3.188   5.414 -1.5289 -0.3370 -1.1258
 1551TIP3    H226069   0.259   3.053   5.474  1.2533 -1.2794 -1.5830
 1552TIP3   OH226070   0.526   0.222   3.425  0.1805 -0.5784 -0.3075
 1552TIP3    H126071   0.508   0.216   3.331  0.0787 -3.1091 -0.2176
 1552TIP3    H226072   0.564   0.309   3.437 -0.0685 -0.0713 -2.6342
 1553TIP3   OH226073   2.951   4.943   5.134 -0.3658  0.1195  0.1499
 1553TIP3    H126074   3.028   4.915   5.183 -1.5908 -1.8805  1.0531
 1553TIP3    H226075   2.915   5.016   5.184  1.6478  2.0578 -1.0399
 1554TIP3   OH226076   5.057   2.513  14.670  0.3624 -0.0928  0.2663
 1554TIP3    H126077   4.981   2.545  14.622  0.9320 -0.0472 -0.6088
 1554TIP3    H226078   5.131   2.522  14.610  0.7069 -2.2329  0.2631
 1555TIP3   OH226079   0.082   2.766  11.820  0.6966  0.6888 -0.1855
 1555TIP3    H126080   0.121   2.842  11.776  0.3613 -0.0275 -1.7936
 1555TIP3    H226081   0.071   2.701  11.750  1.6104 -1.1180  1.2656
 1556TIP3   OH226082   3.303   0.594   2.222  0.3758 -0.2541 -0.4750
 1556TIP3    H126083   3.364   0.582   2.295  1.3103 -0.9344 -1.3288
 1556TIP3    H226084   3.220   0.617   2.263  0.5351 -1.9148  0.9074
 1557TIP3   OH226085   0.648   3.584  15.033 -0.5926 -0.3915 -0.1528
 1557TIP3    H126086   0.567   3.580  14.982 -0.1202  1.9269 -1.2659
 1557TIP3    H226087   0.704   3.516  14.995 -1.0634 -0.1812 -1.2767
 1558TIP3   OH226088   1.540   1.571  12.456  0.0268  0.0926  0.0485
 1558TIP3    H126089   1.467   1.512  12.472  0.1320 -0.2145 -0.5454
 1558TIP3    H226090   1.513   1.654  12.494 -1.1248  0.2991 -1.1552
 1559TIP3   OH226091   1.637   1.417  12.838  0.5950  0.0848  0.1946
 1559TIP3    H126092   1.710   1.474  12.862 -0.1071  0.4972  1.4804
 1559TIP3    H226093   1.673   1.329  12.843  1.0670  0.2970  0.6373
 1560TIP3   OH226094   2.779   2.379  10.602  0.0984 -0.3494  0.6291
 1560TIP3    H126095   2.867   2.415  10.616 -0.1023 -0.0041  1.0215
 1560TIP3    H226096   2.726   2.419  10.670 -0.7755  0.8485 -0.7027
 1561TIP3   OH226097   4.087   6.145  11.640  0.7054 -0.1492  0.0155
 1561TIP3    H126098   4.019   6.078  11.626  0.2440  0.4003 -0.4186
 1561TIP3    H226099   4.159   6.117  11.584  1.1561 -1.1468  1.0383
 1562TIP3   OH226100   0.531   1.143   3.060  0.3021  0.6513 -0.2130
 1562TIP3    H126101   0.601   1.176   3.116 -0.0980  0.1221  0.6264
 1562TIP3    H226102   0.466   1.108   3.121 -0.2298  0.2099 -1.0085
 1563TIP3   OH226103   4.126   0.959   1.487  0.2510 -0.2441 -0.6155
 1563TIP3    H126104   4.219   0.968   1.465  0.4810 -1.2540 -0.0933
 1563TIP3    H226105   4.093   1.049   1.486  0.5867 -0.0513 -3.4929
 1564TIP3   OH226106   2.107   6.534   0.596  0.3726  0.2237  0.1939
 1564TIP3    H126107   2.053   6.612   0.588  1.2497  0.8968  0.6216
 1564TIP3    H226108   2.170   6.556   0.665  0.6494 -0.8518  0.3025
 1565TIP3   OH226109   1.307   1.107   5.816 -0.1644  0.2050  0.6334
 1565TIP3    H126110   1.252   1.032   5.840 -2.5453  0.8913 -2.0874
 1565TIP3    H226111   1.389   1.068   5.785 -0.8322 -1.2036  0.5647
 1566TIP3   OH226112   6.375   2.052  16.491  0.0306 -0.3214 -0.0596
 1566TIP3    H126113   6.386   1.957  16.500  2.4805 -0.0666  0.4328
 1566TIP3    H226114   6.295   2.071  16.538  0.6053 -1.9117  1.7047
 1567TIP3   OH226115   4.032   2.121   6.191 -0.1738  0.5198  0.0960
 1567TIP3    H126116   3.999   2.043   6.235  0.1548  0.4387  0.2044
 1567TIP3    H226117   3.985   2.194   6.232  0.8163  0.5259  1.2688
 1568TIP3   OH226118   3.296   3.090   1.841 -0.1717 -0.6232 -0.0395
 1568TIP3    H126119   3.267   3.168   1.888 -1.2225 -0.7688 -0.4205
 1568TIP3    H226120   3.344   3.125   1.765 -1.3941 -0.2997 -0.6957
 1569TIP3   OH226121   2.467   5.809   2.829 -0.6245 -0.0907  0.1835
 1569TIP3    H126122   2.400   5.806   2.760  0.0444  1.8104 -0.6006
 1569TIP3    H226123   2.539   5.858   2.790  0.5077 -0.5554  1.6403
 1570TIP3   OH226124   2.992   2.992   3.321  0.2635  0.0312 -0.4452
 1570TIP3    H126125   3.001   3.055   3.250 -0.1023  1.3535  0.6417
 1570TIP3    H226126   3.076   2.996   3.367 -0.3676  1.0894  0.6794
 1571TIP3   OH226127   5.042   2.229   3.122  0.1554  0.5507 -0.0430
 1571TIP3    H126128   5.059   2.239   3.028  0.7327  1.2005  0.1135
 1571TIP3    H226129   5.081   2.308   3.161 -0.1360  0.3187  0.7343
 1572TIP3   OH226130   5.472   5.690  10.653 -0.3730  0.3526 -0.2528
 1572TIP3    H126131   5.452   5.657  10.741 -1.8601  2.9017  0.4874
 1572TIP3    H226132   5.404   5.652  10.597 -0.7058  0.3835  0.1243
 1573TIP3   OH226133   6.011   6.283   1.844 -0.7967 -0.1261  0.5857
 1573TIP3    H126134   6.034   6.242   1.761 -2.8694 -0.6072  0.1975
 1573TIP3    H226135   6.093   6.283   1.894  0.0921 -1.4308 -0.7859
 1574TIP3   OH226136   6.181   4.023   0.434  0.1626 -0.2289  0.0674
 1574TIP3    H126137   6.186   3.932   0.464 -0.4242  0.3271  1.9793
 1574TIP3    H226138   6.089   4.046   0.443  0.4954  0.8999  0.6853
 1575TIP3   OH226139   5.428   2.729  12.489 -0.9995  0.1562  0.7504
 1575TIP3    H126140   5.474   2.666  12.545  0.5463 -1.5025 -2.1472
 1575TIP3    H226141   5.487   2.805  12.486 -0.3004 -0.3939  0.1602
 1576TIP3   OH226142   0.303   5.703   5.572 -0.1696 -0.4508 -0.2668
 1576TIP3    H126143   0.395   5.694   5.550 -0.8311 -0.8827 -3.2013
 1576TIP3    H226144   0.265   5.616   5.556 -1.0049 -0.5072  1.6657
 1577TIP3   OH226145   3.256   0.525  14.860 -0.2298 -0.0870  0.5048
 1577TIP3    H126146   3.328   0.489  14.809 -0.3989 -0.3915  0.4801
 1577TIP3    H226147   3.231   0.604  14.813 -0.2070 -0.2220  0.2680
 1578TIP3   OH226148   0.341   2.153  15.183 -0.2700 -0.1933 -0.1649
 1578TIP3    H126149   0.280   2.148  15.256 -0.6560  2.8351 -0.1369
 1578TIP3    H226150   0.297   2.207  15.118 -0.1851 -3.2545 -3.0307
 1579TIP3   OH226151   1.305   1.111  13.255  0.4151  0.1481  0.4718
 1579TIP3    H126152   1.239   1.175  13.280  1.0620  1.4155 -0.9324
 1579TIP3    H226153   1.387   1.146  13.291  0.6346 -0.3875  0.5048
 1580TIP3   OH226154   0.336   1.723   0.563  0.3152 -0.3414 -0.3460
 1580TIP3    H126155   0.411   1.740   0.621  1.3664 -1.6543 -1.2736
 1580TIP3    H226156   0.331   1.628   0.558  0.3053 -0.2636 -2.4595
 1581TIP3   OH226157   1.466   5.750  12.043  0.7838  0.4883  0.1953
 1581TIP3    H126158   1.493   5.670  11.997  0.6806  1.5209 -1.7971
 1581TIP3    H226159   1.373   5.760  12.022  0.2069 -0.0283  2.3130
 1582TIP3   OH226160   3.318   3.186  16.490  0.4021  0.5180  0.1680
 1582TIP3    H126161   3.370   3.145  16.420 -1.5550 -0.4625 -0.7821
 1582TIP3    H226162   3.382   3.206  16.558  2.1016 -0.1876 -1.1316
 1583TIP3   OH226163   1.586   0.701  12.104 -0.0620  0.5125 -0.1046
 1583TIP3    H126164   1.559   0.634  12.041  1.1666  0.1540 -0.2821
 1583TIP3    H226165   1.648   0.657  12.162  0.9844  1.5399 -0.3922
 1584TIP3   OH226166   5.928   3.304  13.225  0.1629  0.5470  0.4531
 1584TIP3    H126167   5.911   3.392  13.193  1.0941  0.2672 -0.9257
 1584TIP3    H226168   6.023   3.303  13.241  0.2364 -0.3203  0.0159
 1585TIP3   OH226169   1.355   3.027  12.263  0.1958 -0.3030 -0.6430
 1585TIP3    H126170   1.339   2.933  12.271  1.0995 -0.4706 -0.6735
 1585TIP3    H226171   1.312   3.052  12.181 -0.4065 -0.5975 -0.4254
 1586TIP3   OH226172   3.264   3.315  13.893 -0.3182 -0.3319 -0.5314
 1586TIP3    H126173   3.296   3.242  13.946 -0.7209 -0.1512 -0.0319
 1586TIP3    H226174   3.211   3.367  13.954 -1.2965 -0.4507 -1.2509
 1587TIP3   OH226175   1.757   4.695  14.000  0.0195  0.3566  0.5945
 1587TIP3    H126176   1.792   4.607  13.987  0.9097  1.0525 -2.5213
 1587TIP3    H226177   1.676   4.682  14.050  0.1069 -2.1940  0.2005
 1588TIP3   OH226178   3.485   1.893   2.152 -0.2279 -0.4625  0.1622
 1588TIP3    H126179   3.428   1.841   2.097  1.0822 -0.8130 -0.9177
 1588TIP3    H226180   3.496   1.841   2.232  1.3305 -2.0799 -1.0323
 1589TIP3   OH226181   5.199   1.841   0.772  0.2677 -0.2947  0.1623
 1589TIP3    H126182   5.132   1.773   0.761 -0.3814  0.2279  0.7684
 1589TIP3    H226183   5.162   1.900   0.838  1.2071  0.1624  0.2905
 1590TIP3   OH226184   1.228   1.947  14.419  0.0340 -0.2297 -0.0004
 1590TIP3    H126185   1.239   2.041  14.433 -1.2161 -0.0579 -0.0564
 1590TIP3    H226186   1.225   1.937  14.324  0.3821 -0.3523  0.0016
 1591TIP3   OH226187   3.073   6.354   1.243 -0.1788 -0.4542  0.0057
 1591TIP3    H126188   3.009   6.285   1.229 -0.8437  0.0110  0.6933
 1591TIP3    H226189   3.032   6.434   1.210 -0.5408  0.0969  1.6814
 1592TIP3   OH226190   5.616   2.850  16.106 -0.3938 -0.0576 -0.0430
 1592TIP3    H126191   5.637   2.902  16.183  0.0428 -2.7345  1.7800
 1592TIP3    H226192   5.633   2.908  16.032  1.9490  1.7239  1.7491
 1593TIP3   OH226193   1.685   3.361   2.932  0.1198  0.0152 -0.0883
 1593TIP3    H126194   1.723   3.412   3.003 -0.6003 -1.6990  1.5937
 1593TIP3    H226195   1.593   3.352   2.955  0.4572 -3.1486  0.4441
 1594TIP3   OH226196   2.082   3.475   2.740 -0.0807 -0.2938 -0.2920
 1594TIP3    H126197   2.161   3.487   2.793 -0.6867 -0.5657  0.7198
 1594TIP3    H226198   2.111   3.427   2.663  0.6045 -1.1116  0.4607
 1595TIP3   OH226199   1.373   1.072  12.202 -0.0300  0.3428  0.4929
 1595TIP3    H126200   1.330   1.029  12.276 -1.0038  2.3443  1.1797
 1595TIP3    H226201   1.446   1.120  12.242 -0.0778  0.8005  0.0438
 1596TIP3   OH226202   1.073   1.967  15.199 -0.0121 -0.4364  0.1756
 1596TIP3    H126203   1.029   1.915  15.266  1.4998 -0.4456  1.2331
 1596TIP3    H226204   1.118   1.903  15.145  0.9923 -0.3204  0.8411
 1597TIP3   OH226205   6.685   1.024   0.462  0.4781  0.0136 -0.2426
 1597TIP3    H126206   6.777   1.049   0.451  1.3718 -1.9127  1.9467
 1597TIP3    H226207   6.675   0.948   0.404 -0.4798  1.5392 -2.2156
 1598TIP3   OH226208   0.902   3.968  14.414 -0.2333  0.4449 -0.2833
 1598TIP3    H126209   0.907   3.978  14.510  1.2638 -1.1941 -0.1314
 1598TIP3    H226210   0.953   4.041  14.380 -0.4450  0.8171  0.1753
 1599TIP3   OH226211   6.104   0.624   3.832 -0.4610  0.0102  0.4231
 1599TIP3    H126212   6.045   0.555   3.802 -0.4689  0.5373 -0.8266
 1599TIP3    H226213   6.177   0.578   3.873 -0.6836 -0.7208  0.0082
 1600TIP3   OH226214   2.393   3.704  14.434  0.4577  0.7255 -0.1165
 1600TIP3    H126215   2.427   3.625  14.478 -0.7535  1.5488  2.5064
 1600TIP3    H226216   2.443   3.775  14.473  0.9432  1.3651 -1.8399
 1601TIP3   OH226217   3.765   3.263  15.367 -0.3642  0.1040  0.7117
 1601TIP3    H126218   3.715   3.193  15.409  1.8384 -1.0977  1.4854
 1601TIP3    H226219   3.809   3.308  15.440 -0.9384  1.6724  0.1334
 1602TIP3   OH226220   6.481   5.998  12.303  0.0656 -0.3855  0.3599
 1602TIP3    H126221   6.468   5.912  12.262 -2.8323 -0.3405  0.9907
 1602TIP3    H226222   6.472   6.060  12.231  1.3013 -0.5491  0.0484
 1603TIP3   OH226223   5.576   1.481  17.266 -0.9407  0.4932  0.1142
 1603TIP3    H126224   5.584   1.393  17.229 -2.3095  0.4954 -0.2525
 1603TIP3    H226225   5.666   1.512  17.275 -0.4208 -1.0361  0.4926
 1604TIP3   OH226226   0.572   5.615   4.925 -0.4083 -0.2179 -0.2254
 1604TIP3    H126227   0.660   5.579   4.913 -0.2222 -0.2338  1.0122
 1604TIP3    H226228   0.521   5.541   4.960 -0.1510  0.5134  1.8428
 1605TIP3   OH226229   3.657   0.867  11.027  0.6109  0.9403 -0.0255
 1605TIP3    H126230   3.662   0.962  11.035  1.4640  0.9129 -0.1098
 1605TIP3    H226231   3.577   0.851  10.978  0.5573  1.6218 -0.1732
 1606TIP3   OH226232   5.277   5.451  16.640 -0.3778  0.1262  0.1930
 1606TIP3    H126233   5.254   5.405  16.560 -0.3979  0.7407 -0.1594
 1606TIP3    H226234   5.251   5.542  16.625 -0.8603  0.1559  1.0888
 1607TIP3   OH226235   3.734   4.445  13.794 -0.4271 -0.0646 -0.0215
 1607TIP3    H126236   3.696   4.357  13.803 -0.2516 -0.2468 -1.0410
 1607TIP3    H226237   3.661   4.499  13.763 -0.7248  0.3221  1.2753
 1608TIP3   OH226238   6.354   2.972  12.312 -0.4752 -0.5387 -0.0623
 1608TIP3    H126239   6.279   3.032  12.310  0.0131  0.4002  3.2675
 1608TIP3    H226240   6.331   2.908  12.380  1.2092 -0.9291  0.1845
 1609TIP3   OH226241   3.666   5.822  10.949 -0.2823  0.4998 -0.0189
 1609TIP3    H126242   3.571   5.829  10.956 -0.2742 -0.7588  2.3429
 1609TIP3    H226243   3.696   5.913  10.942 -1.6411  0.9199 -0.7138
 1610TIP3   OH226244   5.852   5.948  15.411  0.0607 -0.5569 -0.5718
 1610TIP3    H126245   5.845   5.868  15.464  0.7567 -0.1064  0.2257
 1610TIP3    H226246   5.945   5.971  15.416  0.1131 -0.4332 -1.8999
 1611TIP3   OH226247   0.071   2.428   1.318 -0.0879 -0.0650 -0.3664
 1611TIP3    H126248  -0.003   2.439   1.258  0.3629 -1.7716 -1.2870
 1611TIP3    H226249   0.143   2.399   1.263  1.3134  1.5639  0.5256
 1612TIP3   OH226250   5.991   3.308   2.861  0.2741  0.2373  0.0330
 1612TIP3    H126251   6.075   3.262   2.870 -0.1835 -0.8342 -1.0341
 1612TIP3    H226252   5.998   3.355   2.779  0.6439  1.9502  0.9971
 1613TIP3   OH226253   1.858   2.034   2.940 -0.1323 -0.4017  0.5465
 1613TIP3    H126254   1.816   1.961   2.895 -0.2385 -0.4925  0.7877
 1613TIP3    H226255   1.894   2.088   2.870  0.6360 -1.0929  0.3777
 1614TIP3   OH226256   6.151   5.210  14.507 -0.2035  0.9429  0.2644
 1614TIP3    H126257   6.176   5.294  14.467  1.6924 -0.6111 -2.1252
 1614TIP3    H226258   6.087   5.173  14.447  0.4004 -0.1366  0.2664
 1615TIP3   OH226259   4.783   4.102  13.723 -1.2726 -0.2999 -0.1516
 1615TIP3    H126260   4.864   4.111  13.673 -1.7156 -1.1492 -1.0762
 1615TIP3    H226261   4.727   4.173  13.691 -0.8563  0.3690  0.5843
 1616TIP3   OH226262   2.284   3.415  14.430  0.0272 -0.2710 -0.3989
 1616TIP3    H126263   2.216   3.449  14.372 -1.0501 -0.3375  0.7853
 1616TIP3    H226264   2.260   3.324  14.445 -0.3797  0.0488  1.0523
 1617TIP3   OH226265   4.101   3.140  16.657 -0.2482 -0.2000 -0.0288
 1617TIP3    H126266   4.172   3.078  16.637 -0.7598 -0.7855 -0.0421
 1617TIP3    H226267   4.025   3.085  16.673 -0.6820  0.4278  0.0860
 1618TIP3   OH226268   5.021   2.867  12.669 -0.0921 -0.3483 -0.4256
 1618TIP3    H126269   5.084   2.914  12.615 -0.4089 -0.8130 -1.2154
 1618TIP3    H226270   5.064   2.784  12.689  0.1079 -0.0914  0.2148
 1619TIP3   OH226271   1.532   3.722   1.539  0.2603  0.6598  0.4454
 1619TIP3    H126272   1.492   3.639   1.562 -2.9462  1.9705  0.0391
 1619TIP3    H226273   1.625   3.710   1.559  0.0453 -3.1565 -0.1693
 1620TIP3   OH226274   1.439   4.573   5.903  0.3033  0.3500 -0.0571
 1620TIP3    H126275   1.463   4.561   5.995 -0.9586 -0.0577  0.2385
 1620TIP3    H226276   1.351   4.609   5.906  0.2179  0.2596 -1.1098
 1621TIP3   OH226277   6.717   5.266   1.091 -0.5212 -0.4678  0.8399
 1621TIP3    H126278   6.652   5.313   1.142 -0.8241 -1.8134  1.7573
 1621TIP3    H226279   6.742   5.192   1.147  0.3418 -1.0685 -0.3004
 1622TIP3   OH226280   1.747   4.912   3.935 -0.3464  0.0329  0.7779
 1622TIP3    H126281   1.832   4.945   3.965 -0.5136  0.8478  0.3873
 1622TIP3    H226282   1.763   4.885   3.844 -0.4785  0.0835  0.7403
 1623TIP3   OH226283   3.071   6.657   6.010  0.4357  0.0299 -0.7604
 1623TIP3    H126284   3.131   6.731   6.003 -2.3000  2.5329 -0.1571
 1623TIP3    H226285   3.108   6.601   6.078  1.0108  2.6747  1.2856
 1624TIP3   OH226286   4.391   1.285   2.207 -0.0063  0.1876 -0.1434
 1624TIP3    H126287   4.428   1.370   2.230  0.8913  0.0549 -1.0841
 1624TIP3    H226288   4.412   1.273   2.115 -0.1309 -1.0556 -0.0252
 1625TIP3   OH226289   2.183   3.085  11.112  0.2586  0.2854 -0.7174
 1625TIP3    H126290   2.142   3.009  11.071  0.7080  0.0311 -0.6989
 1625TIP3    H226291   2.233   3.049  11.185  0.7931  0.5567 -0.9465
 1626TIP3   OH226292   3.191   0.800  15.708 -0.0089 -0.3528 -0.1930
 1626TIP3    H126293   3.282   0.778  15.727 -0.0569 -0.0024  0.4773
 1626TIP3    H226294   3.185   0.798  15.612  1.3545  2.0651 -0.4167
 1627TIP3   OH226295   1.470   2.826  16.823 -0.3822  0.2557 -0.3834
 1627TIP3    H126296   1.565   2.813  16.825 -0.3632  0.3105  1.5129
 1627TIP3    H226297   1.458   2.920  16.840 -0.7751  0.4225 -1.5058
 1628TIP3   OH226298   4.569   1.490   1.019  0.6341  0.2138 -0.0726
 1628TIP3    H126299   4.574   1.431   0.944 -0.8268 -1.3063  0.9522
 1628TIP3    H226300   4.618   1.446   1.088  0.6926  0.8806  0.3270
 1629TIP3   OH226301   5.529   1.132   0.513 -0.8914  0.1173  0.0542
 1629TIP3    H126302   5.581   1.134   0.433 -0.4508 -2.2946  0.2081
 1629TIP3    H226303   5.477   1.051   0.506 -0.9393 -0.0728  2.1258
 1630TIP3   OH226304   5.318   5.223  13.395  0.3679  0.0665 -0.3137
 1630TIP3    H126305   5.264   5.245  13.319 -1.8941  1.2387  1.5478
 1630TIP3    H226306   5.258   5.221  13.469  2.8215  1.3476  1.8997
 1631TIP3   OH226307   1.414   1.412  16.385 -0.0623 -0.3095  0.8822
 1631TIP3    H126308   1.508   1.401  16.374  0.2663  1.3708  1.7509
 1631TIP3    H226309   1.394   1.495  16.342 -1.5421 -1.5752 -1.0641
 1632TIP3   OH226310   0.346   6.431   6.458 -0.1387 -0.5188  0.3036
 1632TIP3    H126311   0.418   6.370   6.475 -0.7578 -1.5585 -0.6550
 1632TIP3    H226312   0.387   6.503   6.410  0.2860 -1.0694 -0.1754
 1633TIP3   OH226313   2.047   5.291   1.949 -0.7940 -0.3181 -0.2720
 1633TIP3    H126314   2.014   5.341   1.875 -0.1953 -2.0487 -1.8042
 1633TIP3    H226315   2.121   5.342   1.982 -0.1282 -0.1956 -1.8545
 1634TIP3   OH226316   5.690   1.302   4.111  0.2581 -0.5878 -0.0004
 1634TIP3    H126317   5.740   1.318   4.191  0.3345 -3.3751  0.5929
 1634TIP3    H226318   5.697   1.384   4.062  1.3617  0.7297  2.2072
 1635TIP3   OH226319   1.507   2.596   4.149  0.0704 -0.0414 -0.0883
 1635TIP3    H126320   1.487   2.589   4.056 -1.6524 -0.4864  0.2851
 1635TIP3    H226321   1.505   2.690   4.168  0.4487  0.0513 -0.4809
 1636TIP3   OH226322   2.866   4.441   1.126  0.1258  0.1406 -0.3245
 1636TIP3    H126323   2.857   4.507   1.058 -0.7273  1.1025  0.6896
 1636TIP3    H226324   2.865   4.358   1.078 -0.3630  0.7935 -1.4989
 1637TIP3   OH226325   2.359   0.413   4.637 -0.4126 -0.2109  0.2631
 1637TIP3    H126326   2.274   0.369   4.636  0.1026 -1.2357 -0.1393
 1637TIP3    H226327   2.338   0.505   4.654 -1.6937 -0.2461 -0.9107
 1638TIP3   OH226328   5.643   4.260   0.669  0.0398 -0.3865 -0.5885
 1638TIP3    H126329   5.619   4.350   0.646  1.4278 -0.0796 -0.9386
 1638TIP3    H226330   5.645   4.259   0.765  1.0223  0.2698 -0.5804
 1639TIP3   OH226331   5.617   0.535  15.228  0.3165 -0.7047  0.6359
 1639TIP3    H126332   5.551   0.557  15.293 -0.7433  1.5785 -1.1096
 1639TIP3    H226333   5.693   0.588  15.252 -0.4300  0.9593 -0.4984
 1640TIP3   OH226334   4.254   2.144   5.394 -0.0396 -0.5665  0.2763
 1640TIP3    H126335   4.322   2.078   5.408  0.4681 -0.1275 -0.1098
 1640TIP3    H226336   4.302   2.226   5.385 -0.6659 -0.1463  0.7198
 1641TIP3   OH226337   1.595   4.865   4.297  0.2346  0.0626 -0.0295
 1641TIP3    H126338   1.668   4.832   4.245  1.8606 -0.0179  2.1827
 1641TIP3    H226339   1.635   4.916   4.366 -1.9294  1.4615  0.3030
 1642TIP3   OH226340   5.596   0.042  12.675  0.5431  0.4552 -0.0498
 1642TIP3    H126341   5.594   0.028  12.580  0.6064  0.0501  0.0066
 1642TIP3    H226342   5.638   0.127  12.686 -0.0386  0.8009 -0.4135
 1643TIP3   OH226343   3.371   1.605   6.375 -0.0977 -0.1875  0.0805
 1643TIP3    H126344   3.430   1.535   6.404  0.4211  1.1462  2.5643
 1643TIP3    H226345   3.283   1.569   6.388  0.1628 -0.3440  1.6368
 1644TIP3   OH226346   3.947   4.393   4.996 -0.1159 -0.4583 -0.4253
 1644TIP3    H126347   4.028   4.380   4.947 -0.9760 -0.6091 -1.8809
 1644TIP3    H226348   3.925   4.485   4.982  0.1476 -0.2377  0.5473
 1645TIP3   OH226349   0.138   1.824  13.164  0.2714 -0.1138  0.9979
 1645TIP3    H126350   0.218   1.848  13.211  0.7048  3.2426 -1.1174
 1645TIP3    H226351   0.090   1.907  13.156 -1.2692 -1.1705 -1.6356
 1646TIP3   OH226352   4.349   1.786  15.053  0.3463  0.4604  0.4620
 1646TIP3    H126353   4.288   1.735  15.105 -3.1185  1.5758 -2.1008
 1646TIP3    H226354   4.420   1.726  15.032 -0.7559 -1.5232  2.0782
 1647TIP3   OH226355   1.497   4.814  11.317  0.0723 -0.4244  0.0664
 1647TIP3    H126356   1.578   4.770  11.345 -0.4918 -1.2131  0.5179
 1647TIP3    H226357   1.448   4.828  11.398 -0.0020  0.5762 -0.1386
 1648TIP3   OH226358   4.855   4.534  16.425 -0.7380 -0.2214  0.4237
 1648TIP3    H126359   4.909   4.581  16.488  0.0554 -0.2292 -0.2413
 1648TIP3    H226360   4.891   4.445  16.425 -0.6520 -0.1869 -0.1392
 1649TIP3   OH226361   4.259   3.122   0.271 -0.0050 -0.6296  0.1068
 1649TIP3    H126362   4.268   3.103   0.364  1.5907  2.1171  0.6556
 1649TIP3    H226363   4.209   3.203   0.268 -1.5863 -1.6073 -1.5863
 1650TIP3   OH226364   4.385   1.062   5.092  0.1075  0.1185 -0.0826
 1650TIP3    H126365   4.291   1.075   5.079 -0.2437 -2.8701 -1.4248
 1650TIP3    H226366   4.393   1.039   5.185 -0.2756  1.5057  0.3216
 1651TIP3   OH226367   4.838   6.779   1.989  0.2804  0.0054 -0.0734
 1651TIP3    H126368   4.860   6.866   1.956  0.9205  0.1514  0.7133
 1651TIP3    H226369   4.909   6.723   1.958  0.7573  0.0962  0.8198
 1652TIP3   OH226370   4.765   4.283   5.447  0.2271 -0.1624  0.3339
 1652TIP3    H126371   4.848   4.254   5.409 -0.2136 -0.7104 -0.2401
 1652TIP3    H226372   4.722   4.332   5.376  1.1794  2.4319  1.4336
 1653TIP3   OH226373   6.608   0.576   4.276  0.0513 -0.4418  0.1187
 1653TIP3    H126374   6.591   0.615   4.362  1.3307  1.8099 -0.5502
 1653TIP3    H226375   6.521   0.548   4.245 -0.6232 -0.0607  1.5774
 1654TIP3   OH226376   0.493   6.314   5.574  0.2915  0.2075  0.1110
 1654TIP3    H126377   0.547   6.236   5.558 -1.4408 -0.8919 -0.7108
 1654TIP3    H226378   0.508   6.335   5.666  0.1624 -1.6372  0.5988
 1655TIP3   OH226379   2.613   4.287  14.644  0.1784  0.1253 -0.2017
 1655TIP3    H126380   2.597   4.333  14.561 -1.0313  1.4134  0.7045
 1655TIP3    H226381   2.702   4.313  14.668 -0.9008  3.2503  0.9474
 1656TIP3   OH226382   2.946   1.467  11.905  0.1336 -0.6198 -0.0496
 1656TIP3    H126383   2.910   1.554  11.920  0.7416 -0.6887  2.2394
 1656TIP3    H226384   2.888   1.427  11.840 -2.7740 -0.0647  2.0402
 1657TIP3   OH226385   0.292   1.097  13.397 -0.4831 -0.2495 -0.1772
 1657TIP3    H126386   0.351   1.166  13.365 -1.0760  0.3840  0.0636
 1657TIP3    H226387   0.261   1.053  13.318 -1.1304  0.6301 -0.4296
 1658TIP3   OH226388   0.160   4.609   2.133  0.1927  0.0022  0.7357
 1658TIP3    H126389   0.150   4.602   2.228  0.2690  1.8396  0.9060
 1658TIP3    H226390   0.074   4.587   2.099  0.3450 -1.3777  1.1534
 1659TIP3   OH226391   3.626   6.510   4.484 -0.2806  0.3227  0.0087
 1659TIP3    H126392   3.532   6.527   4.484 -0.2736  0.4513 -1.1669
 1659TIP3    H226393   3.645   6.481   4.573 -1.8901 -2.1851 -0.3428
 1660TIP3   OH226394   4.330   2.457   5.975  0.2092  0.0575 -0.3181
 1660TIP3    H126395   4.258   2.429   6.031  0.3316  0.1407 -0.1195
 1660TIP3    H226396   4.318   2.407   5.894  0.1929 -0.2711 -0.1149
 1661TIP3   OH226397   3.679   6.454   4.186 -0.8396  0.3267  0.4492
 1661TIP3    H126398   3.727   6.395   4.127 -0.5343  1.3938 -0.3931
 1661TIP3    H226399   3.736   6.462   4.263 -1.1875 -0.9780  0.8841
 1662TIP3   OH226400   2.152   6.752   1.865  0.0683  0.6170  0.1524
 1662TIP3    H126401   2.064   6.750   1.903  0.2741  0.2078  0.6267
 1662TIP3    H226402   2.180   6.660   1.865  1.6094  0.9957  2.6994
 1663TIP3   OH226403   4.967   6.666   5.849 -0.5016  0.1484 -0.6334
 1663TIP3    H126404   5.063   6.666   5.844 -0.3846  0.6873  1.0386
 1663TIP3    H226405   4.944   6.576   5.876 -0.4147  0.1830 -0.4401
 1664TIP3   OH226406   0.889   2.056   1.072  0.1963  0.6283 -0.2917
 1664TIP3    H126407   0.866   2.089   1.159  0.2840  1.0670 -0.4314
 1664TIP3    H226408   0.914   1.965   1.086  0.4530  0.7716  0.1753
 1665TIP3   OH226409   0.746   1.967   1.384  0.3832  0.1342  0.0103
 1665TIP3    H126410   0.684   2.038   1.399  0.9001  0.4936  0.4652
 1665TIP3    H226411   0.775   1.942   1.471  1.9627  0.9359 -0.2611
 1666TIP3   OH226412   0.226   2.424   5.597 -0.6667  0.2123  0.0388
 1666TIP3    H126413   0.276   2.377   5.530 -0.2419 -1.9436  1.7453
 1666TIP3    H226414   0.280   2.500   5.619 -0.3063  0.3533 -1.2731
 1667TIP3   OH226415   0.190   0.522   5.512 -0.3157 -0.5953  0.2167
 1667TIP3    H126416   0.253   0.581   5.554  0.7817 -2.5786  1.4686
 1667TIP3    H226417   0.105   0.551   5.544  0.1501  0.5976  0.4230
 1668TIP3   OH226418   0.015   2.842   2.014 -0.9792 -0.2167  0.2373
 1668TIP3    H126419  -0.024   2.867   1.931  0.0168  0.4948 -0.0341
 1668TIP3    H226420   0.082   2.908   2.030 -1.6438  0.0943  1.9715
 1669TIP3   OH226421   1.030   1.729  16.465 -0.4719 -0.1104 -0.2375
 1669TIP3    H126422   1.105   1.781  16.438 -1.0041  0.7839 -0.0399
 1669TIP3    H226423   0.982   1.714  16.383 -1.2997  1.3357 -0.0634
 1670TIP3   OH226424   6.319   5.430   5.545 -0.6101 -0.2759 -0.4587
 1670TIP3    H126425   6.332   5.339   5.570  1.0791 -0.1751 -0.8969
 1670TIP3    H226426   6.319   5.430   5.450 -3.2486 -0.1228 -0.5531
 1671TIP3   OH226427   2.007   0.801  13.040 -0.1001  0.3468  0.3514
 1671TIP3    H126428   1.991   0.895  13.026  2.6830  1.0380  1.1324
 1671TIP3    H226429   1.963   0.782  13.123  0.6092  1.3706  0.9833
 1672TIP3   OH226430   4.564   5.573  17.146 -0.2013  1.0056 -0.0930
 1672TIP3    H126431   4.647   5.601  17.107 -0.5757  1.0937 -0.8394
 1672TIP3    H226432   4.590   5.509  17.213  0.4657  0.9837 -0.3633
 1673TIP3   OH226433   3.096   0.088  11.284  0.1265 -0.2007 -0.1448
 1673TIP3    H126434   3.053   0.143  11.349 -2.0576 -1.7730 -0.1499
 1673TIP3    H226435   3.057   0.114  11.201  1.0714  0.0623 -0.5243
 1674TIP3   OH226436   0.061   5.516   0.890  0.1687  0.3215  0.2549
 1674TIP3    H126437   0.131   5.487   0.831  1.9329  1.3516  1.7382
 1674TIP3    H226438  -0.017   5.469   0.859  1.0709  0.4989 -2.6130
 1675TIP3   OH226439   2.875   2.824   1.291 -0.1514 -0.1747 -0.3630
 1675TIP3    H126440   2.897   2.788   1.205  0.0045  0.9468 -0.8121
 1675TIP3    H226441   2.855   2.916   1.274 -0.3084  0.0184  0.7803
 1676TIP3   OH226442   4.335   0.118  12.787 -0.5286  0.4995  0.4454
 1676TIP3    H126443   4.392   0.083  12.855 -0.1992  0.7408  0.2922
 1676TIP3    H226444   4.254   0.141  12.833 -1.4994 -2.2020  0.2796
 1677TIP3   OH226445   1.295   3.524   4.092  0.4669  0.3207  0.4169
 1677TIP3    H126446   1.343   3.598   4.055  0.5856  0.6841  1.2794
 1677TIP3    H226447   1.356   3.483   4.153  0.3422 -0.3927  0.0736
 1678TIP3   OH226448   4.438   0.223  13.657  0.8598 -0.3520 -0.4807
 1678TIP3    H126449   4.508   0.263  13.708 -0.7909  0.4836  1.2010
 1678TIP3    H226450   4.387   0.297  13.624 -1.9095 -0.8657  2.2128
 1679TIP3   OH226451   5.334   5.443  16.204 -0.2198 -0.3850  0.0342
 1679TIP3    H126452   5.409   5.500  16.188 -0.5522 -0.0694 -0.4444
 1679TIP3    H226453   5.372   5.360  16.231  0.2735  0.0394  0.6658
 1680TIP3   OH226454   1.255   6.154  16.488 -0.2912  0.3197 -0.3834
 1680TIP3    H126455   1.176   6.103  16.471  0.8403 -1.0604 -1.8903
 1680TIP3    H226456   1.244   6.233  16.436 -0.5297 -0.0481 -0.9006
 1681TIP3   OH226457   5.076   4.705   6.099 -0.0125 -0.6432  0.2034
 1681TIP3    H126458   5.115   4.786   6.066  2.4021 -2.2547 -1.1346
 1681TIP3    H226459   4.982   4.725   6.105  0.4681  2.1692 -0.2307
 1682TIP3   OH226460   5.388   6.083   3.800 -0.5724  0.1395  0.1340
 1682TIP3    H126461   5.420   6.005   3.846 -0.7021  0.2355  0.3902
 1682TIP3    H226462   5.466   6.119   3.758 -0.6226 -0.4631 -0.4892
 1683TIP3   OH226463   6.503   3.442  13.912 -0.0026  0.4887  0.6269
 1683TIP3    H126464   6.594   3.469  13.924  1.2290 -3.0451  0.6462
 1683TIP3    H226465   6.509   3.353  13.876 -3.4865  0.3648 -0.0701
 1684TIP3   OH226466   5.488   2.397   0.442 -0.2019 -0.2857  0.0663
 1684TIP3    H126467   5.539   2.461   0.393 -1.4044  0.2583 -0.5173
 1684TIP3    H226468   5.472   2.326   0.381  0.7837 -0.9911  0.5921
 1685TIP3   OH226469   6.670   4.853  15.324  0.0902 -0.4149 -0.0619
 1685TIP3    H126470   6.600   4.797  15.290 -0.6347  1.0858 -1.1300
 1685TIP3    H226471   6.748   4.797  15.324 -0.6194 -1.4318 -1.0561
 1686TIP3   OH226472   0.792   0.689   4.342 -0.1466 -0.3050 -0.6401
 1686TIP3    H126473   0.747   0.636   4.277 -0.1955 -0.4425 -0.4947
 1686TIP3    H226474   0.868   0.636   4.368 -1.1587 -1.1240  0.8317
 1687TIP3   OH226475   3.483   6.546  11.465 -0.8588  0.1878 -0.0748
 1687TIP3    H126476   3.475   6.638  11.491 -1.1227  0.4277 -0.9732
 1687TIP3    H226477   3.577   6.534  11.448 -0.2839 -0.5417  2.9148
 1688TIP3   OH226478   0.974   1.157  10.801  0.1896 -0.6118  0.8494
 1688TIP3    H126479   0.893   1.140  10.850 -0.8932 -1.8688 -1.2371
 1688TIP3    H226480   0.965   1.246  10.769 -0.4803 -0.8231  0.4421
 1689TIP3   OH226481   2.567   2.024  14.293  0.3257  0.1771  0.1799
 1689TIP3    H126482   2.518   1.955  14.248  2.7408 -0.3850 -1.7991
 1689TIP3    H226483   2.556   2.102  14.238  1.7009  0.0022 -0.3802
 1690TIP3   OH226484   3.491   4.102   1.335  0.1102 -0.5171 -0.0866
 1690TIP3    H126485   3.459   4.018   1.369 -0.5341 -0.7276 -1.1696
 1690TIP3    H226486   3.455   4.167   1.395  0.4554 -0.9988  0.6527
 1691TIP3   OH226487   5.101   0.734  11.596  0.3524 -0.2530  0.5057
 1691TIP3    H126488   5.031   0.670  11.613  0.0704  0.0580  0.5196
 1691TIP3    H226489   5.073   0.813  11.641 -0.0025  0.3324 -0.7018
 1692TIP3   OH226490   4.668   4.488   5.263 -0.1209  0.3968  0.1006
 1692TIP3    H126491   4.738   4.548   5.238  1.0801 -1.0193 -0.0596
 1692TIP3    H226492   4.644   4.444   5.182 -0.1677 -0.1773  0.4231
 1693TIP3   OH226493   6.272   3.300  14.453 -0.1026 -0.0260 -0.2103
 1693TIP3    H126494   6.269   3.284  14.547  0.9240  1.7677  0.1668
 1693TIP3    H226495   6.220   3.379  14.441  0.5658  0.2990 -1.0172
 1694TIP3   OH226496   5.342   1.602  11.795 -0.3271 -0.3732 -0.1115
 1694TIP3    H126497   5.255   1.569  11.771 -1.4260  1.8822  0.4582
 1694TIP3    H226498   5.325   1.660  11.870  1.6372  0.3244 -0.1537
 1695TIP3   OH226499   1.036   3.261  15.972  0.6225 -0.4628 -0.6673
 1695TIP3    H126500   1.025   3.349  16.007  0.1841 -0.0374 -1.8293
 1695TIP3    H226501   1.119   3.263  15.925  0.9471 -0.8710 -0.1165
 1696TIP3   OH226502   3.903   2.332   3.634 -0.5133 -0.4444 -0.2182
 1696TIP3    H126503   3.854   2.401   3.589  0.0540 -0.0773 -0.2833
 1696TIP3    H226504   3.882   2.253   3.585 -2.2183 -0.5693  0.6562
 1697TIP3   OH226505   3.158   4.468   3.215 -0.6017  0.0961 -0.9136
 1697TIP3    H126506   3.167   4.379   3.181 -0.6542  0.1122 -0.9698
 1697TIP3    H226507   3.098   4.460   3.289  0.9171 -0.2402  0.3334
 1698TIP3   OH226508   4.243   0.513  12.160  0.5873  0.1781 -0.5500
 1698TIP3    H126509   4.289   0.547  12.083 -1.1449 -0.8972 -2.1425
 1698TIP3    H226510   4.157   0.556  12.157  0.9136  1.0642  1.5395
 1699TIP3   OH226511   5.648   2.140   5.978 -0.1112 -0.2114 -0.2059
 1699TIP3    H126512   5.653   2.228   5.942 -0.2767 -0.2053 -0.2108
 1699TIP3    H226513   5.739   2.109   5.977  0.1808  0.5192  1.1878
 1700TIP3   OH226514   4.087   2.153   2.326  0.3754  0.0028 -0.1067
 1700TIP3    H126515   4.007   2.115   2.289  0.5904 -0.2388 -0.3354
 1700TIP3    H226516   4.106   2.229   2.270  0.5247 -0.1756 -0.3010
 1701TIP3   OH226517   0.516   3.249  17.163 -0.2497  0.4785  0.5755
 1701TIP3    H126518   0.512   3.236  17.258  0.6381  1.0775  0.6990
 1701TIP3    H226519   0.424   3.246  17.135 -0.6469  1.6356  1.6385
 1702TIP3   OH226520   2.470   6.294  12.553 -0.1482  0.2984 -0.0572
 1702TIP3    H126521   2.390   6.304  12.605 -0.3134  0.1417 -0.2817
 1702TIP3    H226522   2.527   6.364  12.584  0.1067 -0.3563  0.9942
 1703TIP3   OH226523   2.873   5.427  12.588 -0.0457  0.3318 -0.6206
 1703TIP3    H126524   2.887   5.370  12.512 -2.4329 -0.0587 -0.8497
 1703TIP3    H226525   2.875   5.368  12.663  0.6375  0.4585 -0.5343
 1704TIP3   OH226526   1.524   4.169   1.761 -0.9623  0.5716 -0.1092
 1704TIP3    H126527   1.619   4.176   1.747 -0.7519 -0.3126  0.7324
 1704TIP3    H226528   1.499   4.090   1.712 -0.8482 -0.4768  1.4562
 1705TIP3   OH226529   2.795   4.345   4.702  0.1932  0.5892 -0.6883
 1705TIP3    H126530   2.719   4.348   4.644 -1.0591 -0.3486  0.8291
 1705TIP3    H226531   2.849   4.274   4.668 -0.4618  0.1433 -0.8130
 1706TIP3   OH226532   2.404   5.011   6.533 -0.0422 -0.4627  0.0551
 1706TIP3    H126533   2.444   5.051   6.610 -0.4323  0.1299 -0.0401
 1706TIP3    H226534   2.319   5.054   6.526  0.1618 -0.2077 -0.9569
 1707TIP3   OH226535   1.402   4.771   0.227  0.5502  0.3656  0.2810
 1707TIP3    H126536   1.476   4.796   0.283  0.5977  0.2908  0.2518
 1707TIP3    H226537   1.327   4.818   0.264  0.5007  0.0053  0.6515
 1708TIP3   OH226538   4.913   2.134   0.725 -0.2916  0.4029 -0.2506
 1708TIP3    H126539   4.878   2.196   0.788 -0.3717  0.8020 -0.6811
 1708TIP3    H226540   4.858   2.144   0.647  1.2029  1.6050 -1.2301
 1709TIP3   OH226541   6.624   5.853  11.218  0.0520  0.3674  0.2630
 1709TIP3    H126542   6.655   5.850  11.127  0.9970  1.3701  0.5345
 1709TIP3    H226543   6.703   5.858  11.270 -0.5045  0.4066  1.1199
 1710TIP3   OH226544   4.338   6.091   6.015  0.9166 -0.0167 -0.4835
 1710TIP3    H126545   4.330   6.127   5.927 -0.7312  0.9983  0.0279
 1710TIP3    H226546   4.378   6.160   6.067  0.8123 -0.1691 -0.1932
 1711TIP3   OH226547   2.773   1.435   4.430  0.4376  0.1716  0.3738
 1711TIP3    H126548   2.678   1.442   4.443  0.2977 -2.1037  1.0733
 1711TIP3    H226549   2.795   1.347   4.462  2.3424 -0.4601 -2.2950
 1712TIP3   OH226550   2.978   6.566  16.598 -0.0682 -0.2112 -0.4545
 1712TIP3    H126551   2.934   6.504  16.657 -1.0942  0.8746 -0.0292
 1712TIP3    H226552   3.068   6.536  16.595 -0.5093 -1.6399 -0.1510
 1713TIP3   OH226553   4.598   6.393   0.679  0.0573 -0.0400 -0.1305
 1713TIP3    H126554   4.521   6.338   0.694  0.0540  0.0648  0.2636
 1713TIP3    H226555   4.570   6.481   0.705  0.8195 -0.2939  1.7386
 1714TIP3   OH226556   6.006   1.504   0.912  0.1725 -0.1877  0.0176
 1714TIP3    H126557   5.923   1.492   0.866  0.4822 -0.5311 -0.4577
 1714TIP3    H226558   5.983   1.556   0.989 -0.4035  0.1318 -0.3621
 1715TIP3   OH226559   4.931   5.549   4.502 -0.3676  0.2787 -0.1884
 1715TIP3    H126560   4.988   5.475   4.522 -0.0064  0.9408  1.3620
 1715TIP3    H226561   4.959   5.578   4.415 -1.9677 -2.6892 -1.8729
 1716TIP3   OH226562   6.697   2.390   4.168  0.1486 -0.5400  0.4382
 1716TIP3    H126563   6.729   2.346   4.089  2.4468  1.8424 -0.1246
 1716TIP3    H226564   6.762   2.367   4.235  0.0339  0.0591  0.7548
 1717TIP3   OH226565   6.331   4.964   0.482  0.2549  0.3167 -0.8368
 1717TIP3    H126566   6.398   4.912   0.526  1.1419  1.0049 -1.3313
 1717TIP3    H226567   6.319   5.040   0.538  0.6795  0.7162 -1.2758
 1718TIP3   OH226568   2.854   5.620   5.283 -0.2573  0.0046 -0.0127
 1718TIP3    H126569   2.840   5.552   5.217 -1.9244  0.4921 -0.1944
 1718TIP3    H226570   2.829   5.702   5.240 -0.3389  0.4616  0.8850
 1719TIP3   OH226571   3.335   3.416  10.824  0.1550  0.4901  0.1308
 1719TIP3    H126572   3.391   3.442  10.897  1.1876 -1.8944  0.2967
 1719TIP3    H226573   3.284   3.494  10.804  1.9867  2.1199  1.4089
 1720TIP3   OH226574   0.735   3.491  12.507 -0.3283  0.0074 -0.0833
 1720TIP3    H126575   0.701   3.421  12.450  1.3950  0.6848 -2.0912
 1720TIP3    H226576   0.823   3.461  12.530 -0.7367  0.0915  1.7298
 1721TIP3   OH226577   2.745   1.796   6.453  0.4050 -0.3807 -0.0038
 1721TIP3    H126578   2.696   1.871   6.487  0.5403  0.1344 -0.8825
 1721TIP3    H226579   2.746   1.733   6.524 -0.1709  0.2438  0.5757
 1722TIP3   OH226580   0.074   1.939  15.162 -0.2842  0.1834 -0.0427
 1722TIP3    H126581   0.119   1.857  15.183  0.3753  0.4786 -0.2533
 1722TIP3    H226582   0.043   1.972  15.246 -1.8506 -1.0045 -0.1220
 1723TIP3   OH226583   0.592   5.163   2.898  0.3357 -0.0787  0.8868
 1723TIP3    H126584   0.547   5.157   2.982  1.8080  0.3145  1.7364
 1723TIP3    H226585   0.685   5.162   2.920  0.7536  1.0826 -0.6584
 1724TIP3   OH226586   4.605   0.001   3.550  0.1691 -0.3791  0.0513
 1724TIP3    H126587   4.650  -0.082   3.534 -0.6440 -0.8495  0.1462
 1724TIP3    H226588   4.521  -0.008   3.505 -0.0716  0.2516  0.3650
 1725TIP3   OH226589   5.488   2.386   1.966 -0.1074 -0.2085 -0.5418
 1725TIP3    H126590   5.464   2.410   1.876  0.9379  2.2293 -0.2520
 1725TIP3    H226591   5.483   2.468   2.015  1.9957 -0.9042  1.0033
 1726TIP3   OH226592   0.562   2.567  15.649 -0.1537  0.0969  0.5216
 1726TIP3    H126593   0.502   2.502  15.612 -1.0269  1.3326 -0.2649
 1726TIP3    H226594   0.621   2.515  15.703 -1.6988 -1.2006  1.0462
 1727TIP3   OH226595   5.179   0.084  14.828  0.0036  0.3309 -0.5363
 1727TIP3    H126596   5.263   0.041  14.815  1.1073  2.3840 -0.5668
 1727TIP3    H226597   5.158   0.122  14.742 -0.2311  1.0591 -0.1641
 1728TIP3   OH226598   5.311   6.474  13.368  0.2984 -0.2689  0.7313
 1728TIP3    H126599   5.354   6.528  13.435  1.1894  1.6001 -1.2308
 1728TIP3    H226600   5.355   6.497  13.287 -0.6570 -2.5725 -0.5257
 1729TIP3   OH226601   5.169   4.084  17.054 -0.1205 -0.2094  0.1068
 1729TIP3    H126602   5.188   4.175  17.076  1.3337 -1.0292  2.6081
 1729TIP3    H226603   5.242   4.035  17.091 -2.1307 -2.6325  1.1337
 1730TIP3   OH226604   1.182   1.015  11.623 -0.0512  0.2537 -0.1694
 1730TIP3    H126605   1.238   0.944  11.591  1.5387  1.9398 -1.4163
 1730TIP3    H226606   1.115   1.025  11.555 -3.0057 -2.7439  2.0146
 1731TIP3   OH226607   3.927   5.034  15.688  0.0006 -0.4626  0.4935
 1731TIP3    H126608   3.901   5.029  15.780 -0.5689 -1.7231  0.2763
 1731TIP3    H226609   3.889   4.956  15.648  2.4617 -1.3656 -0.2631
 1732TIP3   OH226610   5.911   2.569   6.659 -0.1345 -0.7110  0.1687
 1732TIP3    H126611   5.939   2.501   6.720 -2.2665 -0.3008  1.7091
 1732TIP3    H226612   5.993   2.605   6.625  1.2684 -0.4425  3.4096
 1733TIP3   OH226613   0.354   2.511  16.436 -0.3486  0.1842 -0.0110
 1733TIP3    H126614   0.412   2.510  16.359 -0.1711  2.5492 -0.0070
 1733TIP3    H226615   0.291   2.441  16.420  1.6007 -1.5099 -0.7268
 1734TIP3   OH226616   1.302   3.547   0.574  0.5659 -0.3731  0.3116
 1734TIP3    H126617   1.223   3.600   0.562  0.3397 -0.5103  1.1485
 1734TIP3    H226618   1.307   3.495   0.494  0.1936  0.1334 -0.0512
 1735TIP3   OH226619   6.273   0.593  12.331  0.4315  0.1650  0.2531
 1735TIP3    H126620   6.301   0.675  12.290 -2.5318  0.2475 -1.9466
 1735TIP3    H226621   6.252   0.536  12.257 -0.2856 -1.5773  1.7297
 1736TIP3   OH226622   4.900   1.853   3.690  0.5403 -0.1070 -0.2152
 1736TIP3    H126623   4.820   1.901   3.713  2.2395  1.4742  3.1434
 1736TIP3    H226624   4.883   1.763   3.718 -0.1224  0.1722  0.3087
 1737TIP3   OH226625   2.288   6.278  15.988  0.0700 -0.0064 -0.2587
 1737TIP3    H126626   2.282   6.221  16.064 -0.3620  1.6675  1.0295
 1737TIP3    H226627   2.248   6.360  16.016 -1.0002  0.3680 -2.6181
 1738TIP3   OH226628   4.669   5.303  12.087  0.2405 -0.5472  0.4230
 1738TIP3    H126629   4.755   5.262  12.086  0.8530  0.3659  3.9108
 1738TIP3    H226630   4.646   5.310  12.179 -2.5213  1.4317 -0.2761
 1739TIP3   OH226631   1.215   0.995   4.510 -0.1695 -0.2859  0.1224
 1739TIP3    H126632   1.301   0.968   4.478  0.5040  0.4542  1.2663
 1739TIP3    H226633   1.154   0.938   4.463  0.9460 -0.9935 -0.5240
 1740TIP3   OH226634   2.440   5.793  17.085 -0.5813 -0.4701 -0.3827
 1740TIP3    H126635   2.370   5.731  17.108 -1.8075  2.0268  3.5930
 1740TIP3    H226636   2.428   5.808  16.991 -2.5477 -3.3891 -0.7387
 1741TIP3   OH226637   0.893   5.792  17.174 -0.4003  0.0521 -0.0350
 1741TIP3    H126638   0.860   5.814  17.087  1.6753  0.1538 -0.8441
 1741TIP3    H226639   0.896   5.696  17.175 -2.6356 -0.0700  0.8462
 1742TIP3   OH226640   1.002   0.490   0.259  0.0633  0.1814 -0.2749
 1742TIP3    H126641   0.966   0.405   0.284  1.8160 -0.6756 -0.5124
 1742TIP3    H226642   0.962   0.509   0.174 -1.7356  0.5152  0.5877
 1743TIP3   OH226643   6.472   4.004   4.180 -0.6035 -0.4825  0.4544
 1743TIP3    H126644   6.567   4.014   4.185 -0.4535 -0.8618 -1.0405
 1743TIP3    H226645   6.447   4.051   4.101 -1.1844 -3.1594 -1.0672
 1744TIP3   OH226646   5.545   6.355   0.962  0.0545 -0.0738  0.2263
 1744TIP3    H126647   5.450   6.352   0.949  0.1402  0.0750 -0.4529
 1744TIP3    H226648   5.556   6.404   1.044 -0.4707 -0.4514  0.5239
 1745TIP3   OH226649   5.515   3.031  14.054  0.1409 -0.7227 -0.4592
 1745TIP3    H126650   5.495   3.044  14.146  1.3305 -1.2015 -0.1148
 1745TIP3    H226651   5.442   3.072  14.007  0.8004  1.8545  0.6165
 1746TIP3   OH226652   4.892   2.546  10.622 -0.4252 -0.6908  0.1136
 1746TIP3    H126653   4.839   2.557  10.701  1.4314  1.5812  1.1952
 1746TIP3    H226654   4.970   2.600  10.638  0.1833 -0.3712 -3.1520
 1747TIP3   OH226655   6.206   5.155   5.575 -0.4436 -0.4200 -0.5412
 1747TIP3    H126656   6.220   5.144   5.669 -2.5901 -1.4562 -0.2726
 1747TIP3    H226657   6.111   5.164   5.566 -0.2565  0.0255 -2.5840
 1748TIP3   OH226658   2.502   2.568   4.324 -0.3590 -0.4950 -0.3076
 1748TIP3    H126659   2.527   2.547   4.234  1.4173  0.0943  0.0257
 1748TIP3    H226660   2.519   2.487   4.373 -0.0277 -0.3911 -0.2524
 1749TIP3   OH226661   3.510   3.227  11.224 -0.5659  0.0893 -0.0276
 1749TIP3    H126662   3.600   3.221  11.257 -0.9172  0.8676  1.1333
 1749TIP3    H226663   3.519   3.260  11.134  0.3245 -0.3558 -0.1135
 1750TIP3   OH226664   4.951   6.467   2.996  0.1118 -0.3862  0.7597
 1750TIP3    H126665   4.909   6.503   2.918 -1.8758 -0.8636  1.5355
 1750TIP3    H226666   4.904   6.506   3.069  3.3757  1.8304  1.9129
 1751TIP3   OH226667   6.612   0.769  16.671 -0.1655 -0.1381 -0.2501
 1751TIP3    H126668   6.552   0.832  16.631  2.6001  2.3123 -0.8624
 1751TIP3    H226669   6.655   0.818  16.741  1.4319 -1.6283 -0.1202
 1752TIP3   OH226670   2.821   2.266   1.645  0.4552  0.0564 -0.0270
 1752TIP3    H126671   2.743   2.211   1.657  1.2002 -1.0035  0.0753
 1752TIP3    H226672   2.808   2.339   1.705 -0.8850  0.3807 -0.6676
 1753TIP3   OH226673   4.414   1.381   4.860 -0.4352  0.1784 -0.3005
 1753TIP3    H126674   4.370   1.409   4.941  0.5363  1.0860 -0.0588
 1753TIP3    H226675   4.396   1.451   4.798 -1.7049 -0.8118 -1.0992
 1754TIP3   OH226676   5.901   3.888  12.828  0.8168 -0.4949  0.1799
 1754TIP3    H126677   5.932   3.855  12.912  0.3657  0.5712  0.7795
 1754TIP3    H226678   5.931   3.823  12.764 -0.9611 -2.6857  1.4045
 1755TIP3   OH226679   1.410   5.959   2.860  0.2622 -0.0853  1.0156
 1755TIP3    H126680   1.341   5.972   2.794  0.5893 -0.4295  0.5981
 1755TIP3    H226681   1.423   5.864   2.861  1.1367  0.0265  0.6760
 1756TIP3   OH226682   0.621   3.241   4.318  0.3094 -0.1418  0.3112
 1756TIP3    H126683   0.659   3.236   4.406 -0.8324  0.1519  0.8363
 1756TIP3    H226684   0.688   3.285   4.266  1.0617 -0.4488  0.9952
 1757TIP3   OH226685   1.948   4.731  17.048 -0.0106  0.3183  0.1113
 1757TIP3    H126686   2.009   4.703  16.979  0.6542  0.2575  0.7108
 1757TIP3    H226687   1.871   4.676  17.035 -0.1309  0.7028 -0.9394
 1758TIP3   OH226688   5.203   4.624  16.382 -0.4608 -0.3772 -0.4164
 1758TIP3    H126689   5.229   4.681  16.455 -0.0291  0.4151 -1.1736
 1758TIP3    H226690   5.137   4.567  16.420  1.3781 -1.5611  1.2296
 1759TIP3   OH226691   3.274   5.109  12.713 -0.3632 -0.4435  0.2390
 1759TIP3    H126692   3.256   5.052  12.788 -1.8301  0.0875  0.3227
 1759TIP3    H226693   3.224   5.070  12.641  1.0845 -0.9873 -0.5189
 1760TIP3   OH226694   5.727   2.604   1.718  0.3785  0.2646  0.2283
 1760TIP3    H126695   5.720   2.540   1.789  0.2562 -0.1927 -0.1940
 1760TIP3    H226696   5.812   2.588   1.679 -0.8740 -1.8389 -1.9339
 1761TIP3   OH226697   2.651   0.429  16.843  0.8108  0.4098 -0.7783
 1761TIP3    H126698   2.585   0.461  16.905  0.2419 -0.6139 -0.8424
 1761TIP3    H226699   2.709   0.504  16.830  0.5275  0.8720  0.4330
 1762TIP3   OH226700   4.182   5.416   3.326 -0.6444  0.1545 -0.3694
 1762TIP3    H126701   4.210   5.388   3.413  1.6006  0.8603 -0.7969
 1762TIP3    H226702   4.170   5.334   3.277 -1.9744 -0.2490  0.5633
 1763TIP3   OH226703   3.948   2.539  15.901  0.2034 -0.0159  0.4674
 1763TIP3    H126704   3.874   2.516  15.956 -0.1549 -0.3633 -0.1471
 1763TIP3    H226705   3.996   2.605  15.951 -1.3452  1.3459  0.2485
 1764TIP3   OH226706   5.827   3.679   0.678  0.1992  0.2388  0.0485
 1764TIP3    H126707   5.848   3.623   0.604 -0.9271  0.5476 -0.5347
 1764TIP3    H226708   5.907   3.682   0.730  0.6207 -1.0111 -0.4820
 1765TIP3   OH226709   3.434   4.217   1.679  0.2361 -0.4746  0.7946
 1765TIP3    H126710   3.370   4.277   1.640 -0.0278 -0.6914  0.8892
 1765TIP3    H226711   3.519   4.257   1.661  0.1331 -0.6456 -0.1377
 1766TIP3   OH226712   5.101   5.082  10.180 -0.0372  0.0945 -0.4264
 1766TIP3    H126713   5.124   4.998  10.219  2.6403  0.6159 -0.7155
 1766TIP3    H226714   5.049   5.060  10.103 -2.6711 -1.0653  1.5185
 1767TIP3   OH226715   1.556   4.850   2.450  0.0177  0.1395  0.3646
 1767TIP3    H126716   1.581   4.915   2.384  2.0848  0.2346  1.1926
 1767TIP3    H226717   1.501   4.788   2.402  0.3370  0.9506 -1.1121
 1768TIP3   OH226718   2.044   1.366   3.187  0.1846  0.4477  0.4912
 1768TIP3    H126719   2.115   1.422   3.155 -1.0576  0.7163 -2.0995
 1768TIP3    H226720   1.986   1.425   3.236 -1.7342  1.9500 -3.1835
 1769TIP3   OH226721   2.237   4.742   0.454 -0.2047 -0.2360  0.0159
 1769TIP3    H126722   2.229   4.809   0.521  0.2184  0.7646 -0.8972
 1769TIP3    H226723   2.304   4.776   0.394  1.2874 -2.2513  0.4277
 1770TIP3   OH226724   5.946   1.244   3.272  0.1202  0.2148  0.0884
 1770TIP3    H126725   5.936   1.303   3.347 -1.0038  0.8588 -0.5460
 1770TIP3    H226726   5.870   1.262   3.217  0.2341 -1.1910 -0.5739
 1771TIP3   OH226727   4.129   0.843   1.741  0.0553  0.2572 -0.2731
 1771TIP3    H126728   4.120   0.883   1.655 -1.5440 -1.1520 -0.8319
 1771TIP3    H226729   4.071   0.895   1.797  0.6550  0.8249 -0.1738
 1772TIP3   OH226730   2.936   5.072   0.518 -0.1479 -0.5038  0.0535
 1772TIP3    H126731   3.007   5.096   0.458  1.5488 -4.0085  0.4032
 1772TIP3    H226732   2.856   5.088   0.468  0.8296  2.5575 -0.7671
 1773TIP3   OH226733   6.644   0.430  13.391 -0.5632 -0.2310 -0.0048
 1773TIP3    H126734   6.724   0.461  13.435  0.2077 -1.8122 -0.2035
 1773TIP3    H226735   6.676   0.387  13.312 -1.3896 -2.5752  0.8359
 1774TIP3   OH226736   0.619   5.565  11.507 -0.0972  0.3238 -0.2315
 1774TIP3    H126737   0.627   5.544  11.413 -1.0065  0.5591 -0.3743
 1774TIP3    H226738   0.533   5.608  11.514 -1.8400 -3.0265  1.2729
 1775TIP3   OH226739   1.377   1.276  16.113 -0.0619 -0.3873  0.1988
 1775TIP3    H126740   1.435   1.349  16.096  0.9826 -1.6688 -2.2552
 1775TIP3    H226741   1.422   1.223  16.179  0.9622 -0.6618 -0.6917
 1776TIP3   OH226742   6.656   0.566   3.725  0.4177  0.4098  0.2148
 1776TIP3    H126743   6.574   0.563   3.674  0.0497  0.2745  0.8109
 1776TIP3    H226744   6.650   0.649   3.773 -0.3429 -0.5569  1.8584
 1777TIP3   OH226745   3.000   2.625   2.446 -0.2129 -0.5169  0.4693
 1777TIP3    H126746   3.038   2.700   2.400 -0.1221 -1.1198 -0.4670
 1777TIP3    H226747   2.958   2.663   2.523  1.8400  0.2472  1.2833
 1778TIP3   OH226748   6.374   2.132   3.151 -0.0112  0.5654  0.2054
 1778TIP3    H126749   6.453   2.097   3.110  0.5931  0.9811  0.9965
 1778TIP3    H226750   6.320   2.161   3.077 -0.1874 -1.2577 -0.4466
 1779TIP3   OH226751   0.725   5.775   5.672 -0.7757  0.4305 -0.3091
 1779TIP3    H126752   0.678   5.745   5.595 -1.1427  1.4894 -0.5165
 1779TIP3    H226753   0.743   5.695   5.722  0.5150 -0.4234 -2.0360
 1780TIP3   OH226754   1.482   4.052  11.786  0.4174 -0.1395  0.4818
 1780TIP3    H126755   1.532   4.030  11.865  0.1984 -1.1009  0.3617
 1780TIP3    H226756   1.395   4.075  11.818  0.3025 -0.6172  0.5183
 1781TIP3   OH226757   4.489   2.953  13.051 -0.6710 -0.3788 -0.2580
 1781TIP3    H126758   4.556   2.885  13.048  1.0878  0.9184  3.6381
 1781TIP3    H226759   4.416   2.914  13.098  0.0469  0.0991  1.3198
 1782TIP3   OH226760   1.910   0.375   4.278 -0.1114  0.3514  0.2657
 1782TIP3    H126761   1.997   0.361   4.316  0.2689 -0.4068 -0.8278
 1782TIP3    H226762   1.927   0.417   4.194 -1.0356  3.6305  1.5610
 1783TIP3   OH226763   4.762   3.864   5.075 -0.2075 -0.2090  0.0802
 1783TIP3    H126764   4.846   3.825   5.101 -0.3161 -0.4877  0.0143
 1783TIP3    H226765   4.738   3.920   5.149  0.1191  0.0004  0.0285
 1784TIP3   OH226766   3.356   1.787   3.791  0.3425 -0.3250 -0.6155
 1784TIP3    H126767   3.448   1.799   3.814  0.3077 -0.0862 -0.5902
 1784TIP3    H226768   3.326   1.875   3.766 -0.2196 -0.1338  0.6464
 1785TIP3   OH226769   2.004   0.066   1.621  0.2758  0.6396  0.2395
 1785TIP3    H126770   2.073   0.058   1.687  0.0980  0.2198  0.3793
 1785TIP3    H226771   2.026  -0.001   1.556 -0.6158 -0.2823  0.8538
 1786TIP3   OH226772   5.444   0.326  16.843  0.6245 -0.2999  0.3497
 1786TIP3    H126773   5.379   0.364  16.901  1.0265 -1.5518  1.6611
 1786TIP3    H226774   5.498   0.271  16.899  1.2164 -1.3293 -1.1530
 1787TIP3   OH226775   1.719   6.652   5.430  0.6753  1.0663  0.2511
 1787TIP3    H126776   1.803   6.627   5.391  0.9143 -0.2845  1.5171
 1787TIP3    H226777   1.657   6.649   5.357  1.0170 -1.8365 -0.0508
 1788TIP3   OH226778   0.162   3.740  12.800  0.5513 -0.1556 -0.2657
 1788TIP3    H126779   0.224   3.668  12.816  1.1762  0.4332  0.0274
 1788TIP3    H226780   0.209   3.798  12.740 -0.1485 -0.2310 -0.9048
 1789TIP3   OH226781   6.049   0.613   4.853 -0.3846 -0.3214 -0.6147
 1789TIP3    H126782   6.142   0.634   4.868 -0.3816 -0.6656 -0.1199
 1789TIP3    H226783   6.042   0.520   4.875 -0.9574 -0.1699 -0.1449
 1790TIP3   OH226784   0.740   5.036  15.667 -0.2558  0.0584 -0.5938
 1790TIP3    H126785   0.822   5.008  15.707 -0.3952 -1.8128 -1.4875
 1790TIP3    H226786   0.764   5.059  15.577 -0.6477 -0.1347 -0.7472
 1791TIP3   OH226787   2.496   1.052   5.149  0.2432 -0.0919 -0.5491
 1791TIP3    H126788   2.558   1.091   5.211  2.4418  0.1214 -2.7471
 1791TIP3    H226789   2.513   0.958   5.155 -1.1966 -0.3040  0.7827
 1792TIP3   OH226790   0.186   6.722   6.248 -0.3931  0.3354  0.3550
 1792TIP3    H126791   0.187   6.792   6.314  1.2414  0.9649 -0.2819
 1792TIP3    H226792   0.266   6.672   6.265 -0.5457 -0.1984 -0.4415
 1793TIP3   OH226793   1.129   1.493  11.992 -0.8307 -0.3339 -0.0098
 1793TIP3    H126794   1.088   1.421  11.944  0.8396 -1.1440 -0.3101
 1793TIP3    H226795   1.205   1.453  12.034  0.0858  1.2326 -0.0972
 1794TIP3   OH226796   2.041   0.798  14.652  0.0514  0.1022 -0.1555
 1794TIP3    H126797   2.034   0.894  14.644  1.4221  0.3298  0.9109
 1794TIP3    H226798   2.072   0.770  14.566  1.2952  0.8484  0.0142
 1795TIP3   OH226799   4.648   0.713   5.477 -0.2628  0.3296 -0.1469
 1795TIP3    H126800   4.649   0.802   5.440 -1.8884  0.3998 -0.0843
 1795TIP3    H226801   4.680   0.658   5.406 -2.7504  0.5475 -1.5644
 1796TIP3   OH226802   4.549   5.863  15.776 -0.2259 -0.1876 -0.3817
 1796TIP3    H126803   4.611   5.873  15.704  1.2584  2.0134  1.0644
 1796TIP3    H226804   4.480   5.926  15.757  0.0973  0.2967  0.0399
 1797TIP3   OH226805   6.060   1.802  16.637  0.2440 -0.4939  0.6234
 1797TIP3    H126806   6.134   1.820  16.579 -0.2959 -0.5348 -0.1103
 1797TIP3    H226807   6.027   1.716  16.608 -0.6740 -0.0449  0.2781
 1798TIP3   OH226808   2.097   3.246   3.555 -0.2228 -0.5597  0.0286
 1798TIP3    H126809   2.154   3.319   3.580 -0.1622 -0.9110  0.9772
 1798TIP3    H226810   2.156   3.184   3.513  0.2200 -1.1351  1.4438
 1799TIP3   OH226811   4.948   4.004   3.353  0.0511  0.4903  0.1790
 1799TIP3    H126812   4.874   3.943   3.354 -0.2128  0.7597 -1.2124
 1799TIP3    H226813   4.958   4.028   3.261 -0.1969  2.9753  0.7424
 1800TIP3   OH226814   0.687   1.624  12.933 -0.0599  0.4102  0.0126
 1800TIP3    H126815   0.723   1.708  12.961  0.6978  0.4650 -1.0650
 1800TIP3    H226816   0.764   1.572  12.908 -0.6971  1.1316 -4.0252
 1801TIP3   OH226817   6.070   4.041   3.979 -0.0875 -0.6840  0.0778
 1801TIP3    H126818   6.079   4.047   4.074 -0.7705 -2.6030  0.3101
 1801TIP3    H226819   6.066   3.947   3.961 -0.4913 -0.3576 -1.8076
 1802TIP3   OH226820   3.130   3.567  11.923 -0.0643 -0.1043 -0.2744
 1802TIP3    H126821   3.140   3.662  11.933 -0.7946 -0.2601  2.5940
 1802TIP3    H226822   3.043   3.557  11.883  0.3972  0.4166 -1.4632
 1803TIP3   OH226823   4.629   5.059   3.203  0.2307 -0.0580  0.6759
 1803TIP3    H126824   4.634   5.152   3.180 -2.5340  0.5927  2.3127
 1803TIP3    H226825   4.671   5.053   3.289 -1.6310  0.1905  1.6500
 1804TIP3   OH226826   4.654   3.938   5.482  0.6152  0.3214 -0.4614
 1804TIP3    H126827   4.727   3.917   5.540 -0.6010 -0.9995  0.6331
 1804TIP3    H226828   4.636   3.856   5.436  1.1963  1.1984 -2.3647
 1805TIP3   OH226829   6.402   2.162   0.999 -0.7445  0.4365 -0.7850
 1805TIP3    H126830   6.425   2.071   1.018 -0.0233  0.4378 -1.6047
 1805TIP3    H226831   6.481   2.211   1.019 -1.4369  1.0286  0.5993
 1806TIP3   OH226832   3.298   4.228   5.754 -0.5361  0.3186  0.0058
 1806TIP3    H126833   3.319   4.314   5.789 -1.0550  1.5684 -2.5580
 1806TIP3    H226834   3.236   4.191   5.818  0.5638  1.3251  1.7249
 1807TIP3   OH226835   4.669   0.284  11.361 -0.4188  0.5561 -0.5941
 1807TIP3    H126836   4.759   0.264  11.385 -0.6427  1.0401  0.7426
 1807TIP3    H226837   4.631   0.200  11.336 -0.0639  0.0602  0.4776
 1808TIP3   OH226838   4.669   2.930  12.184 -0.4688  0.2594 -1.0397
 1808TIP3    H126839   4.606   2.946  12.253  1.3305 -0.4924  0.8896
 1808TIP3    H226840   4.732   3.002  12.191  0.7089 -0.7686 -0.6739
 1809TIP3   OH226841   3.918   2.707  12.247  0.2603 -0.0184 -0.4089
 1809TIP3    H126842   3.886   2.673  12.331  2.5991 -2.8009 -0.4925
 1809TIP3    H226843   3.988   2.768  12.270  0.1596  0.0676 -0.3298
 1810TIP3   OH226844   5.327   5.707   3.721  0.5114  0.1379 -0.0628
 1810TIP3    H126845   5.252   5.713   3.780  0.7430  0.3381  0.2136
 1810TIP3    H226846   5.321   5.620   3.683 -0.7540  0.6930 -1.2498
 1811TIP3   OH226847   0.910   0.132   1.253  0.0210  0.4615 -0.4641
 1811TIP3    H126848   0.850   0.093   1.317  1.3719 -0.6546  0.1799
 1811TIP3    H226849   0.985   0.160   1.305  1.5556 -1.2812 -1.6187
 1812TIP3   OH226850   1.045   2.175   5.305 -0.5915 -0.0406 -0.1457
 1812TIP3    H126851   1.095   2.093   5.303 -0.1492  0.2355 -0.4579
 1812TIP3    H226852   1.098   2.237   5.254 -0.5381  0.6640  0.7544
 1813TIP3   OH226853   3.885   6.269   5.431  0.0071 -0.5498 -0.6946
 1813TIP3    H126854   3.830   6.291   5.506  2.2334 -0.0090  0.9070
 1813TIP3    H226855   3.906   6.177   5.442  1.3640 -0.1707  0.1284
 1814TIP3   OH226856   6.243   3.242   2.905  0.1212 -0.0044 -0.2141
 1814TIP3    H126857   6.290   3.189   2.840  0.5431 -1.4152  1.1642
 1814TIP3    H226858   6.296   3.321   2.913 -0.0811  0.3179 -1.7572
 1815TIP3   OH226859   3.761   2.810   2.850 -0.5570  0.6485  0.1325
 1815TIP3    H126860   3.735   2.870   2.779  1.1554  2.3877  0.8764
 1815TIP3    H226861   3.680   2.792   2.897 -1.2590  1.7470 -0.6120
 1816TIP3   OH226862   0.415   3.422  11.085 -0.2085 -0.3046 -0.2199
 1816TIP3    H126863   0.491   3.476  11.064  0.6878 -0.9862  1.0745
 1816TIP3    H226864   0.351   3.442  11.017  0.5120  1.5077 -0.4183
 1817TIP3   OH226865   0.432   1.553   5.645  0.2087  0.4314 -0.2017
 1817TIP3    H126866   0.395   1.642   5.647 -0.8455  0.0044  1.5441
 1817TIP3    H226867   0.363   1.500   5.606 -0.0760  0.0304  0.8227
 1818TIP3   OH226868   5.116   1.558  14.740  0.1498 -0.3473 -0.1302
 1818TIP3    H126869   5.188   1.497  14.723 -0.1441 -0.7331 -0.0031
 1818TIP3    H226870   5.142   1.604  14.820  0.4694 -0.1532 -0.3439
 1819TIP3   OH226871   1.078   0.926   3.643 -0.0604  0.0594  0.1943
 1819TIP3    H126872   1.027   0.903   3.566  0.1448 -0.2934  0.1616
 1819TIP3    H226873   1.162   0.881   3.631  0.6568  1.4516 -0.2526
 1820TIP3   OH226874   0.383   2.634   2.740 -0.0012 -0.2690 -0.3117
 1820TIP3    H126875   0.429   2.604   2.819 -0.1126  0.2240 -0.0552
 1820TIP3    H226876   0.305   2.578   2.736 -1.1345  1.1100  1.1630
 1821TIP3   OH226877   2.338   0.110  15.037 -0.2737 -0.5790  0.1924
 1821TIP3    H126878   2.412   0.120  15.097  0.0985 -0.2629 -0.3103
 1821TIP3    H226879   2.302   0.198  15.028 -1.8787 -1.0026  1.8655
 1822TIP3   OH226880   1.188   1.913  14.143 -0.1043 -0.7896 -0.2352
 1822TIP3    H126881   1.244   1.976  14.099  1.3428 -0.7259  1.5545
 1822TIP3    H226882   1.220   1.828  14.113  1.2345 -0.7643  1.0056
 1823TIP3   OH226883   4.590   4.589   0.902 -0.4609 -0.1389 -0.0017
 1823TIP3    H126884   4.516   4.640   0.936 -0.2549 -0.8418  1.5876
 1823TIP3    H226885   4.550   4.516   0.855 -0.7892 -0.6051  0.9888
 1824TIP3   OH226886   6.351   2.043  10.990  0.2397  0.3695 -0.7748
 1824TIP3    H126887   6.269   2.079  10.956  0.1748  1.1967  0.1950
 1824TIP3    H226888   6.395   2.118  11.030  0.3352 -0.5084  0.8687
 1825TIP3   OH226889   6.377   6.582   1.000 -0.5677  0.4075  0.1699
 1825TIP3    H126890   6.452   6.604   1.054  0.2984 -0.6637 -0.5426
 1825TIP3    H226891   6.353   6.664   0.957 -0.8668  1.1224  1.6590
 1826TIP3   OH226892   2.749   4.720   2.404  0.6141 -0.7480  0.4630
 1826TIP3    H126893   2.735   4.668   2.325  1.0774  0.9312 -0.7745
 1826TIP3    H226894   2.775   4.806   2.372  0.6302  0.0404  2.4537
 1827TIP3   OH226895   4.947   3.507  11.406 -0.2797  0.1104  0.5869
 1827TIP3    H126896   4.876   3.488  11.467 -0.8063 -0.8713 -0.2947
 1827TIP3    H226897   5.005   3.566  11.454 -1.7158  0.9926  1.3122
 1828TIP3   OH226898   0.767   1.268   5.965 -0.4825 -0.2329 -0.1112
 1828TIP3    H126899   0.843   1.214   5.983 -0.8029 -0.8442 -0.5643
 1828TIP3    H226900   0.804   1.351   5.933 -0.0044 -0.4961 -0.2505
 1829TIP3   OH226901   0.814   0.598   3.063  0.6233 -0.9049 -0.6766
 1829TIP3    H126902   0.730   0.643   3.067  1.3533  0.5279 -1.0437
 1829TIP3    H226903   0.792   0.506   3.078 -1.0144 -0.5733 -0.8460
 1830TIP3   OH226904   4.968   2.505  14.268  0.3454 -0.2837  0.7447
 1830TIP3    H126905   5.029   2.561  14.219 -0.2615  0.4420  0.8044
 1830TIP3    H226906   5.024   2.441  14.312  0.9730 -0.4286 -0.2135
 1831TIP3   OH226907   3.442   0.029   4.523  0.3567  0.4531 -0.2567
 1831TIP3    H126908   3.519   0.054   4.574  0.6433 -1.1449  0.1424
 1831TIP3    H226909   3.476  -0.023   4.450 -0.3456 -0.9262  0.3479
 1832TIP3   OH226910   2.454   0.987   3.001 -0.0819 -0.5557  0.4867
 1832TIP3    H126911   2.392   0.923   3.034 -0.6627  0.3913  1.2895
 1832TIP3    H226912   2.537   0.939   2.994 -0.5668 -1.4543  0.8110
 1833TIP3   OH226913   2.576   4.449   4.528 -0.3240  0.4730  0.1040
 1833TIP3    H126914   2.482   4.466   4.523 -0.2094  1.5315  0.9697
 1833TIP3    H226915   2.600   4.420   4.441 -1.4880 -0.0170 -0.0768
 1834TIP3   OH226916   0.944   4.628   5.551  0.1927  0.3815 -1.0566
 1834TIP3    H126917   0.916   4.561   5.489 -1.4487  0.0691 -0.0292
 1834TIP3    H226918   0.935   4.711   5.503 -1.6964  0.2073 -1.0679
 1835TIP3   OH226919   1.334   2.587   2.189 -0.2865 -0.0899  0.3809
 1835TIP3    H126920   1.391   2.532   2.242 -1.2587  1.1179  2.7913
 1835TIP3    H226921   1.339   2.548   2.101  2.3259 -1.4462  1.0125
 1836TIP3   OH226922   2.275   2.131   6.563 -0.0319  0.3386 -0.3122
 1836TIP3    H126923   2.202   2.076   6.535  2.1392 -1.9608 -1.8857
 1836TIP3    H226924   2.248   2.220   6.542 -2.8839 -0.2472  0.4400
 1837TIP3   OH226925   1.091   0.717   1.986 -0.5046 -0.0308 -0.1706
 1837TIP3    H126926   1.049   0.792   1.944  0.8752  0.6817 -0.3356
 1837TIP3    H226927   1.078   0.731   2.080 -1.7889 -0.5461 -0.2429
 1838TIP3   OH226928   2.905   3.111   5.950 -0.2100  0.0894 -0.4478
 1838TIP3    H126929   2.880   3.096   6.042  0.2221 -0.9222 -0.4782
 1838TIP3    H226930   2.919   3.205   5.944 -1.7064  0.3899  0.1451
 1839TIP3   OH226931   2.143   5.613  15.087 -0.4129 -0.2124 -0.5070
 1839TIP3    H126932   2.113   5.567  15.166  1.3177  0.0643  0.3754
 1839TIP3    H226933   2.063   5.648  15.048 -1.3751 -0.7494  0.8753
 1840TIP3   OH226934   2.359   2.874  16.053 -0.3969 -0.6993  0.0644
 1840TIP3    H126935   2.429   2.809  16.052  0.5776  0.3335 -0.8023
 1840TIP3    H226936   2.288   2.832  16.101  0.0645 -2.5468 -0.7902
 1841TIP3   OH226937   2.728   3.722  14.207  0.7146  0.4400  0.0103
 1841TIP3    H126938   2.704   3.657  14.140 -0.8532  0.1392  0.8091
 1841TIP3    H226939   2.747   3.669  14.285 -1.4435  0.9106  0.9263
 1842TIP3   OH226940   4.699   4.226  14.492  0.4347  0.0448  0.0795
 1842TIP3    H126941   4.690   4.320  14.504 -0.8108 -0.1809  1.1383
 1842TIP3    H226942   4.709   4.214  14.397 -0.1403  1.1789 -0.1301
 1843TIP3   OH226943   0.531   5.003   4.811  0.1688  0.0674  0.2677
 1843TIP3    H126944   0.499   5.081   4.766 -1.4821  0.1862  1.5756
 1843TIP3    H226945   0.626   5.006   4.798  0.1372  2.1828  0.1243
 1844TIP3   OH226946   5.257   4.196   2.023 -0.6711 -0.0241  0.0006
 1844TIP3    H126947   5.187   4.131   2.021 -2.2212  1.5018 -3.1879
 1844TIP3    H226948   5.331   4.154   1.979 -0.5465 -0.6650  0.8067
 1845TIP3   OH226949   1.573   2.932   0.188 -0.0121 -0.2497 -0.3804
 1845TIP3    H126950   1.493   2.889   0.219 -0.3305  0.4625 -0.1809
 1845TIP3    H226951   1.578   3.013   0.238  0.8405 -0.2795 -0.4003
 1846TIP3   OH226952   4.637   6.197   5.372  0.1663 -0.0473 -0.8618
 1846TIP3    H126953   4.696   6.249   5.427 -1.9822  1.1967  0.4320
 1846TIP3    H226954   4.649   6.107   5.403  0.8615  0.2798 -0.1402
 1847TIP3   OH226955   6.079   0.401   5.741  0.3052 -0.1553 -0.2740
 1847TIP3    H126956   6.125   0.481   5.765 -0.0179 -0.0808  0.0997
 1847TIP3    H226957   5.988   0.417   5.765  0.6374 -1.6196  2.3589
 1848TIP3   OH226958   4.646   0.668   2.559 -0.3261 -0.3361  0.2890
 1848TIP3    H126959   4.706   0.740   2.579  0.3619 -0.9682  0.5629
 1848TIP3    H226960   4.560   0.700   2.587 -0.2894  0.9153 -0.9057
 1849TIP3   OH226961   3.321   2.687   0.816 -0.1259  0.2962  0.9383
 1849TIP3    H126962   3.415   2.687   0.832 -0.1258 -0.7644  1.0220
 1849TIP3    H226963   3.292   2.601   0.846 -0.6309 -0.6312 -1.9213
 1850TIP3   OH226964   0.887   2.142   3.912 -0.4323 -0.6789 -0.2846
 1850TIP3    H126965   0.861   2.230   3.886  3.2080  1.2132  1.7159
 1850TIP3    H226966   0.845   2.129   3.997 -0.2483 -0.5077 -0.1685
 1851TIP3   OH226967   3.327   1.657  15.640 -0.7424 -0.0969  0.0541
 1851TIP3    H126968   3.268   1.617  15.703 -1.6772 -0.3681 -0.9562
 1851TIP3    H226969   3.414   1.629  15.667 -1.0902  0.0123  1.3607
 1852TIP3   OH226970   6.575   1.985  15.164 -0.6904  0.0401 -0.5114
 1852TIP3    H126971   6.651   1.952  15.116  1.5577  0.4177  2.4928
 1852TIP3    H226972   6.577   2.079  15.151  1.3738  0.4435  2.0234
 1853TIP3   OH226973   5.450   5.841   2.278 -0.2159 -0.6431 -0.2027
 1853TIP3    H126974   5.359   5.816   2.263 -0.0074 -1.0309 -0.8561
 1853TIP3    H226975   5.458   5.847   2.373 -0.3383 -2.9165  0.0129
 1854TIP3   OH226976   4.945   1.608   6.244 -0.0485  0.3252 -0.6398
 1854TIP3    H126977   5.028   1.574   6.277  0.6647  1.7992 -0.8338
 1854TIP3    H226978   4.879   1.548   6.280  0.6544  1.6544  3.3963
 1855TIP3   OH226979   3.708   4.547  16.495 -0.6280 -0.3473  0.2974
 1855TIP3    H126980   3.680   4.515  16.409  1.3996 -2.0783  0.1909
 1855TIP3    H226981   3.703   4.642  16.488  0.0852 -0.4155 -1.9683
 1856TIP3   OH226982   5.476   3.055  15.272 -0.5315  0.2361 -0.3317
 1856TIP3    H126983   5.385   3.084  15.278 -0.8737 -0.8548 -0.0410
 1856TIP3    H226984   5.526   3.136  15.265 -1.4446  0.8914  0.4419
 1857TIP3   OH226985   5.964   5.436   6.231 -0.4585  0.0568 -0.2755
 1857TIP3    H126986   6.028   5.439   6.160  0.0237  0.5346  0.1752
 1857TIP3    H226987   5.960   5.526   6.263 -0.2820 -0.2611  0.6492
 1858TIP3   OH226988   6.105   0.761  15.710  0.2317  0.0132 -0.1819
 1858TIP3    H126989   6.133   0.847  15.678  0.2910 -0.6066 -1.8880
 1858TIP3    H226990   6.091   0.709  15.631  0.5031 -1.6588  0.8246
 1859TIP3   OH226991   5.964   6.096  14.540  0.4705 -0.0774  0.2584
 1859TIP3    H126992   5.965   6.074  14.447  2.6506 -2.4087  0.7368
 1859TIP3    H226993   5.930   6.018  14.583  0.4660  0.5928  1.5279
 1860TIP3   OH226994   4.006   3.204   3.832 -0.2227 -0.3063 -0.1915
 1860TIP3    H126995   4.089   3.228   3.791 -1.2306  1.0850 -1.5372
 1860TIP3    H226996   4.029   3.185   3.923  1.4697  0.7208 -0.3595
 1861TIP3   OH226997   3.748   3.827   2.885  0.1583 -0.0253 -0.3307
 1861TIP3    H126998   3.714   3.739   2.868 -1.2182  0.0715  1.5415
 1861TIP3    H226999   3.834   3.813   2.923 -0.7049 -0.7343  1.5089
 1862TIP3   OH227000   4.795   5.973   5.701  0.2191  0.0691  0.7127
 1862TIP3    H127001   4.796   5.916   5.778  0.2668 -0.5044  0.2935
 1862TIP3    H227002   4.845   6.050   5.727  0.0912 -0.0468  1.3106
 1863TIP3   OH227003   6.701   2.056   3.780 -0.0431  0.4097 -0.4666
 1863TIP3    H127004   6.761   1.993   3.821  0.5006  1.8282  1.0702
 1863TIP3    H227005   6.743   2.141   3.796 -2.5374  1.4802  0.8348
 1864TIP3   OH227006   1.204   5.063   4.640 -0.3334  0.5102  0.2722
 1864TIP3    H127007   1.152   4.989   4.608 -0.2948 -0.7166  2.7922
 1864TIP3    H227008   1.283   5.023   4.676  0.6159  1.9910 -0.0605
 1865TIP3   OH227009   5.415   5.368   3.391  0.8952  0.8619 -0.3506
 1865TIP3    H127010   5.425   5.374   3.486  1.5672  1.7999 -0.4592
 1865TIP3    H227011   5.342   5.426   3.370 -0.1895 -0.4520 -0.2759
 1866TIP3   OH227012   2.353   1.340   6.100  0.4421  0.3231  0.0135
 1866TIP3    H127013   2.332   1.277   6.031  2.2884  0.1790 -0.4610
 1866TIP3    H227014   2.268   1.359   6.141 -0.3163 -1.6371 -0.5134
 1867TIP3   OH227015   5.310   4.826   3.408  0.0998 -0.1743  0.1709
 1867TIP3    H127016   5.370   4.900   3.409  2.0588 -1.6468  2.5444
 1867TIP3    H227017   5.342   4.770   3.338 -0.3471  0.3946 -0.5024
 1868TIP3   OH227018   2.041   0.865   6.603  0.0465 -0.1217 -0.3098
 1868TIP3    H127019   2.047   0.783   6.652  0.6887  0.8820  1.4048
 1868TIP3    H227020   2.112   0.919   6.638 -1.0344  1.5635 -0.5762
 1869TIP3   OH227021   2.984   3.696  13.896 -0.4819  0.0319 -0.0733
 1869TIP3    H127022   2.928   3.692  13.819  0.6088 -1.6423 -0.8298
 1869TIP3    H227023   2.942   3.761  13.953 -1.4662  1.1025 -1.9277
 1870TIP3   OH227024   5.790   6.687  10.970 -0.1463 -0.0446  0.2864
 1870TIP3    H127025   5.696   6.697  10.988 -0.8258 -1.9887 -1.6703
 1870TIP3    H227026   5.833   6.704  11.054 -2.4824 -2.0411  2.0288
 1871TIP3   OH227027   3.478   1.074   5.406 -0.6591 -0.3962  0.6702
 1871TIP3    H127028   3.424   1.097   5.481 -2.0365  0.5193 -0.5528
 1871TIP3    H227029   3.548   1.140   5.405 -2.0164  1.1147 -0.1961
 1872TIP3   OH227030   5.997   5.847  11.255  0.1427  0.1877  0.1074
 1872TIP3    H127031   6.057   5.774  11.267  0.2212  0.2338 -0.0036
 1872TIP3    H227032   6.024   5.887  11.172  0.2740  0.5079  0.3036
 1873TIP3   OH227033   0.535   2.485  11.506  0.0901 -0.1474 -0.3669
 1873TIP3    H127034   0.485   2.553  11.550  1.6487  1.4277 -0.9051
 1873TIP3    H227035   0.548   2.417  11.573 -0.7950  0.4506  0.4278
 1874TIP3   OH227036   2.929   1.832   2.877 -0.0036  0.3700 -0.1432
 1874TIP3    H127037   2.967   1.884   2.948 -1.0159  0.9438  0.0041
 1874TIP3    H227038   2.937   1.741   2.908 -0.3759  0.6100  0.6886
 1875TIP3   OH227039   0.830   3.736  15.572 -0.1744 -1.1203  0.0225
 1875TIP3    H127040   0.881   3.704  15.498  0.5075  0.8245 -0.4054
 1875TIP3    H227041   0.788   3.658  15.608  0.4547 -2.2797 -1.6532
 1876TIP3   OH227042   6.254   3.548  16.813 -0.0051 -0.5021 -0.1865
 1876TIP3    H127043   6.185   3.482  16.806 -1.7323  1.3122 -1.3227
 1876TIP3    H227044   6.307   3.520  16.887 -1.5567 -2.3513  0.2934
 1877TIP3   OH227045   0.550   3.642  15.819  0.2858  0.4313  0.5381
 1877TIP3    H127046   0.521   3.644  15.910 -1.3331  0.0308  0.0760
 1877TIP3    H227047   0.619   3.576  15.817 -1.0516 -1.0585  1.1470
 1878TIP3   OH227048   3.656   2.958   5.846  0.0184  0.2824 -0.2659
 1878TIP3    H127049   3.705   2.879   5.821 -0.0993 -0.0902  0.6598
 1878TIP3    H227050   3.722   3.026   5.856  0.8290 -0.8342  3.6896
 1879TIP3   OH227051   2.759   0.767   5.521  0.8553 -0.1827 -0.0988
 1879TIP3    H127052   2.786   0.792   5.609  0.5657 -1.8550  0.4987
 1879TIP3    H227053   2.823   0.810   5.464  0.5399  1.6385  0.8239
 1880TIP3   OH227054   0.341   2.098   5.711 -0.2323  0.1629 -0.6918
 1880TIP3    H127055   0.292   2.069   5.634 -1.0502 -0.3648  0.0036
 1880TIP3    H227056   0.433   2.093   5.684 -0.3839 -1.9822 -1.0187
 1881TIP3   OH227057   5.725   1.385   3.095  0.1244  0.3169  0.1250
 1881TIP3    H127058   5.645   1.388   3.148 -0.8025  1.2372 -1.2898
 1881TIP3    H227059   5.695   1.395   3.005  1.7500 -0.4407 -0.5387
 1882TIP3   OH227060   5.673   6.447  17.191  0.4118 -0.3872 -0.0445
 1882TIP3    H127061   5.618   6.370  17.205  0.9115 -0.9176 -0.9338
 1882TIP3    H227062   5.644   6.482  17.107 -1.5480  1.9009  1.4504
 1883TIP3   OH227063   3.028   2.865  14.797 -0.1794  0.2209 -0.8980
 1883TIP3    H127064   2.988   2.874  14.711  1.1998  0.9495 -1.5067
 1883TIP3    H227065   2.970   2.806  14.845 -0.1493 -1.5144 -2.8483
 1884TIP3   OH227066   0.848   5.324   3.298 -0.2736 -0.6675  0.1725
 1884TIP3    H127067   0.940   5.302   3.302 -0.5035 -1.4782  1.6794
 1884TIP3    H227068   0.812   5.294   3.382 -1.3210  2.2517  0.8903
 1885TIP3   OH227069   6.710   6.531   0.999  0.0849 -0.0918 -0.0411
 1885TIP3    H127070   6.723   6.436   0.992  1.8201  0.0992  0.0167
 1885TIP3    H227071   6.694   6.545   1.092 -1.5214 -0.4457 -0.2444
 1886TIP3   OH227072   5.989   1.822   0.079  0.2004 -0.2029 -0.3314
 1886TIP3    H127073   6.062   1.780   0.126 -0.7612 -1.0819  0.4179
 1886TIP3    H227074   5.938   1.749   0.044 -0.6749  0.3901 -0.3018
 1887TIP3   OH227075   1.647   3.239  16.671  0.2415 -0.0658  0.0295
 1887TIP3    H127076   1.711   3.258  16.739 -0.0460 -1.1318  0.6112
 1887TIP3    H227077   1.630   3.324  16.631 -0.0983  0.7140  1.7385
 1888TIP3   OH227078   5.146   3.514   1.113 -0.1866  0.2965 -0.3138
 1888TIP3    H127079   5.197   3.438   1.141  0.1719  1.1184  1.4243
 1888TIP3    H227080   5.132   3.500   1.019  0.9481 -1.2703 -0.3025
 1889TIP3   OH227081   1.536   0.156   3.165 -0.2230  0.7080 -0.2411
 1889TIP3    H127082   1.488   0.213   3.225 -1.0114 -0.0645 -0.1231
 1889TIP3    H227083   1.483   0.156   3.085 -0.7782 -0.6405  0.1017
 1890TIP3   OH227084   0.258   6.438  14.462 -0.0576 -0.6868  0.0532
 1890TIP3    H127085   0.226   6.488  14.537  1.7967 -1.9824  1.8035
 1890TIP3    H227086   0.211   6.355  14.467  0.2621 -0.8759 -0.0599
 1891TIP3   OH227087   4.818   1.061  16.870  0.1724 -0.2068 -0.2867
 1891TIP3    H127088   4.791   1.039  16.781  1.5525  0.4368 -0.8907
 1891TIP3    H227089   4.797   1.154  16.879  1.1570  0.0311 -0.3855
 1892TIP3   OH227090   2.903   6.631  13.888  0.1291 -0.0392  0.5687
 1892TIP3    H127091   2.901   6.723  13.914  1.1122 -0.1972  1.2766
 1892TIP3    H227092   2.975   6.594  13.939  0.1070 -1.0731 -0.1300
 1893TIP3   OH227093   5.670   1.600   2.255  0.4448 -0.2000 -0.4888
 1893TIP3    H127094   5.697   1.666   2.319  2.0696 -0.7665 -0.5363
 1893TIP3    H227095   5.700   1.517   2.293 -1.9278 -1.0205 -0.2172
 1894TIP3   OH227096   4.014   4.445  11.742  0.0369  0.3536  0.0896
 1894TIP3    H127097   4.109   4.455  11.745 -0.0588  1.1279  0.5845
 1894TIP3    H227098   3.980   4.534  11.741 -0.6285  0.1895 -2.8005
 1895TIP3   OH227099   2.445   2.082   3.672 -0.3238 -0.4010 -0.1896
 1895TIP3    H127100   2.453   2.121   3.759 -0.4200 -0.2214 -0.2594
 1895TIP3    H227101   2.464   2.154   3.612  0.4858 -0.7057 -0.3102
 1896TIP3   OH227102   2.227   1.985  12.476  0.2093  0.2089 -0.5212
 1896TIP3    H127103   2.241   1.892  12.461  0.0335  0.0490  0.2475
 1896TIP3    H227104   2.158   2.010  12.414  1.6848  0.3112 -2.1810
 1897TIP3   OH227105   1.146   1.633   4.322  0.2150  0.4935  0.0310
 1897TIP3    H127106   1.092   1.582   4.382 -1.8411  2.1325 -0.3166
 1897TIP3    H227107   1.137   1.723   4.352 -1.6195  1.5130 -3.0922
 1898TIP3   OH227108   6.729   1.138  15.946  0.3498 -0.5213  0.3946
 1898TIP3    H127109   6.715   1.231  15.933 -1.5703 -0.9531 -1.0346
 1898TIP3    H227110   6.716   1.124  16.040 -1.3027  0.3579  0.3203
 1899TIP3   OH227111   1.043   5.972   2.415  0.1476 -0.4295  0.5386
 1899TIP3    H127112   0.976   6.036   2.441 -1.2680 -1.2206 -0.9636
 1899TIP3    H227113   1.080   5.941   2.498  2.5423  3.8707  1.3655
 1900TIP3   OH227114   3.912   0.545  13.498  0.2728 -0.1230 -0.0001
 1900TIP3    H127115   3.912   0.528  13.592 -0.6971  0.8161  0.1953
 1900TIP3    H227116   3.820   0.536  13.472  0.1948  1.5914 -0.4524
 1901TIP3   OH227117   3.217   3.453   0.989 -0.5447  0.6435  0.1828
 1901TIP3    H127118   3.253   3.367   0.968  0.7372  0.9050  1.1640
 1901TIP3    H227119   3.187   3.488   0.905  1.6869  0.4602 -0.7547
 1902TIP3   OH227120   4.957   5.912  11.479  0.0296  0.0576  0.0963
 1902TIP3    H127121   5.002   5.912  11.564 -0.2378 -1.5666  0.2856
 1902TIP3    H227122   4.942   5.819  11.461  0.3760  0.3394 -1.8992
 1903TIP3   OH227123   3.373   5.568   4.379  0.2055 -0.0218  0.5444
 1903TIP3    H127124   3.423   5.504   4.430  1.9505  0.3435 -0.6183
 1903TIP3    H227125   3.339   5.518   4.305 -0.5313 -0.1077  0.9350
 1904TIP3   OH227126   3.599   5.299  15.622 -0.4134 -0.2829  0.0032
 1904TIP3    H127127   3.617   5.245  15.545 -2.9492 -0.1348 -0.7930
 1904TIP3    H227128   3.605   5.239  15.696  0.9802 -0.6651 -0.3901
 1905TIP3   OH227129   3.838   6.137  14.262 -0.1191  0.1819 -0.5327
 1905TIP3    H127130   3.802   6.066  14.209 -0.1509  0.5647 -1.0280
 1905TIP3    H227131   3.909   6.097  14.311  1.6813  0.3635 -2.8297
 1906TIP3   OH227132   5.983   4.641  13.461 -0.3682 -0.0823 -0.6087
 1906TIP3    H127133   6.057   4.701  13.471 -1.1597  0.9298 -0.6436
 1906TIP3    H227134   5.943   4.667  13.379  0.1475 -1.6792 -1.4040
 1907TIP3   OH227135   4.352   2.735  15.457  0.5169  0.1464 -0.8521
 1907TIP3    H127136   4.334   2.808  15.516 -3.0809  0.6336 -2.3159
 1907TIP3    H227137   4.375   2.776  15.374  0.8735 -0.4542 -1.0596
 1908TIP3   OH227138   3.635   4.994  15.124  0.2586  0.3089 -0.1919
 1908TIP3    H127139   3.557   4.992  15.069 -0.7220  2.3992  0.9607
 1908TIP3    H227140   3.706   5.021  15.065  0.1606 -1.5593 -1.2398
 1909TIP3   OH227141   2.063   5.972  16.409  0.3218  0.5431  0.4863
 1909TIP3    H127142   2.021   6.026  16.476  0.2203 -1.2884  1.9908
 1909TIP3    H227143   1.992   5.917  16.375  0.5487  0.8590 -0.5618
 1910TIP3   OH227144   6.022   3.563   2.144  0.1997  0.1083 -0.4153
 1910TIP3    H127145   6.020   3.580   2.050 -3.6685  1.9282 -0.2183
 1910TIP3    H227146   6.001   3.470   2.152  0.8609 -0.1305 -1.3213
 1911TIP3   OH227147   3.535   6.417  15.112  0.1923 -0.2237  0.7568
 1911TIP3    H127148   3.487   6.346  15.069 -0.3563 -0.1930  1.2999
 1911TIP3    H227149   3.594   6.450  15.045  0.9659 -1.6491  0.6864
 1912TIP3   OH227150   5.616   4.167   5.833 -0.8772  0.5297 -0.1501
 1912TIP3    H127151   5.539   4.172   5.776 -0.3032 -0.3087 -1.0181
 1912TIP3    H227152   5.608   4.083   5.877  0.3135 -0.2592 -1.3937
 1913TIP3   OH227153   0.944   3.853   1.855  0.1346  0.1556 -0.9993
 1913TIP3    H127154   0.921   3.921   1.791  0.3098  1.4904  0.3078
 1913TIP3    H227155   1.017   3.891   1.905  0.2365 -0.9986 -0.2298
 1914TIP3   OH227156   5.792   1.809   0.918  0.0309 -0.2940 -0.2712
 1914TIP3    H127157   5.743   1.885   0.949 -0.4574 -1.3413  1.6500
 1914TIP3    H227158   5.761   1.736   0.972  1.5518 -1.5810 -1.0431
 1915TIP3   OH227159   1.965   4.214   1.036  0.0143 -0.1206 -0.5229
 1915TIP3    H127160   2.049   4.169   1.026  0.2286 -0.0218  0.6857
 1915TIP3    H227161   1.976   4.295   0.985  1.0731  0.4126  0.4853
 1916TIP3   OH227162   4.054   1.920  11.640 -0.2462  0.1698  0.0884
 1916TIP3    H127163   4.041   1.975  11.718 -0.3376  1.0793 -0.5464
 1916TIP3    H227164   4.146   1.893  11.646  0.2975  1.7464 -0.3961
 1917TIP3   OH227165   3.416   0.751   1.918 -0.2484  0.1242  0.0867
 1917TIP3    H127166   3.473   0.706   1.981  0.1290  0.2138 -0.1852
 1917TIP3    H227167   3.473   0.768   1.843 -1.3795 -2.7151 -1.5957
 1918TIP3   OH227168   3.940   5.838  14.862  0.2034 -0.2715 -0.0431
 1918TIP3    H127169   3.853   5.857  14.827 -0.6664 -1.8771  1.1197
 1918TIP3    H227170   3.930   5.847  14.957  1.0443 -1.4306  0.1732
 1919TIP3   OH227171   3.922   0.505  11.028  0.3903 -0.3104 -0.2791
 1919TIP3    H127172   3.979   0.429  11.030  4.2454  2.0925 -3.4293
 1919TIP3    H227173   3.962   0.568  11.088 -0.4132  0.5772 -0.6338
 1920TIP3   OH227174   4.773   1.502  12.193 -0.5153 -0.4933 -0.8061
 1920TIP3    H127175   4.789   1.491  12.286  1.4490  2.1802 -0.6938
 1920TIP3    H227176   4.826   1.435  12.151  0.3681 -0.3060 -0.0219
 1921TIP3   OH227177   1.158   2.065   6.451  0.1569  0.3109 -0.4666
 1921TIP3    H127178   1.213   2.074   6.374  1.3666  2.2638  0.5416
 1921TIP3    H227179   1.194   2.127   6.514 -1.6893 -0.1409  1.1528
 1922TIP3   OH227180   6.625   3.313  16.832  0.2091 -0.4231  0.4495
 1922TIP3    H127181   6.642   3.367  16.756  1.3801 -0.0019  0.9818
 1922TIP3    H227182   6.616   3.224  16.797  1.1277 -0.2936 -0.1394
 1923TIP3   OH227183   0.354   1.075   2.842 -0.2512  0.1924  0.1223
 1923TIP3    H127184   0.294   1.150   2.850 -0.8430 -0.2008 -0.5527
 1923TIP3    H227185   0.402   1.074   2.925 -1.6216  0.1445  0.9420
 1924TIP3   OH227186   4.270   5.182   1.086  0.0696 -0.0620  0.2047
 1924TIP3    H127187   4.212   5.245   1.127 -0.4436 -0.2184 -0.2739
 1924TIP3    H227188   4.252   5.100   1.131  0.5709  0.0748  0.6686
 1925TIP3   OH227189   4.282   2.373   2.919 -0.2847  0.2307  0.1085
 1925TIP3    H127190   4.349   2.356   2.853 -0.2788  0.0972  0.1490
 1925TIP3    H227191   4.290   2.301   2.981 -0.1890  0.4416  0.3400
 1926TIP3   OH227192   3.367   5.827   2.903 -0.5138 -0.0793 -0.3218
 1926TIP3    H127193   3.327   5.814   2.816 -0.2809  1.6058 -0.7128
 1926TIP3    H227194   3.343   5.916   2.927 -0.0552 -0.3147  1.0961
 1927TIP3   OH227195   0.397   4.776   2.351 -0.1517  0.3416  0.2637
 1927TIP3    H127196   0.409   4.798   2.259 -0.2214  0.3633  0.2600
 1927TIP3    H227197   0.366   4.685   2.350 -0.0154  0.2944  0.2725
 1928TIP3   OH227198   2.828   2.967   0.537  0.3918 -0.3616  0.3846
 1928TIP3    H127199   2.744   2.969   0.491  0.6642 -0.9410 -0.1662
 1928TIP3    H227200   2.804   2.962   0.630 -0.1683  0.6746  0.3113
 1929TIP3   OH227201   4.460   0.287   1.258  0.0515 -0.1982  0.2258
 1929TIP3    H127202   4.496   0.217   1.204 -0.4471  0.0927 -0.5132
 1929TIP3    H227203   4.527   0.304   1.324  1.3084  0.3770 -1.1315
 1930TIP3   OH227204   4.424   6.087  15.672  0.2280 -0.5896  0.3310
 1930TIP3    H127205   4.414   6.165  15.727 -1.2626  0.8484 -1.8053
 1930TIP3    H227206   4.499   6.106  15.616 -0.3191 -0.5260 -0.3996
 1931TIP3   OH227207   1.184   4.389  16.341  0.4820  0.1567  0.6355
 1931TIP3    H127208   1.096   4.418  16.317  0.2603 -1.6726 -1.0408
 1931TIP3    H227209   1.169   4.316  16.402  0.7219 -1.3291 -1.0204
 1932TIP3   OH227210   2.421   0.432  10.609  0.1988 -0.0305 -0.2826
 1932TIP3    H127211   2.427   0.512  10.661  1.6812  0.9512 -1.8639
 1932TIP3    H227212   2.332   0.434  10.572  0.3930  1.1824 -0.7218
 1933TIP3   OH227213   6.730   5.842  14.763  0.0567  0.3058  0.4369
 1933TIP3    H127214   6.776   5.775  14.713 -0.2914 -1.4897  2.3983
 1933TIP3    H227215   6.800   5.893  14.804  0.4296 -1.5914  2.3469
 1934TIP3   OH227216   1.560   6.653  11.467 -0.0228 -0.1229  0.0463
 1934TIP3    H127217   1.547   6.631  11.375 -1.3029  0.3229  0.1027
 1934TIP3    H227218   1.517   6.738  11.478 -0.3019 -0.3934  1.1543
 1935TIP3   OH227219   0.788   5.171   0.519 -0.5220  0.1131  0.1521
 1935TIP3    H127220   0.700   5.177   0.557 -1.1086  1.0240 -1.2468
 1935TIP3    H227221   0.781   5.102   0.453 -0.5674  1.0356 -0.8411
 1936TIP3   OH227222   5.886   2.030  12.727  0.1753 -0.4764  0.5241
 1936TIP3    H127223   5.899   2.062  12.817 -0.7776 -1.4122  1.0205
 1936TIP3    H227224   5.974   2.004  12.699  0.4841 -0.2112  1.2017
 1937TIP3   OH227225   3.316   0.554  11.025  0.0896  0.2236 -0.4582
 1937TIP3    H127226   3.390   0.528  10.970  0.3817  1.5916 -0.7422
 1937TIP3    H227227   3.312   0.649  11.017  0.6745  0.6153  2.5050
 1938TIP3   OH227228   0.938   2.131   4.381  0.5350  0.1579 -0.1999
 1938TIP3    H127229   0.984   2.137   4.465  0.1699 -0.4330  0.0520
 1938TIP3    H227230   0.953   2.041   4.352  0.4444  0.2825 -0.6476
 1939TIP3   OH227231   4.142   0.456   0.098  0.1261 -0.0609  0.3208
 1939TIP3    H127232   4.219   0.405   0.073  1.2024  2.4607 -1.9655
 1939TIP3    H227233   4.176   0.523   0.158 -0.1908  1.1569 -0.8099
 1940TIP3   OH227234   5.908   0.178   0.136  0.0122 -0.1649  0.3161
 1940TIP3    H127235   5.948   0.104   0.183  0.7565 -0.3494 -0.5709
 1940TIP3    H227236   5.982   0.230   0.105 -0.4328 -0.2097 -0.8910
 1941TIP3   OH227237   5.239   4.602  13.687 -1.1696  0.1132 -0.4300
 1941TIP3    H127238   5.182   4.651  13.747 -0.0059 -1.6391  2.3482
 1941TIP3    H227239   5.238   4.652  13.606 -3.3839  2.3370  0.8234
 1942TIP3   OH227240   2.065   0.689  12.799  0.1272 -0.5923 -0.2520
 1942TIP3    H127241   2.022   0.681  12.884 -1.4507 -1.7672 -1.1101
 1942TIP3    H227242   2.019   0.761  12.757  2.2254  1.3439  0.5688
 1943TIP3   OH227243   4.068   4.920  16.752 -0.6585 -0.2581  0.2912
 1943TIP3    H127244   4.043   4.996  16.701 -1.3420 -0.1262  0.8058
 1943TIP3    H227245   4.164   4.921  16.753 -0.6644  0.5703  0.2619
 1944TIP3   OH227246   5.796   1.866  14.175  0.2060 -0.0475 -0.2330
 1944TIP3    H127247   5.705   1.885  14.152 -0.4441 -3.1146 -0.5329
 1944TIP3    H227248   5.819   1.790  14.122  2.4575 -0.2862  0.9761
 1945TIP3   OH227249   4.630   1.052  11.726 -0.1017  0.3475 -0.5304
 1945TIP3    H127250   4.580   1.095  11.656 -0.9831  1.2133  0.5880
 1945TIP3    H227251   4.650   0.965  11.691 -0.2687  0.8537 -1.9600
 1946TIP3   OH227252   0.130   0.923   1.552 -0.1755  0.2299  0.1316
 1946TIP3    H127253   0.040   0.897   1.537 -0.1880 -0.3827  1.1722
 1946TIP3    H227254   0.174   0.909   1.468 -0.7699 -0.6603 -0.0315
 1947TIP3   OH227255   5.993   4.202   2.313  0.3510 -0.0774  0.3077
 1947TIP3    H127256   5.904   4.178   2.340  1.0736 -1.9514  1.2304
 1947TIP3    H227257   5.985   4.291   2.279 -2.2099 -0.8623 -1.4204
 1948TIP3   OH227258   1.709   0.789  16.267 -0.3835  0.0721  0.2280
 1948TIP3    H127259   1.767   0.756  16.198  0.3382 -1.1613  1.3806
 1948TIP3    H227260   1.759   0.778  16.347 -1.4373  0.9337  1.0250
 1949TIP3   OH227261   0.221   3.139  12.712 -0.0790 -0.0222 -0.5758
 1949TIP3    H127262   0.133   3.176  12.713  0.1631  0.6234 -1.5120
 1949TIP3    H227263   0.208   3.045  12.722 -0.8622  0.0841 -0.5469
 1950TIP3   OH227264   4.163   0.402  11.860  0.1726 -0.5016 -0.2623
 1950TIP3    H127265   4.095   0.376  11.921 -0.7376  0.9681 -0.5882
 1950TIP3    H227266   4.245   0.387  11.906 -0.4940  0.8870  1.4899
 1951TIP3   OH227267   6.308   5.035   5.984  0.7737 -0.1142 -0.1615
 1951TIP3    H127268   6.356   5.034   5.902 -0.1148  0.8101 -0.7027
 1951TIP3    H227269   6.368   5.074   6.047  1.1348 -0.0002 -0.5770
 1952TIP3   OH227270   4.867   0.935  11.429 -0.6924 -0.4287  0.0211
 1952TIP3    H127271   4.873   1.028  11.408  1.0142 -0.6046 -0.4032
 1952TIP3    H227272   4.915   0.891  11.359  0.8500 -1.4058  1.6333
 1953TIP3   OH227273   3.701   6.517   6.539 -0.5359  0.2730 -0.0416
 1953TIP3    H127274   3.782   6.564   6.556 -0.5882 -0.2138  1.7612
 1953TIP3    H227275   3.658   6.567   6.470  1.5874  0.1624 -1.5608
 1954TIP3   OH227276   6.374   0.497  14.591  0.4032  0.3893 -0.2239
 1954TIP3    H127277   6.404   0.463  14.675 -2.6403  0.8408  1.1619
 1954TIP3    H227278   6.393   0.590  14.595 -1.7024  0.8380  1.0241
 1955TIP3   OH227279   4.447   4.665   3.714  0.1972  0.3689  0.3104
 1955TIP3    H127280   4.362   4.652   3.757 -0.4469  0.6553 -0.8211
 1955TIP3    H227281   4.433   4.741   3.658  0.4980 -0.9167 -1.5959
 1956TIP3   OH227282   5.012   0.247  16.839  0.2342 -0.3935 -0.2213
 1956TIP3    H127283   5.052   0.328  16.871  1.1662 -0.9659  0.0945
 1956TIP3    H227284   4.999   0.193  16.917 -1.1491 -0.2485 -0.3118
 1957TIP3   OH227285   6.274   2.621   4.771  0.5347  0.0643 -0.1162
 1957TIP3    H127286   6.234   2.649   4.688  1.7284 -0.4025 -0.8643
 1957TIP3    H227287   6.312   2.536   4.751 -1.1063 -1.1219  1.5331
 1958TIP3   OH227288   5.365   4.829   6.438  0.3748  0.3578 -0.3820
 1958TIP3    H127289   5.299   4.805   6.503  0.5237  2.1454  0.4744
 1958TIP3    H227290   5.351   4.768   6.366 -0.3385 -1.1427  0.9655
 1959TIP3   OH227291   1.810   0.179   3.141  0.9557  0.0750  0.5380
 1959TIP3    H127292   1.792   0.211   3.053  0.4098  2.5506  1.4944
 1959TIP3    H227293   1.725   0.177   3.185  1.1710 -1.4531  0.9658
 1960TIP3   OH227294   1.119   2.841  12.586 -0.7516 -0.0382 -0.0063
 1960TIP3    H127295   1.106   2.757  12.629 -1.4606  0.3470  0.5482
 1960TIP3    H227296   1.190   2.825  12.524 -0.4340 -0.8707  0.5569
 1961TIP3   OH227297   3.652   3.963   3.396  0.0626 -0.3348 -0.0575
 1961TIP3    H127298   3.574   3.946   3.450 -0.5824 -0.7419 -1.0843
 1961TIP3    H227299   3.697   3.879   3.390 -1.2991 -1.0046 -2.2989
 1962TIP3   OH227300   3.737   3.895   0.956  0.1247  0.2668  0.5131
 1962TIP3    H127301   3.664   3.952   0.933  0.9103  0.9139 -0.4546
 1962TIP3    H227302   3.812   3.933   0.911  1.2058  0.0038  2.0490
 1963TIP3   OH227303   4.696   6.759  11.650  0.2942  0.2555  0.8682
 1963TIP3    H127304   4.745   6.748  11.568 -0.1875 -0.9806  0.7336
 1963TIP3    H227305   4.703   6.674  11.694 -2.0938 -0.1136  0.6407
 1964TIP3   OH227306   4.217   0.240  15.322 -0.2960  0.3411 -0.7462
 1964TIP3    H127307   4.285   0.211  15.261 -1.7812 -0.9310 -1.8941
 1964TIP3    H227308   4.145   0.269  15.265 -1.2138  0.4391  0.4158
 1965TIP3   OH227309   6.581   3.187  15.571  0.2334 -0.2369  0.7862
 1965TIP3    H127310   6.486   3.191  15.564  0.2108 -1.5217  0.1345
 1965TIP3    H227311   6.613   3.220  15.486  0.4987  3.0874  2.0349
 1966TIP3   OH227312   6.319   3.974  12.196  0.2158 -0.0772 -0.1042
 1966TIP3    H127313   6.226   3.989  12.210  0.3089 -1.0044  1.6960
 1966TIP3    H227314   6.361   4.057  12.221 -0.0283 -0.1086  0.4163
 1967TIP3   OH227315   6.168   5.448   1.241 -0.2197  0.2899 -0.5592
 1967TIP3    H127316   6.117   5.417   1.165  2.8122  0.6323 -2.9445
 1967TIP3    H227317   6.134   5.536   1.258 -2.2116 -0.4903 -0.2397
 1968TIP3   OH227318   4.128   5.584  16.933  0.4804 -0.0472  0.4797
 1968TIP3    H127319   4.043   5.569  16.891  1.1135  2.2724 -1.9279
 1968TIP3    H227320   4.178   5.504  16.917 -0.1540 -0.1670 -1.0523
 1969TIP3   OH227321   5.861   2.669   1.241  0.3350 -0.1552 -0.1126
 1969TIP3    H127322   5.870   2.761   1.266  0.2674 -0.4357  0.9743
 1969TIP3    H227323   5.816   2.628   1.314 -0.8990 -0.7896 -1.1953
 1970TIP3   OH227324   6.565   0.150   4.941  0.3304  0.6778  0.1836
 1970TIP3    H127325   6.607   0.209   4.879  2.7888  0.2326  1.3297
 1970TIP3    H227326   6.483   0.124   4.898  0.3465  2.9653 -1.3866
 1971TIP3   OH227327   4.299   3.945   2.943 -0.0202  0.1553  0.2547
 1971TIP3    H127328   4.316   4.009   3.012 -1.2304  0.8082 -0.0057
 1971TIP3    H227329   4.382   3.901   2.928  0.6415  1.1279  1.0083
 1972TIP3   OH227330   6.278   6.333   5.591 -0.0971 -0.4132  0.2443
 1972TIP3    H127331   6.333   6.329   5.669 -0.3583  0.1105  0.4563
 1972TIP3    H227332   6.339   6.350   5.519  0.2151 -1.4383  0.2467
 1973TIP3   OH227333   1.880   6.713  11.218  0.0579  0.1324  0.7477
 1973TIP3    H127334   1.799   6.763  11.208 -0.4098 -0.6343  0.6308
 1973TIP3    H227335   1.896   6.713  11.312  0.5375  1.2358  0.6734
 1974TIP3   OH227336   1.176   2.667   1.198 -0.2859  0.0910 -0.0508
 1974TIP3    H127337   1.193   2.657   1.292  1.3923 -1.3954 -0.4606
 1974TIP3    H227338   1.181   2.762   1.183 -0.6977  0.3606  1.3585
 1975TIP3   OH227339   4.150   2.990  10.568  0.2391 -0.1693  0.7785
 1975TIP3    H127340   4.227   3.047  10.564  0.8615 -1.0012  0.4930
 1975TIP3    H227341   4.171   2.919  10.507 -1.0992 -0.0056  0.1009
 1976TIP3   OH227342   2.342   2.492   5.400  0.2715 -0.1210  0.0226
 1976TIP3    H127343   2.338   2.550   5.476  0.5448 -1.8479  1.4385
 1976TIP3    H227344   2.266   2.435   5.410  0.9150 -1.0774 -0.4034
 1977TIP3   OH227345   3.246   1.480   1.756 -0.4253 -0.1971 -0.0298
 1977TIP3    H127346   3.199   1.552   1.797 -0.3364 -0.4132  0.4513
 1977TIP3    H227347   3.242   1.499   1.662  0.7026  1.0974  0.1559
 1978TIP3   OH227348   2.058   3.607  11.388 -0.4766 -0.4201 -0.4876
 1978TIP3    H127349   2.003   3.681  11.363  0.7469 -0.0873 -2.3494
 1978TIP3    H227350   2.136   3.647  11.426 -0.2129 -0.7965 -0.6287
 1979TIP3   OH227351   0.191   5.049  13.120  0.0843 -0.1690 -0.1692
 1979TIP3    H127352   0.271   5.072  13.072 -1.0000  0.5335 -1.7400
 1979TIP3    H227353   0.156   4.974  13.072  0.1004 -0.8562  0.8755
 1980TIP3   OH227354   1.716   2.717  11.643 -0.6042 -0.7181  0.1567
 1980TIP3    H127355   1.637   2.771  11.636 -0.7402 -1.0119 -0.6768
 1980TIP3    H227356   1.738   2.695  11.553 -1.4674 -3.3361  0.4902
 1981TIP3   OH227357   3.901   0.149   4.305  0.3847  0.1813  0.6913
 1981TIP3    H127358   3.832   0.085   4.289  0.2143  0.1377  1.5636
 1981TIP3    H227359   3.982   0.098   4.302  0.2599 -0.0571  1.2422
 1982TIP3   OH227360   5.292   3.570  10.812 -0.1205 -0.0406  0.5088
 1982TIP3    H127361   5.326   3.528  10.733  1.0436  1.7330  0.0106
 1982TIP3    H227362   5.226   3.632  10.781 -0.2418  0.0955  1.0176
 1983TIP3   OH227363   6.083   3.065   0.172  0.8772 -0.5366 -0.1634
 1983TIP3    H127364   6.156   3.101   0.223  0.6298 -1.3926  0.8401
 1983TIP3    H227365   6.037   3.008   0.234 -1.1168  0.5696 -0.5355
 1984TIP3   OH227366   3.513   4.237  17.136 -0.1489 -0.4056  0.3565
 1984TIP3    H127367   3.478   4.203  17.218  0.9417  1.6830  1.7972
 1984TIP3    H227368   3.562   4.164  17.098  0.0861 -1.1728  2.0527
 1985TIP3   OH227369   0.644   4.573   2.950  0.3169 -0.3120 -0.6359
 1985TIP3    H127370   0.705   4.609   3.014 -2.0488  0.6116  1.2605
 1985TIP3    H227371   0.633   4.481   2.975 -0.6051  0.0477  0.3508
 1986TIP3   OH227372   6.016   5.050  14.323  0.2147 -0.5848 -0.4669
 1986TIP3    H127373   5.943   4.988  14.319  0.0331 -0.3330 -1.1261
 1986TIP3    H227374   5.989   5.123  14.268  0.4882  0.0240  0.1909
 1987TIP3   OH227375   5.499   5.036  11.229 -0.1044 -0.0811  0.6468
 1987TIP3    H127376   5.594   5.024  11.225 -0.2275 -1.0471  0.2975
 1987TIP3    H227377   5.487   5.117  11.279  0.9739  1.4078 -1.3555
 1988TIP3   OH227378   0.997   3.253  15.586 -0.1245 -0.1617  0.3052
 1988TIP3    H127379   1.002   3.158  15.572  0.2762 -0.3377  1.5690
 1988TIP3    H227380   1.079   3.275  15.629 -0.5233  0.6520  0.6577
 1989TIP3   OH227381   3.638   0.324  13.823  0.2208  0.2285  0.3157
 1989TIP3    H127382   3.599   0.410  13.833  0.3084  0.6210 -2.0031
 1989TIP3    H227383   3.565   0.267  13.799  0.5131  0.2081 -0.5631
 1990TIP3   OH227384   2.222   0.146   0.923  0.2965  0.0865  0.3242
 1990TIP3    H127385   2.283   0.075   0.946  1.1838  0.8173  0.2718
 1990TIP3    H227386   2.249   0.173   0.835 -0.2364  0.2791  0.2196
 1991TIP3   OH227387   0.789   4.474   2.699 -0.2383  0.2698 -0.3545
 1991TIP3    H127388   0.834   4.532   2.760  0.3306  0.9583 -1.3816
 1991TIP3    H227389   0.696   4.489   2.714 -0.1499  2.8436 -1.7906
 1992TIP3   OH227390   5.942   2.968   5.262  0.3234  0.4563  0.1296
 1992TIP3    H127391   5.865   3.020   5.239  0.5743  1.0102  0.5106
 1992TIP3    H227392   5.942   2.896   5.199 -2.6033 -1.7567  2.3850
 1993TIP3   OH227393   6.440   4.547   1.797 -0.2041  0.4533  0.0109
 1993TIP3    H127394   6.469   4.463   1.762 -1.1003  0.4415 -0.7768
 1993TIP3    H227395   6.504   4.610   1.765  1.3081 -0.0905  1.8339
 1994TIP3   OH227396   4.447   1.296   3.884  0.0587 -0.0544  0.2756
 1994TIP3    H127397   4.404   1.267   3.804  0.1819 -0.5613  0.3836
 1994TIP3    H227398   4.534   1.322   3.857 -0.1358  0.4587  0.1377
 1995TIP3   OH227399   3.249   0.710   4.258  0.0739 -0.2252  0.1114
 1995TIP3    H127400   3.337   0.734   4.289  0.5483 -0.6925 -0.8293
 1995TIP3    H227401   3.243   0.616   4.274 -0.3608 -0.1501  0.4023
 1996TIP3   OH227402   5.430   0.644  15.394 -0.1004  0.5465  0.0705
 1996TIP3    H127403   5.436   0.724  15.447  0.3944  0.0892  0.7167
 1996TIP3    H227404   5.348   0.654  15.345 -0.4710  1.0651  0.7782
 1997TIP3   OH227405   6.259   4.762  11.779 -0.2849  0.2778  0.9552
 1997TIP3    H127406   6.180   4.787  11.828  0.6258  0.8193  2.2154
 1997TIP3    H227407   6.327   4.756  11.846  0.9244  0.6011 -0.2069
 1998TIP3   OH227408   5.562   6.434  15.982 -0.6628 -0.2767  0.3849
 1998TIP3    H127409   5.471   6.420  16.009 -0.8186 -1.7026 -0.7913
 1998TIP3    H227410   5.563   6.525  15.952 -1.3391  0.2098  1.7310
 1999TIP3   OH227411   2.350   1.727  15.031 -0.4774  0.2780 -0.5762
 1999TIP3    H127412   2.377   1.752  14.943 -2.7324  1.0648 -1.1134
 1999TIP3    H227413   2.374   1.802  15.086 -2.3301  1.4373 -1.2348
 2000TIP3   OH227414   3.252   4.712   3.412 -0.1764  0.4919 -0.7159
 2000TIP3    H127415   3.337   4.716   3.367  0.8131 -0.5354  0.9450
 2000TIP3    H227416   3.258   4.635   3.468 -2.1803  0.4762 -0.4431
 2001TIP3   OH227417   5.703   2.000   5.017  0.4714  0.0524  0.4378
 2001TIP3    H127418   5.708   1.962   5.104 -0.1656 -1.4037 -0.1126
 2001TIP3    H227419   5.642   1.942   4.970  0.7685  0.8261 -0.9506
 2002TIP3   OH227420   6.305   4.233  11.520 -0.2483  0.0635  1.2307
 2002TIP3    H127421   6.258   4.191  11.448 -0.3012  1.6520  0.3056
 2002TIP3    H227422   6.313   4.164  11.587 -2.1917 -0.7814  0.6546
 2003TIP3   OH227423   6.489   1.768   3.533 -0.2025  0.2726  0.4556
 2003TIP3    H127424   6.449   1.809   3.610  0.5886  1.2539  0.3674
 2003TIP3    H227425   6.522   1.841   3.481 -0.1129 -0.4124 -0.4840
 2004TIP3   OH227426   0.445   2.665  16.967  0.0249  0.2804  0.1621
 2004TIP3    H127427   0.357   2.691  16.996 -0.4459 -0.7469 -0.2732
 2004TIP3    H227428   0.475   2.605  17.036  0.4694  0.7620  0.3969
 2005TIP3   OH227429   4.901   3.787  13.996  0.1043  0.2776  0.0639
 2005TIP3    H127430   4.888   3.702  13.955  2.0364  1.3909 -3.2169
 2005TIP3    H227431   4.983   3.779  14.043  1.6678  0.9014 -2.3814
 2006TIP3   OH227432   5.548   2.841  14.560  0.6015  0.1088 -0.1155
 2006TIP3    H127433   5.475   2.844  14.621 -0.2232  1.9263 -1.1194
 2006TIP3    H227434   5.521   2.896  14.487  1.7500 -1.5770 -1.9332
 2007TIP3   OH227435   5.182   5.639   4.633  0.3614 -0.2178  0.5052
 2007TIP3    H127436   5.160   5.585   4.708 -1.3234 -2.1832 -1.2744
 2007TIP3    H227437   5.234   5.582   4.577  0.6285  0.8226 -0.3418
 2008TIP3   OH227438   5.492   3.391  12.603  0.5835  0.1707  0.0229
 2008TIP3    H127439   5.471   3.342  12.523 -0.6355  0.4851  0.1193
 2008TIP3    H227440   5.522   3.324  12.665  0.7421 -0.1935 -0.4432
 2009TIP3   OH227441   3.743   4.008  13.096  0.0312  0.3165 -0.0900
 2009TIP3    H127442   3.714   4.099  13.109 -0.4836  0.0032  1.0786
 2009TIP3    H227443   3.665   3.955  13.109  0.1030 -0.2650 -1.7884
 2010TIP3   OH227444   2.331   2.834  15.768 -0.5265 -0.0010 -0.0223
 2010TIP3    H127445   2.353   2.904  15.707  0.2620 -0.1542  0.0706
 2010TIP3    H227446   2.354   2.868  15.854 -1.8828  0.3124  0.2333
 2011TIP3   OH227447   3.426   6.123  11.659  0.2816  0.3291  0.3830
 2011TIP3    H127448   3.332   6.108  11.672  0.3836  0.6680  1.6937
 2011TIP3    H227449   3.431   6.182  11.584 -0.4211 -1.2959 -1.0136
 2012TIP3   OH227450   3.676   6.154  11.438  0.1367  0.5744  0.2564
 2012TIP3    H127451   3.715   6.177  11.354 -1.4912 -2.1822 -1.4383
 2012TIP3    H227452   3.586   6.186  11.432 -0.4036 -0.8383  0.2742
 2013TIP3   OH227453   4.648   3.073   2.771 -0.0815  0.2153 -0.1090
 2013TIP3    H127454   4.685   3.091   2.857  0.3420  0.7015 -0.3864
 2013TIP3    H227455   4.704   3.121   2.710  0.6019 -1.3865 -0.8055
 2014TIP3   OH227456   0.596   1.784  13.368 -0.0442 -0.1545 -0.7931
 2014TIP3    H127457   0.557   1.698  13.352 -0.5674  0.0040 -0.3874
 2014TIP3    H227458   0.683   1.765  13.401 -0.4664 -0.5502  0.1154
 2015TIP3   OH227459   4.959   1.262   2.536 -0.0500 -0.0686 -0.7060
 2015TIP3    H127460   4.975   1.355   2.548 -0.5270  0.1835 -1.8644
 2015TIP3    H227461   5.046   1.223   2.527  0.2286  0.0210  1.1947
 2016TIP3   OH227462   3.147   1.868   1.360 -0.2738 -0.6743 -0.3009
 2016TIP3    H127463   3.241   1.864   1.374 -0.4925 -2.0581  1.0534
 2016TIP3    H227464   3.134   1.837   1.270  0.5735 -0.1605 -0.6079
 2017TIP3   OH227465   4.402   4.254   3.433  0.2844 -0.1275  0.3930
 2017TIP3    H127466   4.306   4.252   3.429  0.3391 -1.0169 -1.1209
 2017TIP3    H227467   4.426   4.330   3.380  0.4314 -0.1014  0.4980
 2018TIP3   OH227468   5.711   0.349  16.587 -0.0585 -0.4408 -0.9154
 2018TIP3    H127469   5.742   0.342  16.678 -1.1496  0.5762 -0.4410
 2018TIP3    H227470   5.711   0.443  16.569 -2.5720 -0.3635 -0.9434
 2019TIP3   OH227471   4.974   1.288  17.173  0.3067 -0.3067 -0.3364
 2019TIP3    H127472   5.007   1.236  17.100  0.3536  0.0462 -0.5662
 2019TIP3    H227473   5.053   1.327  17.212  0.4453 -1.6112  0.7777
 2020TIP3   OH227474   4.207   6.048   4.633 -0.7110 -0.1984  0.5006
 2020TIP3    H127475   4.216   6.081   4.543 -0.0865 -0.8957  0.3026
 2020TIP3    H227476   4.228   5.955   4.627 -1.6603 -0.4734  1.2040
 2021TIP3   OH227477   0.070   3.736   4.077  0.0502  0.2602 -0.0907
 2021TIP3    H127478   0.122   3.674   4.025  0.7106  0.7443 -0.0184
 2021TIP3    H227479   0.008   3.774   4.015  0.1975  0.1381 -0.3136
 2022TIP3   OH227480   4.876   0.687   2.868 -0.3112  0.2316 -0.1622
 2022TIP3    H127481   4.783   0.708   2.859 -0.1707  2.6441  2.7049
 2022TIP3    H227482   4.878   0.594   2.889 -2.3448  0.6239  2.1486
 2023TIP3   OH227483   2.006   5.906  15.717 -0.1418 -0.4308 -0.1225
 2023TIP3    H127484   1.932   5.954  15.678  1.3347  1.3729 -0.8643
 2023TIP3    H227485   2.067   5.975  15.744  0.8346 -1.8260  1.4512
 2024TIP3   OH227486   1.928   3.513   5.468 -0.6466 -0.2796 -0.0686
 2024TIP3    H127487   1.922   3.462   5.387 -0.9362  0.7448 -0.7185
 2024TIP3    H227488   1.858   3.578   5.460  0.1673  0.6720  0.3991
 2025TIP3   OH227489   0.688   2.198   4.359 -0.0862 -0.3766  0.1237
 2025TIP3    H127490   0.692   2.265   4.427 -0.3529  0.0633 -0.2899
 2025TIP3    H227491   0.779   2.174   4.344  0.1830  1.2190 -1.0213
 2026TIP3   OH227492   4.832   3.846  14.410 -0.0987 -0.0122  0.4056
 2026TIP3    H127493   4.823   3.751  14.417 -1.4364  0.1800  1.8301
 2026TIP3    H227494   4.756   3.874  14.359  1.0834  0.2068 -1.3520
 2027TIP3   OH227495   3.062   6.731   3.602 -0.5036 -0.9071 -0.3622
 2027TIP3    H127496   3.153   6.759   3.595 -0.0824 -2.4757 -1.9858
 2027TIP3    H227497   3.017   6.805   3.642  1.4727 -0.1004  0.4949
 2028TIP3   OH227498   6.082   4.143  10.689 -0.2221 -0.1667  0.1518
 2028TIP3    H127499   6.166   4.107  10.717 -0.1099  0.9194  1.3040
 2028TIP3    H227500   6.105   4.204  10.618 -0.2094 -0.8547 -0.4567
 2029TIP3   OH227501   2.843   1.290   5.119  0.7255  0.3769 -0.0550
 2029TIP3    H127502   2.847   1.195   5.108  1.4120  0.4686 -0.6681
 2029TIP3    H227503   2.778   1.318   5.054  1.4943  0.4491 -0.8194
 2030TIP3   OH227504   5.338   3.599  15.271  0.1853 -0.3441 -0.1289
 2030TIP3    H127505   5.408   3.602  15.337 -0.5643  1.0862  0.6509
 2030TIP3    H227506   5.304   3.509  15.276  0.9117 -0.5926  0.6105
 2031TIP3   OH227507   0.176   1.759   4.924  0.1830 -0.4860  0.1922
 2031TIP3    H127508   0.203   1.667   4.923  1.5955 -0.2264  3.5067
 2031TIP3    H227509   0.087   1.757   4.958  0.6591 -0.6195  1.5045
 2032TIP3   OH227510   5.307   4.581   4.814 -0.6585  0.5383 -0.1297
 2032TIP3    H127511   5.367   4.549   4.747 -0.6902 -0.2118  0.1837
 2032TIP3    H227512   5.362   4.630   4.875 -0.3739 -0.0419  0.0884
 2033TIP3   OH227513   0.294   1.370   0.572  0.2591  0.0171  0.4420
 2033TIP3    H127514   0.388   1.385   0.580  0.8999 -2.3202 -1.6892
 2033TIP3    H227515   0.256   1.418   0.646  2.9389  2.2466  0.5483
 2034TIP3   OH227516   3.177   6.118  15.641  0.3923 -0.3593 -0.0782
 2034TIP3    H127517   3.161   6.199  15.593 -1.6460 -1.2223 -0.9280
 2034TIP3    H227518   3.146   6.049  15.584  0.2157 -1.6092  1.4658
 2035TIP3   OH227519   0.101   3.997  11.282 -0.3354  0.1638  0.0068
 2035TIP3    H127520   0.032   4.026  11.342 -0.6901  0.0058 -0.3204
 2035TIP3    H227521   0.058   3.934  11.225  0.1509 -0.1373 -0.0304
 2036TIP3   OH227522   3.000   2.805  12.116 -0.0085  1.2207 -0.1065
 2036TIP3    H127523   2.937   2.876  12.117 -1.6830 -0.0976  3.2359
 2036TIP3    H227524   3.075   2.839  12.164  0.9677  1.9751 -2.0333
 2037TIP3   OH227525   1.546   4.384   2.567 -0.1894 -0.2969  0.2375
 2037TIP3    H127526   1.615   4.414   2.627  0.8755  1.5046 -1.7512
 2037TIP3    H227527   1.464   4.400   2.615  0.6457  0.5399  1.4390
 2038TIP3   OH227528   3.828   4.682  14.205  0.0563  0.5913 -0.1528
 2038TIP3    H127529   3.856   4.604  14.157  2.4193  1.8698 -1.0707
 2038TIP3    H227530   3.771   4.728  14.144 -2.7042 -1.0790  0.9873
 2039TIP3   OH227531   0.989   3.166  15.254 -0.4148 -0.0027 -0.1265
 2039TIP3    H127532   1.030   3.109  15.319  0.0621 -1.1488 -1.3891
 2039TIP3    H227533   1.063   3.205  15.207 -0.7209 -0.9063 -1.4119
 2040TIP3   OH227534   0.504   4.792  16.369  0.0280 -0.3536  0.3456
 2040TIP3    H127535   0.548   4.872  16.341  2.7982 -1.4685  1.1350
 2040TIP3    H227536   0.516   4.731  16.297  0.3815 -0.8736  0.8332
 2041TIP3   OH227537   5.693   2.246  15.901  0.2493  0.0156 -0.4401
 2041TIP3    H127538   5.607   2.217  15.932  1.0493 -2.1473 -0.0616
 2041TIP3    H227539   5.738   2.275  15.981  0.2033  0.2440 -0.4969
 2042TIP3   OH227540   1.557   2.239  13.008 -0.1085  0.6933 -0.1316
 2042TIP3    H127541   1.520   2.157  13.039  0.1006  0.3123 -0.8669
 2042TIP3    H227542   1.506   2.262  12.931  1.0837  0.2136 -1.0988
 2043TIP3   OH227543   2.980   3.803   4.684  0.2419  0.0013 -0.1944
 2043TIP3    H127544   3.031   3.875   4.646 -0.0286  0.3114  0.0280
 2043TIP3    H227545   2.895   3.808   4.639  0.3342 -0.3870 -0.4165
 2044TIP3   OH227546   5.667   3.143   2.188  0.0055  0.1578 -0.5810
 2044TIP3    H127547   5.702   3.095   2.263  1.8169  2.5766  0.2647
 2044TIP3    H227548   5.573   3.146   2.203  0.4421  2.0831  2.6909
 2045TIP3   OH227549   6.504   3.285   3.217 -0.0119 -0.0129 -0.3608
 2045TIP3    H127550   6.410   3.307   3.217 -0.1430 -0.4510 -1.7881
 2045TIP3    H227551   6.523   3.262   3.308 -1.0227  1.1640  0.1831
 2046TIP3   OH227552   4.232   0.901  16.121 -0.5399 -0.3219  0.1174
 2046TIP3    H127553   4.292   0.966  16.086 -1.1640  0.2627  0.1288
 2046TIP3    H227554   4.209   0.846  16.046 -1.0459  0.2781 -0.1648
 2047TIP3   OH227555   1.066   6.187   0.575  0.2364 -0.0121  0.6499
 2047TIP3    H127556   1.110   6.260   0.530  0.9667 -0.7898  0.0503
 2047TIP3    H227557   1.001   6.229   0.631  1.2370  1.1602  1.0014
 2048TIP3   OH227558   3.127   3.677  12.866 -0.2793 -0.2235 -0.2281
 2048TIP3    H127559   3.050   3.696  12.920 -0.2256 -1.0933  0.1700
 2048TIP3    H227560   3.093   3.677  12.776 -0.5210  0.4768 -0.1470
 2049TIP3   OH227561   0.905   1.807   4.188 -0.2133  0.5123 -0.0446
 2049TIP3    H127562   0.988   1.853   4.193  0.1463 -0.1493  0.3157
 2049TIP3    H227563   0.875   1.801   4.279 -0.3916  0.2949 -0.1135
 2050TIP3   OH227564   2.358   3.803  11.245 -0.9445 -0.0900 -0.0123
 2050TIP3    H127565   2.414   3.838  11.176  0.7910 -1.8510  0.4071
 2050TIP3    H227566   2.269   3.819  11.214 -0.2778 -1.7883 -3.2684
 2051TIP3   OH227567   5.914   5.333   0.550 -0.4978 -0.7976 -0.1751
 2051TIP3    H127568   5.907   5.308   0.642  0.0282  0.7309  0.3070
 2051TIP3    H227569   6.008   5.340   0.534 -0.6043 -0.0285 -0.5277
 2052TIP3   OH227570   6.372   3.900  16.995 -0.1416  0.3177  0.6411
 2052TIP3    H127571   6.340   3.982  16.957 -0.2449  1.2526  2.5835
 2052TIP3    H227572   6.293   3.847  17.008 -0.1630  0.1980  0.0400
 2053TIP3   OH227573   4.197   4.385  14.421  0.6383 -0.2057 -0.0612
 2053TIP3    H127574   4.225   4.422  14.505  0.7782  0.5774 -0.4497
 2053TIP3    H227575   4.278   4.359  14.378  0.6310  0.2175 -0.3322
 2054TIP3   OH227576   4.507   4.796  14.509 -0.0297 -0.3268  0.3655
 2054TIP3    H127577   4.601   4.781  14.493 -0.3571 -3.4662  0.6442
 2054TIP3    H227578   4.492   4.886  14.483  2.5987 -0.4521 -2.0560
 2055TIP3   OH227579   3.023   0.401   4.610  0.2885  0.1132  0.2444
 2055TIP3    H127580   2.945   0.437   4.568 -0.1687 -0.0086  0.9865
 2055TIP3    H227581   3.092   0.410   4.543 -0.0433  1.4351  0.0547
 2056TIP3   OH227582   0.124   5.970   2.908  0.1762  0.2017  0.1855
 2056TIP3    H127583   0.054   5.906   2.902 -0.2771  0.5811  1.3458
 2056TIP3    H227584   0.191   5.927   2.961 -0.2647  0.7945  1.2399
 2057TIP3   OH227585   0.757   5.797  12.477 -0.0142 -0.6366  0.1502
 2057TIP3    H127586   0.804   5.718  12.501 -0.7459 -1.2624 -0.4069
 2057TIP3    H227587   0.729   5.835  12.560  0.6111 -0.7866  0.4338
 2058TIP3   OH227588   4.530   3.533  14.255 -0.7897 -0.5896  0.1948
 2058TIP3    H127589   4.617   3.496  14.245 -1.0124 -1.2288  0.5782
 2058TIP3    H227590   4.471   3.458  14.256 -1.2500 -0.2379  0.9870
 2059TIP3   OH227591   6.757   1.701  14.866 -0.2308 -0.0016 -0.3312
 2059TIP3    H127592   6.818   1.774  14.867  0.8459 -0.8762 -0.0846
 2059TIP3    H227593   6.745   1.680  14.773  0.7074 -0.5092 -0.3490
 2060TIP3   OH227594   0.620   2.973   1.563 -0.4297  0.0851 -0.5734
 2060TIP3    H127595   0.642   2.900   1.506 -0.5246  0.6817 -1.3813
 2060TIP3    H227596   0.631   3.051   1.509  0.5281  0.7537  0.5220
 2061TIP3   OH227597   0.983   4.686   6.052  0.1469  0.4301  0.0709
 2061TIP3    H127598   0.909   4.710   6.108 -1.1734 -2.2451 -0.3576
 2061TIP3    H227599   0.944   4.642   5.977  2.0964  0.7628 -1.2303
 2062TIP3   OH227600   4.223   6.536  15.182  0.3239  0.3081 -0.0638
 2062TIP3    H127601   4.251   6.518  15.092  0.1198  0.1529 -0.0970
 2062TIP3    H227602   4.304   6.546  15.231  0.4409  0.9250 -0.3699
 2063TIP3   OH227603   3.333   1.207   3.914  0.3020 -0.1381 -0.0972
 2063TIP3    H127604   3.244   1.173   3.900 -0.2578  1.2938 -0.2093
 2063TIP3    H227605   3.360   1.238   3.827  0.6017  0.1179  0.0850
 2064TIP3   OH227606   0.490   5.713   3.320 -0.3173 -0.3163 -0.1177
 2064TIP3    H127607   0.578   5.685   3.346 -0.7873 -1.4934  0.2776
 2064TIP3    H227608   0.434   5.684   3.392 -0.8928  1.4331  0.1750
 2065TIP3   OH227609   3.657   1.202  12.215 -0.8001  0.0024  0.1050
 2065TIP3    H127610   3.711   1.250  12.152 -2.8390  0.0126 -1.7423
 2065TIP3    H227611   3.706   1.208  12.297  1.5603  0.7334 -1.2414
 2066TIP3   OH227612   5.043   5.353   0.808 -0.2639  0.6275 -0.2979
 2066TIP3    H127613   5.019   5.271   0.851  2.1302  0.9576  1.9281
 2066TIP3    H227614   5.100   5.326   0.736 -1.5829  0.2536 -1.2380
 2067TIP3   OH227615   3.729   3.256   0.345 -0.2055 -0.1292 -0.1405
 2067TIP3    H127616   3.791   3.310   0.393 -1.1565  0.2503  0.7003
 2067TIP3    H227617   3.669   3.319   0.304 -0.8782 -0.5086  0.2397
 2068TIP3   OH227618   2.261   1.045  12.717  0.0275  0.5317  0.0831
 2068TIP3    H127619   2.239   1.082  12.803 -1.6322  0.2118 -0.1608
 2068TIP3    H227620   2.350   1.075  12.700  0.6426  0.0523  2.1982
 2069TIP3   OH227621   0.865   0.706  12.527  0.0380  0.4988  0.3085
 2069TIP3    H127622   0.937   0.698  12.463 -0.1515 -0.0956  0.1612
 2069TIP3    H227623   0.807   0.633  12.506 -1.6599  2.0742 -0.8840
 2070TIP3   OH227624   4.979   2.761  13.195  0.1678  0.5352  0.0846
 2070TIP3    H127625   5.070   2.732  13.196  0.3407  1.0720  0.4007
 2070TIP3    H227626   4.983   2.852  13.166 -0.1371  0.9543  1.2856
 2071TIP3   OH227627   2.322   0.225   5.639 -0.6801 -0.0894  0.0400
 2071TIP3    H127628   2.388   0.264   5.582 -0.0816 -0.2404  0.6256
 2071TIP3    H227629   2.275   0.164   5.583 -1.0537  0.8164 -0.6670
 2072TIP3   OH227630   2.419   3.257   3.392  0.1367  0.0399  0.1162
 2072TIP3    H127631   2.407   3.234   3.299 -0.5031  1.4566 -0.1893
 2072TIP3    H227632   2.368   3.337   3.403  0.8483  0.3344  1.5120
 2073TIP3   OH227633   6.058   5.714  12.319 -0.1429 -0.1778  0.1772
 2073TIP3    H127634   6.085   5.626  12.295  1.0266  0.3986 -0.7786
 2073TIP3    H227635   6.117   5.739  12.391  0.9864  0.5583 -0.9544
 2074TIP3   OH227636   1.273   6.018   3.394  0.4923  0.4165 -0.5075
 2074TIP3    H127637   1.283   6.095   3.337 -0.3869  0.4142 -0.6771
 2074TIP3    H227638   1.261   5.945   3.333 -0.6158  0.4368 -0.3282
 2075TIP3   OH227639   6.025   4.804   1.330 -0.7829  0.4926 -0.2084
 2075TIP3    H127640   6.120   4.808   1.326 -0.6452  0.4595  1.7371
 2075TIP3    H227641   6.001   4.876   1.388 -1.4706 -2.2416  3.2951
 2076TIP3   OH227642   4.870   0.027  14.486  0.0968 -0.0268  0.4316
 2076TIP3    H127643   4.918  -0.055  14.485  0.4217  0.1629  0.5307
 2076TIP3    H227644   4.824   0.027  14.571  0.9021  0.3582  0.8767
 2077TIP3   OH227645   4.165   5.336   4.413 -0.0669 -0.0197  0.0294
 2077TIP3    H127646   4.184   5.381   4.330 -0.4045  0.0331 -0.0208
 2077TIP3    H227647   4.122   5.402   4.466  1.3839  0.3747  0.7771
 2078TIP3   OH227648   3.443   4.463  16.402 -0.2727 -0.2568  0.3376
 2078TIP3    H127649   3.479   4.451  16.490  0.8936  2.5826  0.3627
 2078TIP3    H227650   3.498   4.408  16.347 -0.1019 -0.9737  1.1929
 2079TIP3   OH227651   2.390   3.143   0.656 -1.3468  0.1267  0.1118
 2079TIP3    H127652   2.377   3.229   0.697 -0.3654  1.2765 -1.8528
 2079TIP3    H227653   2.329   3.143   0.582 -0.1573 -0.1720 -0.8879
 2080TIP3   OH227654   0.051   2.418   2.808  0.6175 -0.2759  0.1259
 2080TIP3    H127655   0.010   2.338   2.842  0.9770  0.0657  1.3986
 2080TIP3    H227656  -0.006   2.489   2.836 -0.4036 -0.1267 -2.1023
 2081TIP3   OH227657   5.694   4.623   1.500 -0.2332 -0.0413  0.1757
 2081TIP3    H127658   5.670   4.716   1.506 -1.1484 -0.2499 -0.1108
 2081TIP3    H227659   5.780   4.624   1.458  1.0072  0.8014  2.5798
 2082TIP3   OH227660   1.415   0.076   6.423  0.2412  0.0293 -0.5073
 2082TIP3    H127661   1.387  -0.010   6.455  0.0243 -1.4302 -4.1778
 2082TIP3    H227662   1.334   0.126   6.417  0.0572 -0.2435 -0.3543
 2083TIP3   OH227663   5.276   6.348   0.887 -0.2316  0.3531 -0.4482
 2083TIP3    H127664   5.194   6.337   0.936 -0.6790  0.6682 -1.1022
 2083TIP3    H227665   5.271   6.283   0.817 -0.0022  0.4878 -0.5916
 2084TIP3   OH227666   2.566   4.095   3.883 -0.1999  0.3498 -0.0896
 2084TIP3    H127667   2.619   4.174   3.900  2.5279 -1.8276  2.6824
 2084TIP3    H227668   2.589   4.071   3.793 -1.3947  2.8232 -1.1475
 2085TIP3   OH227669   0.439   1.007   2.003  0.5506 -0.8596  0.1381
 2085TIP3    H127670   0.387   0.974   1.930 -0.1071 -1.3539  0.8152
 2085TIP3    H227671   0.377   1.013   2.076  1.0027  0.4378  0.4350
 2086TIP3   OH227672   4.765   2.846  10.710 -0.2778 -0.1607  0.4940
 2086TIP3    H127673   4.675   2.877  10.699 -0.6595 -1.6461 -1.0015
 2086TIP3    H227674   4.757   2.765  10.761  0.0947 -0.7614 -0.3672
 2087TIP3   OH227675   2.050   6.772   5.879  0.1334  0.2492  0.2784
 2087TIP3    H127676   2.054   6.752   5.785  0.6274 -1.3088  0.6037
 2087TIP3    H227677   2.051   6.686   5.922  2.2252  0.9439  1.7911
 2088TIP3   OH227678   4.867   0.090  11.129  0.3773  0.4516  0.3653
 2088TIP3    H127679   4.915   0.035  11.068  0.4236  0.1715  0.6483
 2088TIP3    H227680   4.867   0.177  11.089  0.5468  0.3063  0.0495
 2089TIP3   OH227681   0.628   0.549   5.061 -0.3011 -0.2564  0.4327
 2089TIP3    H127682   0.546   0.504   5.043 -0.2418 -0.8123  1.4389
 2089TIP3    H227683   0.605   0.617   5.125 -0.3546  1.0621 -0.9403
 2090TIP3   OH227684   0.811   4.941  14.635 -0.3136  0.4334  0.1343
 2090TIP3    H127685   0.816   4.847  14.619  1.4189  0.3883  0.7081
 2090TIP3    H227686   0.887   4.960  14.690 -1.3754  1.9476  1.1832
 2091TIP3   OH227687   1.329   6.542  14.355  0.6762 -0.7792  0.5550
 2091TIP3    H127688   1.413   6.554  14.398 -0.1729  1.4178  1.7326
 2091TIP3    H227689   1.272   6.503  14.421  0.7799 -2.4474 -0.2948
 2092TIP3   OH227690   1.330   4.706   1.495  0.3737 -0.2665  0.2973
 2092TIP3    H127691   1.318   4.614   1.474 -2.1770 -0.6226  2.7374
 2092TIP3    H227692   1.303   4.752   1.415 -2.4771 -1.6152  0.3736
 2093TIP3   OH227693   1.429   0.463  16.511  0.6864 -0.3189 -0.0758
 2093TIP3    H127694   1.392   0.552  16.515  1.6231  0.1319 -0.9673
 2093TIP3    H227695   1.374   0.418  16.446  1.0731  0.0572 -0.6819
 2094TIP3   OH227696   5.363   1.882   2.256  0.0188 -0.1636 -0.1352
 2094TIP3    H127697   5.350   1.804   2.309 -0.7526  0.3095  0.4045
 2094TIP3    H227698   5.407   1.851   2.177 -0.4075 -1.1649  0.0032
 2095TIP3   OH227699   2.456   5.464   2.157  0.0645 -0.1044  0.1309
 2095TIP3    H127700   2.454   5.397   2.225 -2.4717 -0.8383 -0.5880
 2095TIP3    H227701   2.440   5.546   2.204  1.2566 -0.2012  0.7520
 2096TIP3   OH227702   3.534   4.533   3.552  0.0073 -0.1604 -0.2476
 2096TIP3    H127703   3.525   4.476   3.628  0.6863 -1.6475 -1.2126
 2096TIP3    H227704   3.521   4.621   3.585 -0.2990 -0.8183  1.4666
 2097TIP3   OH227705   2.216   4.502  11.284  0.0283  0.2140 -0.3777
 2097TIP3    H127706   2.254   4.458  11.208 -1.4601 -1.4620 -0.2455
 2097TIP3    H227707   2.121   4.489  11.274 -0.3444  1.7625  0.7131
 2098TIP3   OH227708   3.618   1.602   0.776  0.2791  0.3738 -0.7642
 2098TIP3    H127709   3.702   1.571   0.743  0.1093  0.6549 -1.4682
 2098TIP3    H227710   3.553   1.548   0.731  0.1033 -0.3922  0.3756
 2099TIP3   OH227711   4.720   0.051  14.267  0.1048 -0.2789 -0.2924
 2099TIP3    H127712   4.781   0.054  14.341  1.1725  1.6731 -1.1929
 2099TIP3    H227713   4.637   0.080  14.304  1.0566  2.5595 -0.1542
 2100TIP3   OH227714   2.274   2.979   3.179 -0.3011 -0.0217 -0.5343
 2100TIP3    H127715   2.363   2.944   3.175  0.3281  1.2444  0.8154
 2100TIP3    H227716   2.258   3.014   3.092  1.5669  1.9375 -0.2042
 2101TIP3   OH227717   6.191   2.222  13.028  0.3165 -0.0785  0.3546
 2101TIP3    H127718   6.123   2.217  13.096 -0.0580 -1.0185 -0.0697
 2101TIP3    H227719   6.198   2.132  12.995  1.2768  0.1564 -0.0910
 2102TIP3   OH227720   4.054   5.084  13.483  0.6522  0.2009  0.4373
 2102TIP3    H127721   4.135   5.135  13.475  0.6289  0.5213  1.9386
 2102TIP3    H227722   3.984   5.150  13.479  0.5502  0.1181  0.8130
 2103TIP3   OH227723   3.192   4.835   1.816  0.3624  0.1737  0.5740
 2103TIP3    H127724   3.266   4.774   1.827 -0.4523 -0.7397  1.1019
 2103TIP3    H227725   3.117   4.788   1.850 -0.4132  1.2455  0.3852
 2104TIP3   OH227726   0.380   2.894   5.737 -0.1856 -0.4216 -0.1546
 2104TIP3    H127727   0.454   2.924   5.685  0.2054 -0.8851  0.1288
 2104TIP3    H227728   0.319   2.968   5.737  1.6023  1.1848  2.2208
 2105TIP3   OH227729   2.432   4.870  12.025  0.0096  0.4860  0.4497
 2105TIP3    H127730   2.477   4.896  11.944 -0.3310  0.0012  0.1029
 2105TIP3    H227731   2.442   4.775  12.028 -0.1908  0.4771  0.8532
 2106TIP3   OH227732   5.354   2.017  17.221 -0.5142  0.0669  0.1451
 2106TIP3    H127733   5.310   2.102  17.227 -1.7325 -0.3396 -1.9467
 2106TIP3    H227734   5.328   1.971  17.301  0.7502  1.8385  1.6779
 2107TIP3   OH227735   0.291   3.311   5.281 -0.6139 -0.2937  0.5424
 2107TIP3    H127736   0.271   3.290   5.190 -0.3861  0.0345  0.4139
 2107TIP3    H227737   0.305   3.406   5.281 -1.1011 -0.2160  1.0102
 2108TIP3   OH227738   0.750   5.841   1.532  0.2993 -0.4542  0.2206
 2108TIP3    H127739   0.776   5.848   1.624 -0.4563 -0.3168  0.4359
 2108TIP3    H227740   0.664   5.883   1.529 -0.0351 -1.1694 -0.3939
 2109TIP3   OH227741   6.346   2.714   5.781  0.1057 -0.7180  0.5151
 2109TIP3    H127742   6.370   2.644   5.721  1.4275 -0.9533  1.2846
 2109TIP3    H227743   6.397   2.697   5.860 -0.2589  0.5809  1.0635
 2110TIP3   OH227744   2.153   1.849  13.651 -0.0383 -0.0142  0.4736
 2110TIP3    H127745   2.129   1.884  13.737 -0.3674 -0.5215  0.5966
 2110TIP3    H227746   2.186   1.761  13.669 -3.9480 -1.8765 -0.1929
 2111TIP3   OH227747   6.315   4.027  14.237 -0.4056 -0.6640  0.5910
 2111TIP3    H127748   6.336   4.102  14.292  2.1333  0.2901 -1.4757
 2111TIP3    H227749   6.380   3.961  14.259  0.2828 -0.4852 -0.7846
 2112TIP3   OH227750   0.822   5.991   2.237  0.5985  0.2116 -0.2044
 2112TIP3    H127751   0.901   5.942   2.215  0.2371  0.5984 -2.5239
 2112TIP3    H227752   0.781   6.010   2.153 -1.5452  0.7421  0.9068
 2113TIP3   OH227753   3.035   0.988   0.179  0.1050  0.8833  0.0491
 2113TIP3    H127754   3.084   1.030   0.251  0.4090  0.6379 -0.0118
 2113TIP3    H227755   3.024   0.898   0.208  0.1814  0.7976 -0.1943
 2114TIP3   OH227756   3.818   4.332  16.833 -0.3673  0.3425 -0.4573
 2114TIP3    H127757   3.754   4.402  16.846 -1.3694 -0.7462  0.6685
 2114TIP3    H227758   3.880   4.341  16.906  0.0803  0.6372 -0.8619
 2115TIP3   OH227759   1.153   3.849  14.596  0.5163  0.0335 -0.0710
 2115TIP3    H127760   1.090   3.907  14.638  1.8517  2.1748 -0.8406
 2115TIP3    H227761   1.228   3.905  14.577  2.0716 -2.0738 -0.5164
 2116TIP3   OH227762   5.396   1.375  13.850 -0.7692 -0.1039  0.1363
 2116TIP3    H127763   5.444   1.299  13.818  0.3355  1.1430 -1.2908
 2116TIP3    H227764   5.314   1.339  13.885 -0.2666 -1.9363 -0.4892
 2117TIP3   OH227765   6.493   2.035   4.412 -0.1426  0.7400 -0.0584
 2117TIP3    H127766   6.404   2.004   4.426  0.5039  0.1633  3.8398
 2117TIP3    H227767   6.542   1.957   4.385 -0.0515  0.0019  2.0757
 2118TIP3   OH227768   5.682   5.072   4.392  0.1736 -0.2470  0.4078
 2118TIP3    H127769   5.730   4.994   4.361  0.0847 -0.5129  0.9375
 2118TIP3    H227770   5.607   5.078   4.333  0.3594 -0.3680  0.1533
 2119TIP3   OH227771   1.837   5.207   3.016 -0.2220 -0.0395 -0.7869
 2119TIP3    H127772   1.828   5.298   3.043 -0.1102  0.4183 -2.1933
 2119TIP3    H227773   1.791   5.202   2.932  0.6812 -1.0043 -1.2533
 2120TIP3   OH227774   0.991   6.471  13.544 -0.2943  0.4767 -0.1123
 2120TIP3    H127775   0.927   6.399  13.551  0.8141 -0.4495  1.0931
 2120TIP3    H227776   1.019   6.486  13.634  0.5560  1.4587 -0.5247
 2121TIP3   OH227777   1.419   5.251  16.088  0.0440 -0.3456 -0.8067
 2121TIP3    H127778   1.462   5.182  16.140 -3.2005  0.0142  2.8061
 2121TIP3    H227779   1.481   5.323  16.089  1.3027 -1.3853  0.0876
 2122TIP3   OH227780   6.512   5.845   3.182 -0.9238  0.3391 -0.4948
 2122TIP3    H127781   6.529   5.922   3.127 -0.6840  0.7655  0.1732
 2122TIP3    H227782   6.417   5.833   3.178 -0.9970  0.8607 -0.3452
 2123TIP3   OH227783   1.214   6.128   2.680 -0.1688  0.6243  0.4485
 2123TIP3    H127784   1.196   6.216   2.649  1.2138  1.1172  0.9847
 2123TIP3    H227785   1.274   6.091   2.616 -1.0945 -0.1171 -0.0230
 2124TIP3   OH227786   2.628   1.425  12.785  0.0037 -0.1523  0.2348
 2124TIP3    H127787   2.623   1.461  12.696 -1.2264 -0.9563 -0.0485
 2124TIP3    H227788   2.624   1.501  12.842 -0.7876  0.2875 -0.3838
 2125TIP3   OH227789   1.322   3.739  17.199  0.3194  0.2374 -0.0526
 2125TIP3    H127790   1.392   3.781  17.250  0.1452  0.0180  0.3655
 2125TIP3    H227791   1.299   3.661  17.249  0.0213  0.1165 -0.3760
 2126TIP3   OH227792   5.485   3.522   2.730 -0.6740 -0.2649 -0.1785
 2126TIP3    H127793   5.414   3.540   2.791  0.1224 -0.2857  0.7941
 2126TIP3    H227794   5.460   3.566   2.649 -1.3941  0.4468  0.4145
 2127TIP3   OH227795   0.802   5.218  14.576  0.2359  0.4803  0.3279
 2127TIP3    H127796   0.834   5.129  14.591 -0.8631 -0.1295 -0.7671
 2127TIP3    H227797   0.779   5.250  14.663  0.1078 -0.5312  0.6796
 2128TIP3   OH227798   1.831   4.933   0.339 -0.3206  0.2236 -0.0162
 2128TIP3    H127799   1.856   5.025   0.339 -2.6048  0.9378  1.2847
 2128TIP3    H227800   1.890   4.891   0.275  1.1931  2.4260 -0.1597
 2129TIP3   OH227801   5.127   5.123  16.235  0.1382 -0.0109 -0.7289
 2129TIP3    H127802   5.045   5.111  16.186 -0.7086  0.8910  0.4276
 2129TIP3    H227803   5.179   5.046  16.212 -0.3155  0.2551 -2.8412
 2130TIP3   OH227804   4.547   0.559   2.256  0.4358 -0.1547 -0.5115
 2130TIP3    H127805   4.592   0.639   2.231 -1.4084  1.0638 -0.1464
 2130TIP3    H227806   4.517   0.521   2.173 -0.7752  0.8576 -0.5651
 2131TIP3   OH227807   0.020   6.245   0.960  0.1985  0.1557  0.3688
 2131TIP3    H127808   0.025   6.153   0.985  1.3895 -0.1007 -0.6834
 2131TIP3    H227809  -0.033   6.245   0.880 -3.1194  0.9003  2.3664
 2132TIP3   OH227810   2.091   0.634   2.021 -0.0336 -0.0583 -0.1114
 2132TIP3    H127811   2.178   0.657   1.988 -0.2160 -0.5631 -0.9892
 2132TIP3    H227812   2.077   0.692   2.096  0.0354  1.8209 -1.4687
 2133TIP3   OH227813   1.348   1.381  12.487  0.4086 -0.1446 -0.2742
 2133TIP3    H127814   1.341   1.346  12.576  2.5152  0.1587  0.0670
 2133TIP3    H227815   1.261   1.418  12.469 -0.7913 -2.3099  0.7130
 2134TIP3   OH227816   3.534   2.288  16.336 -0.0335 -0.6145  0.1849
 2134TIP3    H127817   3.544   2.350  16.264  1.7747  0.6566  1.4432
 2134TIP3    H227818   3.508   2.206  16.293  1.2044  0.0301 -1.9635
 2135TIP3   OH227819   4.329   6.581   3.732  0.6638  0.3009  0.7455
 2135TIP3    H127820   4.278   6.591   3.812 -0.8646 -1.0055 -0.0205
 2135TIP3    H227821   4.416   6.556   3.762  0.5889  1.4327  2.0341
 2136TIP3   OH227822   3.380   2.481   3.981  0.1024  0.5219 -0.3302
 2136TIP3    H127823   3.376   2.489   3.886 -0.0417  0.9953 -0.2850
 2136TIP3    H227824   3.382   2.571   4.013  0.1421  0.3649  0.1156
 2137TIP3   OH227825   3.620   1.610   6.255 -0.1772 -0.1364  0.0552
 2137TIP3    H127826   3.666   1.681   6.300 -0.5580  0.9540 -1.2191
 2137TIP3    H227827   3.528   1.624   6.276 -0.2471 -0.2990 -0.1417
 2138TIP3   OH227828   6.273   0.478  11.220  0.3363 -0.3040  0.2717
 2138TIP3    H127829   6.221   0.423  11.162 -0.1357  0.5434 -0.1328
 2138TIP3    H227830   6.264   0.438  11.307 -0.8456 -0.2896  0.1758
 2139TIP3   OH227831   2.092   4.538  14.810 -0.0885  0.0934  0.8021
 2139TIP3    H127832   2.180   4.526  14.845 -0.0832  1.0934  1.1849
 2139TIP3    H227833   2.100   4.617  14.755 -0.3760 -0.7439 -0.4790
 2140TIP3   OH227834   5.534   6.039  16.413  0.6599  0.1481  0.0801
 2140TIP3    H127835   5.520   6.102  16.483 -0.0751 -1.1750  1.1798
 2140TIP3    H227836   5.446   6.021  16.379  0.9055  0.0521 -0.5200
 2141TIP3   OH227837   3.548   1.212   1.593 -0.2236 -0.3086 -0.0754
 2141TIP3    H127838   3.611   1.263   1.543  0.7365 -0.7317  0.6825
 2141TIP3    H227839   3.594   1.132   1.617 -1.2745 -0.9387 -0.0938
 2142TIP3   OH227840   3.302   1.634  16.462  0.1769 -0.1268  0.0779
 2142TIP3    H127841   3.298   1.592  16.548  0.9862  0.4907  0.4275
 2142TIP3    H227842   3.212   1.628  16.428 -0.4648  0.7924  1.5292
 2143TIP3   OH227843   4.795   2.625   3.449 -0.3870 -0.4730  0.3699
 2143TIP3    H127844   4.819   2.564   3.379 -1.8638  0.3857 -0.9488
 2143TIP3    H227845   4.702   2.610   3.463 -0.7385  1.2983  0.1594
 2144TIP3   OH227846   4.455   1.434   6.342 -0.1660  0.5374 -0.4009
 2144TIP3    H127847   4.528   1.494   6.359 -0.5796  0.4208  1.9899
 2144TIP3    H227848   4.494   1.346   6.349 -0.9425  0.3627  3.7408
 2145TIP3   OH227849   3.203   3.491   0.714 -0.1413  0.5058 -0.1881
 2145TIP3    H127850   3.216   3.397   0.695  1.6634  0.5756  0.4837
 2145TIP3    H227851   3.135   3.518   0.653 -0.2208 -1.0956 -0.8760
 2146TIP3   OH227852   1.496   6.198  14.411 -0.0140 -0.0915  0.0695
 2146TIP3    H127853   1.502   6.117  14.362  0.2996  0.3971 -0.7238
 2146TIP3    H227854   1.451   6.174  14.492 -1.8134 -0.6674 -1.0408
 2147TIP3   OH227855   5.285   0.263   5.633 -0.5144 -0.8272  0.3436
 2147TIP3    H127856   5.365   0.282   5.583 -1.5269  3.9650  0.0857
 2147TIP3    H227857   5.315   0.254   5.723  0.4283  0.3653  0.1776
 2148TIP3   OH227858   2.201   1.904  16.247 -0.0422  0.2169 -0.8174
 2148TIP3    H127859   2.185   1.969  16.316 -1.2125 -1.1042  0.2129
 2148TIP3    H227860   2.295   1.887  16.251 -0.0924  0.1562  0.4895
 2149TIP3   OH227861   3.122   0.665  16.824 -0.0763  0.1623 -0.3430
 2149TIP3    H127862   3.206   0.685  16.864  0.4032 -0.7483 -0.8629
 2149TIP3    H227863   3.131   0.695  16.733 -0.2598 -0.0584 -0.4365
 2150TIP3   OH227864   2.431   3.202  14.568 -0.2005 -0.3341  0.0379
 2150TIP3    H127865   2.448   3.287  14.609  0.3066 -0.2666 -0.3030
 2150TIP3    H227866   2.512   3.181  14.522 -0.0121 -1.4157  0.8265
 2151TIP3   OH227867   2.129   4.470   2.962  0.1025  0.1159  0.2909
 2151TIP3    H127868   2.034   4.460   2.968  0.2422 -1.0584  0.8963
 2151TIP3    H227869   2.145   4.564   2.973 -0.9601  0.2714  0.5635
 2152TIP3   OH227870   5.765   2.154  13.591  0.1612 -0.0207 -0.1624
 2152TIP3    H127871   5.855   2.124  13.579  0.4968  0.1465  1.7615
 2152TIP3    H227872   5.712   2.083  13.554  1.0449 -0.9149  0.2414
 2153TIP3   OH227873   1.768   5.781   4.353  0.2729  0.2640  0.5284
 2153TIP3    H127874   1.696   5.806   4.294  1.0376  0.6396 -0.2639
 2153TIP3    H227875   1.762   5.685   4.358 -0.4957  0.3106  0.7651
 2154TIP3   OH227876   0.535   6.466  10.435  0.9775 -0.8915 -0.1012
 2154TIP3    H127877   0.601   6.424  10.491  1.2199 -0.8362 -0.3397
 2154TIP3    H227878   0.521   6.552  10.474  2.7421  0.0040 -1.3239
 2155TIP3   OH227879   6.436   6.025   2.030 -0.4153  0.2728  0.2903
 2155TIP3    H127880   6.493   6.102   2.026 -0.6480  0.5307  1.4243
 2155TIP3    H227881   6.455   5.986   2.115 -0.5081 -0.7721 -0.1577
 2156TIP3   OH227882   4.072   3.392   2.775 -0.6076  0.2866  0.2614
 2156TIP3    H127883   4.094   3.318   2.718 -0.1510  0.2073  0.5336
 2156TIP3    H227884   4.036   3.458   2.716 -1.1333 -0.1956  0.0309
 2157TIP3   OH227885   5.758   4.801  14.623 -0.5542 -0.0629 -0.8255
 2157TIP3    H127886   5.722   4.815  14.711 -2.8728  1.4239 -1.9093
 2157TIP3    H227887   5.687   4.760  14.574 -0.0833  1.0457 -2.5424
 2158TIP3   OH227888   4.096   5.736  10.392 -0.2278  0.3548  0.0540
 2158TIP3    H127889   4.050   5.777  10.465  0.0957  0.9495 -0.0655
 2158TIP3    H227890   4.031   5.681  10.350 -0.9956  1.5953 -0.4424
 2159TIP3   OH227891   6.468   4.826   0.976  0.3438 -0.8653  0.4146
 2159TIP3    H127892   6.452   4.760   0.909  0.3628 -0.3264 -0.1261
 2159TIP3    H227893   6.484   4.907   0.927 -0.0667 -0.3731  1.0716
 2160TIP3   OH227894   5.665   5.380  11.263  0.4316  0.1378  0.1939
 2160TIP3    H127895   5.690   5.293  11.296 -0.2094  0.4669  1.6307
 2160TIP3    H227896   5.570   5.375  11.252  0.3734  0.6787  0.4007
 2161TIP3   OH227897   0.299   6.559  15.127 -0.3984 -0.0015 -0.1405
 2161TIP3    H127898   0.362   6.524  15.190 -1.9564 -1.2855  0.7913
 2161TIP3    H227899   0.271   6.642  15.164  1.1929  0.9203 -0.9058
 2162TIP3   OH227900   2.565   5.617   1.576 -0.0512  1.0017 -0.1129
 2162TIP3    H127901   2.552   5.560   1.500 -2.2218  1.5969 -0.2523
 2162TIP3    H227902   2.570   5.557   1.650  1.6932  0.4375 -0.6273
 2163TIP3   OH227903   3.992   1.963  16.861  0.0346 -0.0877 -0.0041
 2163TIP3    H127904   3.965   2.011  16.783  0.6153  0.3001  0.0348
 2163TIP3    H227905   4.014   2.031  16.925  0.8816 -0.4020  0.0416
 2164TIP3   OH227906   6.724   6.627  17.221 -0.2638 -0.4956  0.1570
 2164TIP3    H127907   6.800   6.649  17.168 -0.5763 -1.3132 -0.6678
 2164TIP3    H227908   6.660   6.696  17.201 -0.2467 -0.5952 -0.2526
 2165TIP3   OH227909   4.334   3.095   0.598 -0.4345  0.7744 -0.6506
 2165TIP3    H127910   4.247   3.082   0.638 -0.0277 -1.8099 -0.3842
 2165TIP3    H227911   4.380   3.152   0.659 -1.3209  0.5847  0.2277
 2166TIP3   OH227912   2.838   6.258   0.962  0.1929 -0.1529 -0.2037
 2166TIP3    H127913   2.930   6.254   0.939  0.9041  0.4750  2.1792
 2166TIP3    H227914   2.815   6.351   0.953 -0.1439 -0.2712 -0.5767
 2167TIP3   OH227915   2.526   0.566   3.890 -0.1762 -0.7237 -0.4903
 2167TIP3    H127916   2.458   0.579   3.824 -0.8776  0.1486  0.3855
 2167TIP3    H227917   2.595   0.518   3.844 -1.1523 -1.1669 -1.5334
 2168TIP3   OH227918   1.923   6.519   4.333  0.1223 -0.1929  0.2813
 2168TIP3    H127919   1.930   6.443   4.390  0.0126  0.0704  0.6497
 2168TIP3    H227920   1.942   6.593   4.390  0.3822  0.0460 -0.1099
 2169TIP3   OH227921   2.602   4.107  11.295 -0.7874  0.1621  0.3571
 2169TIP3    H127922   2.550   4.163  11.237  0.3611  0.7913 -0.0998
 2169TIP3    H227923   2.667   4.067  11.237  0.3813  0.7971  1.1839
 2170TIP3   OH227924   4.238   5.955  12.504 -0.0137 -0.4446  0.0984
 2170TIP3    H127925   4.224   6.046  12.479  0.2876 -0.6748 -0.9947
 2170TIP3    H227926   4.166   5.934  12.563  1.2632  1.2177  2.4067
 2171TIP3   OH227927   2.631   2.804  16.867  0.0936  0.6043 -0.0856
 2171TIP3    H127928   2.610   2.733  16.806 -1.2969 -0.6407  1.7609
 2171TIP3    H227929   2.618   2.884  16.816  0.1415 -0.3987 -1.7497
 2172TIP3   OH227930   3.417   2.831   5.761  0.1262  0.1401  0.1433
 2172TIP3    H127931   3.488   2.894   5.775  0.2104  0.2694 -0.8095
 2172TIP3    H227932   3.453   2.748   5.790  0.5569  0.2610 -0.0383
 2173TIP3   OH227933   5.716   3.773   1.258 -0.4463 -0.1930 -0.0544
 2173TIP3    H127934   5.639   3.825   1.281 -0.4247 -0.2971  0.2495
 2173TIP3    H227935   5.725   3.786   1.163  0.7981  2.0341  0.2968
 2174TIP3   OH227936   2.791   1.984   5.206 -0.0473 -0.0455  0.1356
 2174TIP3    H127937   2.773   1.919   5.274  0.1215 -0.7141 -0.4410
 2174TIP3    H227938   2.791   2.068   5.252  0.3538 -0.5099  1.0094
 2175TIP3   OH227939   0.523   5.554   3.104 -0.9009  0.5627 -0.1669
 2175TIP3    H127940   0.539   5.628   3.163  0.6420  0.1630 -0.0538
 2175TIP3    H227941   0.443   5.514   3.138 -0.2193  0.5210  1.4795
 2176TIP3   OH227942   2.703   3.635   4.955 -0.0040  0.1674 -0.7743
 2176TIP3    H127943   2.680   3.648   4.863  1.3331  1.6542 -0.9355
 2176TIP3    H227944   2.799   3.626   4.955  0.2997  2.5285  0.6480
 2177TIP3   OH227945   2.281   1.170   2.863 -0.4321 -0.2603 -0.5869
 2177TIP3    H127946   2.329   1.253   2.861 -1.7197  0.5286  0.5607
 2177TIP3    H227947   2.334   1.113   2.919  0.6104 -0.3659 -1.6169
 2178TIP3   OH227948   6.521   5.867   4.833  0.3509  0.2068 -0.3495
 2178TIP3    H127949   6.568   5.792   4.868  2.1613  0.4714 -1.9849
 2178TIP3    H227950   6.454   5.830   4.776  0.6929 -0.1960 -0.4968
 2179TIP3   OH227951   2.341   4.075   4.010  0.4228 -0.0863 -0.1836
 2179TIP3    H127952   2.432   4.078   3.980  0.8663 -2.3434  0.6930
 2179TIP3    H227953   2.343   4.012   4.083 -2.0191 -0.9326 -0.7786
 2180TIP3   OH227954   1.889   4.268   2.944 -0.4332  0.4923 -0.5632
 2180TIP3    H127955   1.844   4.334   2.892 -0.7844  0.2602 -0.5590
 2180TIP3    H227956   1.826   4.245   3.013  0.1425  1.0215  0.1505
 2181TIP3   OH227957   5.978   4.222  13.879 -0.0197 -0.0676 -0.0511
 2181TIP3    H127958   6.044   4.169  13.922 -0.6778 -1.6132 -0.8629
 2181TIP3    H227959   5.982   4.307  13.923  2.4733 -0.1173 -0.0907
 2182TIP3   OH227960   0.537   0.323  12.318 -0.0623  0.3905  0.1922
 2182TIP3    H127961   0.462   0.270  12.344 -0.3473  0.1423 -1.0690
 2182TIP3    H227962   0.514   0.356  12.231  0.8078  1.2530  0.2671
 2183TIP3   OH227963   4.996   4.201  11.178 -0.5156 -0.2900 -0.1775
 2183TIP3    H127964   4.965   4.131  11.235 -0.0840 -0.4611 -0.1458
 2183TIP3    H227965   5.091   4.205  11.194 -0.1937 -1.0898 -1.6942
 2184TIP3   OH227966   2.809   1.899   3.627  0.1990  0.2568 -0.4967
 2184TIP3    H127967   2.843   1.982   3.660  1.1139 -0.3419  0.1118
 2184TIP3    H227968   2.887   1.844   3.615 -0.4582 -0.7936 -0.0858
 2185TIP3   OH227969   2.533   4.815   6.412  0.5215  0.1400 -0.2451
 2185TIP3    H127970   2.478   4.884   6.450 -0.9050 -0.8287 -0.4894
 2185TIP3    H227971   2.581   4.780   6.486 -2.3939 -1.8818  0.8893
 2186TIP3   OH227972   0.596   3.218  10.900 -0.2482 -0.1163 -0.2552
 2186TIP3    H127973   0.613   3.218  10.806 -0.1880 -2.3776 -0.3015
 2186TIP3    H227974   0.504   3.194  10.908  0.0796 -1.2553  0.2691
 2187TIP3   OH227975   1.869   1.721   2.057 -0.0886 -0.0352 -0.5705
 2187TIP3    H127976   1.899   1.630   2.055  1.1771  0.3693 -1.2960
 2187TIP3    H227977   1.878   1.751   1.966 -0.9872  0.6640 -0.4381
 2188TIP3   OH227978   4.866   5.128   2.173 -0.1445 -0.2086 -0.0795
 2188TIP3    H127979   4.872   5.134   2.078 -0.9751 -1.4413 -0.2306
 2188TIP3    H227980   4.779   5.161   2.194  0.7820  2.1303  0.5168
 2189TIP3   OH227981   2.188   5.688   5.634 -0.3932 -0.7359  0.3266
 2189TIP3    H127982   2.229   5.759   5.584  0.4771 -0.3200  1.5907
 2189TIP3    H227983   2.219   5.700   5.723 -2.6317 -0.9105  1.1996
 2190TIP3   OH227984   5.664   0.250  12.888  0.0653  0.5357 -0.7422
 2190TIP3    H127985   5.644   0.343  12.872  3.8255  1.5872 -0.2980
 2190TIP3    H227986   5.713   0.250  12.970 -1.7342 -2.2179  0.4623
 2191TIP3   OH227987   1.549   6.188  16.563  0.5172 -0.1262  0.3204
 2191TIP3    H127988   1.473   6.130  16.554  0.4104 -0.2081  1.5620
 2191TIP3    H227989   1.542   6.223  16.651  2.7016 -1.2610  1.0234
 2192TIP3   OH227990   5.862   1.172   5.360  0.0149  0.1340  0.2192
 2192TIP3    H127991   5.893   1.083   5.342  2.1381  0.9224 -0.2905
 2192TIP3    H227992   5.893   1.191   5.448 -0.4122  0.3737  0.3184
 2193TIP3   OH227993   4.491   6.428   1.061 -0.2741 -0.1637 -0.4909
 2193TIP3    H127994   4.440   6.352   1.034  0.5074 -1.4373  1.3905
 2193TIP3    H227995   4.523   6.406   1.148  2.6611  0.9823 -1.1500
 2194TIP3   OH227996   2.173   1.759   1.754 -0.5562  0.1904 -0.1668
 2194TIP3    H127997   2.077   1.758   1.749 -0.5416  0.8543 -0.6525
 2194TIP3    H227998   2.201   1.692   1.692 -0.7096 -0.3981  0.3797
 2195TIP3   OH227999   5.624   3.672  15.138  0.0010 -0.7820  0.7460
 2195TIP3    H128000   5.619   3.589  15.186  0.7565 -1.5045 -0.3650
 2195TIP3    H228001   5.702   3.663  15.083 -1.4648 -0.5353 -1.5363
 2196TIP3   OH228002   1.873   6.326  10.507 -0.2412 -0.0384 -0.3932
 2196TIP3    H128003   1.863   6.395  10.572 -1.0441 -0.9726  0.5189
 2196TIP3    H228004   1.823   6.356  10.431  1.0555  1.2553 -0.7755
 2197TIP3   OH228005   1.412   6.544   5.434  0.2547 -0.4100  0.2910
 2197TIP3    H128006   1.325   6.575   5.409  0.5111 -0.3056 -0.4982
 2197TIP3    H228007   1.450   6.616   5.483 -0.2799 -0.6440  1.0858
 2198TIP3   OH228008   6.749   0.926   2.049  0.1857 -0.8312  0.3272
 2198TIP3    H128009   6.812   0.919   2.121 -1.2879 -0.7705  1.6821
 2198TIP3    H228010   6.688   0.854   2.064 -2.1132  1.1738  1.1709
 2199TIP3   OH228011   6.433   6.634  11.393  0.3934 -0.0154  0.0195
 2199TIP3    H128012   6.372   6.571  11.431  0.0505  0.1846 -0.1954
 2199TIP3    H228013   6.503   6.580  11.355  1.1034 -0.2123  1.4958
 2200TIP3   OH228014   3.612   3.042   6.321  0.6882  0.0702 -0.2406
 2200TIP3    H128015   3.688   3.070   6.371  0.2555 -1.1098  1.1472
 2200TIP3    H228016   3.558   2.995   6.384 -0.7758  0.1210 -1.4037
 2201TIP3   OH228017   0.611   2.995  11.830  0.0824 -0.2052 -0.1400
 2201TIP3    H128018   0.583   3.076  11.873  2.2515 -0.8409  2.7573
 2201TIP3    H228019   0.670   3.025  11.760 -0.2210  0.7623  0.0074
 2202TIP3   OH228020   1.877   1.335  17.066  0.0251  0.6272  0.5805
 2202TIP3    H128021   1.958   1.352  17.018 -0.9776  1.6013 -0.8386
 2202TIP3    H228022   1.894   1.253  17.113  1.5407  0.3717 -0.3428
 2203TIP3   OH228023   6.124   4.005  13.181 -0.1663  0.2485 -0.1763
 2203TIP3    H128024   6.058   4.061  13.222 -0.4348  0.2566 -0.6161
 2203TIP3    H228025   6.191   4.065  13.148 -0.6447  0.3410 -0.9883
 2204TIP3   OH228026   5.028   4.473   5.783  0.5319  0.3832  0.3607
 2204TIP3    H128027   5.088   4.529   5.833 -0.1435  1.3376  0.1409
 2204TIP3    H228028   5.057   4.482   5.692  1.3457 -0.8241  0.4844
 2205TIP3   OH228029   4.724   6.459  12.680 -0.0718 -0.0006  0.3533
 2205TIP3    H128030   4.698   6.367  12.672 -0.8604  0.1019  1.5859
 2205TIP3    H228031   4.710   6.480  12.772 -0.5178  1.5429 -0.0501
 2206TIP3   OH228032   1.923   3.167  14.296 -0.0014 -0.1482  0.2865
 2206TIP3    H128033   1.886   3.079  14.292 -2.1165  0.6221  1.4947
 2206TIP3    H228034   2.016   3.154  14.312 -0.2156 -2.1500  0.0781
 2207TIP3   OH228035   3.026   2.928   5.011  0.6397 -0.0408  0.3877
 2207TIP3    H128036   2.945   2.937   5.060  0.0436  1.1645 -0.7484
 2207TIP3    H228037   3.039   2.834   5.003 -0.3324 -0.2466  1.0913
 2208TIP3   OH228038   2.657   6.179   1.834  0.3973 -0.1745 -0.0016
 2208TIP3    H128039   2.682   6.108   1.894 -0.4349 -1.7996 -1.5062
 2208TIP3    H228040   2.576   6.215   1.871  0.3468 -0.5932  0.2995
 2209TIP3   OH228041   4.254   6.039   0.205 -0.1427 -0.6255 -0.4176
 2209TIP3    H128042   4.194   6.083   0.145 -1.9251 -3.3714 -0.8198
 2209TIP3    H228043   4.316   5.992   0.148  1.2096  0.5703 -0.0037
 2210TIP3   OH228044   1.333   0.495  16.111  0.4229 -0.0718 -0.0659
 2210TIP3    H128045   1.359   0.584  16.134 -0.7190 -0.2001  1.9366
 2210TIP3    H228046   1.280   0.505  16.032 -1.7276  1.3961  1.4475
 2211TIP3   OH228047   5.919   1.455   2.933  0.0368 -0.1233  0.1673
 2211TIP3    H128048   5.982   1.383   2.925 -1.3834 -1.2683 -1.6766
 2211TIP3    H228049   5.859   1.426   3.003  0.7255  0.3226  0.9566
 2212TIP3   OH228050   2.446   4.890  17.012 -0.0143  0.2401 -0.2653
 2212TIP3    H128051   2.494   4.954  17.065 -1.2735  0.0321  1.1626
 2212TIP3    H228052   2.354   4.906  17.031 -0.3778 -1.8368 -0.0364
 2213TIP3   OH228053   6.524   4.802   0.117 -0.0323 -0.3944  0.0155
 2213TIP3    H128054   6.617   4.816   0.098  0.0324 -1.1749 -0.2895
 2213TIP3    H228055   6.512   4.708   0.106 -1.0195 -0.1997 -0.6823
 2214TIP3   OH228056   5.131   5.622   5.109 -0.0878 -0.4115  0.0489
 2214TIP3    H128057   5.125   5.536   5.152  0.6644 -1.2041 -1.3757
 2214TIP3    H228058   5.084   5.611   5.027  0.6106  0.3248 -0.4633
 2215TIP3   OH228059   3.296   4.683   5.468  0.0101  0.0676 -0.8499
 2215TIP3    H128060   3.251   4.712   5.547 -1.1074  0.6210 -1.6527
 2215TIP3    H228061   3.236   4.619   5.429 -0.1902  0.9139 -2.0036
 2216TIP3   OH228062   6.198   5.982  13.693  0.1533  0.8549 -0.0700
 2216TIP3    H128063   6.189   6.076  13.676  0.0225  0.8593  0.0247
 2216TIP3    H228064   6.122   5.960  13.746 -0.8023  0.3126 -1.6123
 2217TIP3   OH228065   5.567   0.112   4.030 -0.1953  0.1548  0.3011
 2217TIP3    H128066   5.519   0.150   4.104 -3.2708 -1.0150 -0.9448
 2217TIP3    H228067   5.516   0.136   3.953  0.2591 -2.5402 -0.9754
 2218TIP3   OH228068   0.530   5.946  15.535 -0.4929  0.6369  0.2827
 2218TIP3    H128069   0.508   6.017  15.474  1.8184 -0.0348 -1.4804
 2218TIP3    H228070   0.567   5.991  15.611 -1.3254  1.3978  0.2674
 2219TIP3   OH228071   1.065   6.650  13.954 -0.5911 -0.2485 -0.1782
 2219TIP3    H128072   1.004   6.592  13.909 -0.9345  0.2345 -0.3490
 2219TIP3    H228073   1.074   6.725  13.895  1.6647 -1.1339 -1.0908
 2220TIP3   OH228074   0.510   5.032   5.087  0.2557 -0.5672  0.5990
 2220TIP3    H128075   0.535   5.000   5.000  0.4795 -0.4002  0.6006
 2220TIP3    H228076   0.432   5.085   5.071 -1.9782 -3.4416  0.9428
 2221TIP3   OH228077   5.616   1.250  16.146 -0.4810  0.1585  0.2677
 2221TIP3    H128078   5.671   1.178  16.115 -1.8765 -0.9736  0.3499
 2221TIP3    H228079   5.659   1.279  16.227  0.5311 -0.0312 -0.1834
 2222TIP3   OH228080   6.059   5.055   0.360 -0.3768  0.2320 -0.1846
 2222TIP3    H128081   6.107   5.081   0.281  2.0081 -0.4551  0.9510
 2222TIP3    H228082   6.127   5.029   0.422 -2.1641  1.0025  2.2231
 2223TIP3   OH228083   3.868   5.586  11.768 -0.2315 -0.4205 -0.6480
 2223TIP3    H128084   3.817   5.539  11.834  0.7790 -0.8332 -0.1511
 2223TIP3    H228085   3.878   5.523  11.696 -2.1742  0.3515 -1.6639
 2224TIP3   OH228086   5.731   3.099   3.895 -0.0612  0.0825  0.4766
 2224TIP3    H128087   5.805   3.133   3.947  0.9242 -0.4070 -0.5609
 2224TIP3    H228088   5.661   3.163   3.908  1.1543  1.5576  0.0399
 2225TIP3   OH228089   4.819   5.101  13.663 -0.0466  0.3731  0.2087
 2225TIP3    H128090   4.846   5.032  13.602  0.4994 -0.8719  1.8145
 2225TIP3    H228091   4.724   5.108  13.650 -0.1870 -1.0421  0.3767
 2226TIP3   OH228092   6.583   1.791   4.366  0.1386  0.2335 -0.3205
 2226TIP3    H128093   6.635   1.819   4.441 -2.0641  0.6614  1.1348
 2226TIP3    H228094   6.621   1.706   4.341 -0.1534 -0.8432  2.4803
 2227TIP3   OH228095   5.017   1.610  12.920 -0.4405 -0.3949  0.8665
 2227TIP3    H128096   5.062   1.569  12.993 -1.1469  0.5206  1.8389
 2227TIP3    H228097   5.084   1.664  12.878 -0.2611 -0.1840  1.4150
 2228TIP3   OH228098   0.902   2.602  15.949  0.3939 -0.3648  0.5950
 2228TIP3    H128099   0.848   2.678  15.928 -0.5093 -1.5453 -1.6409
 2228TIP3    H228100   0.902   2.599  16.045  0.0736  2.1399  0.7363
 2229TIP3   OH228101   5.151   6.350  14.577  0.2815  0.3201  0.4045
 2229TIP3    H128102   5.090   6.330  14.649 -0.6075 -1.6184 -0.7978
 2229TIP3    H228103   5.111   6.424  14.532  0.8535  1.5658  1.8780
 2230TIP3   OH228104   6.529   5.741   2.786 -0.4164  0.4230 -0.6613
 2230TIP3    H128105   6.466   5.741   2.715 -1.1825 -0.3595  0.0043
 2230TIP3    H228106   6.477   5.729   2.865  0.6638 -1.9325 -0.2152
 2231TIP3   OH228107   2.939   4.727   3.389 -0.0375 -0.4236 -0.7131
 2231TIP3    H128108   2.921   4.645   3.435  0.6202 -2.1618 -3.3342
 2231TIP3    H228109   3.034   4.729   3.379  0.0843  1.3558  0.4071
 2232TIP3   OH228110   3.266   2.819  13.463 -0.4704 -0.3334 -0.3592
 2232TIP3    H128111   3.314   2.901  13.473 -0.9216 -0.1730  0.6576
 2232TIP3    H228112   3.289   2.787  13.376  1.8982 -0.5473  0.2944
 2233TIP3   OH228113   2.863   0.923  16.878  0.8358  0.5782  0.0691
 2233TIP3    H128114   2.931   0.928  16.811  0.3457 -2.4945 -0.7835
 2233TIP3    H228115   2.844   0.830  16.887 -3.6261  1.2688 -0.0784
 2234TIP3   OH228116   4.412   0.490   3.328 -0.3392  0.2395 -0.1285
 2234TIP3    H128117   4.333   0.498   3.381 -0.9404 -0.9235 -0.8327
 2234TIP3    H228118   4.428   0.578   3.295 -1.9428  0.2834 -0.8437
 2235TIP3   OH228119   1.067   4.359   3.792 -0.3796  0.2090  0.3606
 2235TIP3    H128120   1.048   4.288   3.730  1.2121  1.0324 -1.1585
 2235TIP3    H228121   1.069   4.315   3.877 -0.5103 -1.3844 -0.4021
 2236TIP3   OH228122   5.532   2.035  16.532  0.4319 -0.1561 -0.3434
 2236TIP3    H128123   5.477   2.003  16.460  0.9024 -0.4892 -0.5606
 2236TIP3    H228124   5.616   1.992  16.519 -0.1286 -2.0822  1.7708
 2237TIP3   OH228125   0.815   4.281  13.540  0.6587  0.0102 -0.4109
 2237TIP3    H128126   0.789   4.352  13.598  0.9855 -0.9890  1.0123
 2237TIP3    H228127   0.751   4.211  13.557  1.5244 -0.7695 -0.2744
 2238TIP3   OH228128   1.872   3.358  16.237  0.4923 -0.1091 -0.1575
 2238TIP3    H128129   1.887   3.400  16.321  0.3653  0.3181 -0.3449
 2238TIP3    H228130   1.854   3.430  16.177  0.7554 -0.3980 -0.5879
 2239TIP3   OH228131   1.290   2.915  17.102  0.0741 -0.4618 -0.4021
 2239TIP3    H128132   1.385   2.912  17.116  0.0582  0.9670  0.2486
 2239TIP3    H228133   1.254   2.853  17.165  0.5888 -1.4374 -1.0424
 2240TIP3   OH228134   0.728   0.980   5.425 -0.5003  0.0987 -0.1521
 2240TIP3    H128135   0.650   1.016   5.468  0.5631  0.4518  1.5775
 2240TIP3    H228136   0.752   0.904   5.479  0.3090 -0.0551 -0.7137
 2241TIP3   OH228137   5.371   3.467  16.800 -0.3129  0.5093  0.0915
 2241TIP3    H128138   5.288   3.511  16.783 -0.2061  0.4692 -0.5673
 2241TIP3    H228139   5.353   3.374  16.783 -0.1555  0.4906  0.0249
 2242TIP3   OH228140   6.042   0.713  14.010 -0.1654 -0.0884  0.2577
 2242TIP3    H128141   6.098   0.717  13.933 -0.5459  0.5906  0.0080
 2242TIP3    H228142   5.983   0.639  13.993  1.7316 -1.9393  1.2942
 2243TIP3   OH228143   6.117   3.890  15.277 -0.1110 -0.0133  0.5161
 2243TIP3    H128144   6.152   3.979  15.283 -1.7928  0.8483 -1.2480
 2243TIP3    H228145   6.150   3.857  15.193 -1.4190 -0.1214  0.0229
 2244TIP3   OH228146   1.741   6.161  14.718  0.0961 -0.7231  0.1488
 2244TIP3    H128147   1.731   6.150  14.812 -2.5889  0.6557  0.1192
 2244TIP3    H228148   1.696   6.086  14.680 -0.9493 -0.0527  0.0089
 2245TIP3   OH228149   5.828   2.739   5.018  0.4781  0.4237 -0.3536
 2245TIP3    H128150   5.756   2.802   5.014 -0.7032 -0.8497  0.0704
 2245TIP3    H228151   5.812   2.680   4.944  1.9734  1.0144 -1.1827
 2246TIP3   OH228152   5.788   1.474   3.717  0.0545 -0.3908 -0.1296
 2246TIP3    H128153   5.786   1.560   3.759  0.1990 -0.8924  0.9213
 2246TIP3    H228154   5.699   1.463   3.683 -0.3289 -0.3623  0.8405
 2247TIP3   OH228155   3.747   1.008  13.061  0.4922  0.3889 -0.3811
 2247TIP3    H128156   3.782   1.068  13.127  1.7577 -0.4469 -0.2430
 2247TIP3    H228157   3.771   0.921  13.093 -1.0813 -0.1998 -0.6989
 2248TIP3   OH228158   1.925   3.207  17.245  0.9935  0.2781  0.4140
 2248TIP3    H128159   1.868   3.152  17.192  2.2753  0.4432 -1.2101
 2248TIP3    H228160   1.979   3.146  17.295 -0.2435  0.1237  1.6599
 2249TIP3   OH228161   4.441   2.533  12.197  0.1024  0.3047  0.0758
 2249TIP3    H128162   4.358   2.547  12.242 -0.5873 -0.8422 -0.7759
 2249TIP3    H228163   4.491   2.476  12.256  1.5565  3.2635  1.9670
 2250TIP3   OH228164   6.351   3.771   1.635 -0.2418  0.3848 -0.1948
 2250TIP3    H128165   6.333   3.716   1.711  1.7568  1.5998  1.2467
 2250TIP3    H228166   6.414   3.721   1.584  0.8933  0.9139  0.6551
 2251TIP3   OH228167   4.064   5.664   0.675  0.5524  0.1211 -0.3757
 2251TIP3    H128168   4.158   5.681   0.672  0.3521  1.3107 -0.3091
 2251TIP3    H228169   4.030   5.725   0.740 -0.1539 -0.9234  0.2771
 2252TIP3   OH228170   3.363   3.829  10.870  0.2058 -0.3382  0.2952
 2252TIP3    H128171   3.379   3.777  10.791 -0.8315  1.1410 -0.9418
 2252TIP3    H228172   3.382   3.919  10.844  0.3870  0.1354  1.9222
 2253TIP3   OH228173   0.905   5.319  11.813  0.2436 -0.1671 -0.5790
 2253TIP3    H128174   0.817   5.349  11.791  0.9265  2.0340 -0.5347
 2253TIP3    H228175   0.934   5.271  11.736 -0.2255  0.9222 -1.4601
 2254TIP3   OH228176   0.707   4.755   4.406  0.2583  0.3827  0.4487
 2254TIP3    H128177   0.683   4.704   4.484 -1.5238 -0.0730 -0.3492
 2254TIP3    H228178   0.719   4.689   4.337  2.4783  0.7281  0.4355
 2255TIP3   OH228179   0.432   3.187   0.461 -0.0259 -0.3064  0.2436
 2255TIP3    H128180   0.446   3.092   0.458  0.9096 -0.2128  0.9964
 2255TIP3    H228181   0.500   3.219   0.521 -1.2474  0.6604  1.1692
 2256TIP3   OH228182   1.949   3.029   0.261  1.1584 -0.5199 -0.1725
 2256TIP3    H128183   1.935   3.115   0.300  1.7003 -0.7012  0.4460
 2256TIP3    H228184   2.043   3.012   0.274  1.4951 -0.3457 -2.0572
 2257TIP3   OH228185   3.170   5.624   5.589  0.2475  0.1540  0.1886
 2257TIP3    H128186   3.125   5.578   5.518 -0.6851  1.7554 -0.2987
 2257TIP3    H228187   3.210   5.554   5.641 -1.9836 -1.3142  0.0787
 2258TIP3   OH228188   2.060   1.005  10.977 -0.2331 -0.7597 -0.1238
 2258TIP3    H128189   2.027   1.083  10.933  0.5359 -0.0072  0.5818
 2258TIP3    H228190   2.117   0.963  10.913 -0.7187 -0.7877 -0.5370
 2259TIP3   OH228191   6.340   2.881   3.538  0.4879  0.9047  0.2579
 2259TIP3    H128192   6.329   2.909   3.447  0.3720  1.5602  0.4675
 2259TIP3    H228193   6.321   2.959   3.590 -0.4466  0.2773  0.8904
 2260TIP3   OH228194   1.907   6.044  11.396 -0.3271 -0.1481 -0.6677
 2260TIP3    H128195   1.925   5.992  11.474 -0.1007 -0.2538 -0.7906
 2260TIP3    H228196   1.831   6.096  11.419  1.9045  2.6578  1.0279
 2261TIP3   OH228197   5.010   3.760  16.537 -0.1704 -0.2708  0.1869
 2261TIP3    H128198   4.921   3.790  16.557 -0.2291 -0.4320  0.1757
 2261TIP3    H228199   5.023   3.685  16.596 -0.1479 -0.4209 -0.0099
 2262TIP3   OH228200   4.672   4.437   1.493 -0.0702 -0.3576  0.1686
 2262TIP3    H128201   4.675   4.344   1.518 -0.9737 -0.4483 -0.0255
 2262TIP3    H228202   4.605   4.441   1.425  1.6956  0.0258 -1.6449
 2263TIP3   OH228203   5.323   2.433  16.258  0.4630 -0.1392 -0.0863
 2263TIP3    H128204   5.275   2.391  16.329  1.5372 -0.4522  0.4777
 2263TIP3    H228205   5.319   2.527  16.277  1.8575 -0.2986  1.1402
 2264TIP3   OH228206   2.373   5.594   2.460  0.0400 -0.3260  0.0259
 2264TIP3    H128207   2.282   5.603   2.431  1.0936  3.0604 -3.0439
 2264TIP3    H228208   2.410   5.525   2.405  0.1609  0.9589 -1.5962
 2265TIP3   OH228209   1.199   5.654  15.695 -0.0362 -0.3103  0.1594
 2265TIP3    H128210   1.198   5.744  15.664 -1.4633 -0.7716 -1.2509
 2265TIP3    H228211   1.286   5.643  15.734  1.0667  0.9633 -1.7793
 2266TIP3   OH228212   5.616   6.251   3.709 -0.2494  0.2169  0.8705
 2266TIP3    H128213   5.661   6.245   3.625  0.1959 -0.1891  1.1318
 2266TIP3    H228214   5.686   6.258   3.774 -0.5603 -0.3428  1.2799
 2267TIP3   OH228215   1.844   0.529   2.273  0.2912  0.7918 -0.3989
 2267TIP3    H128216   1.755   0.539   2.308  0.5140  2.7824 -0.3081
 2267TIP3    H228217   1.833   0.535   2.178  0.4132  1.8644 -0.3493
 2268TIP3   OH228218   0.727   1.990  15.314  0.8151 -0.0095  0.0500
 2268TIP3    H128219   0.721   2.079  15.347  0.0961 -0.0232 -0.0144
 2268TIP3    H228220   0.637   1.967  15.292  1.2107 -0.1372 -1.5591
 2269TIP3   OH228221   4.652   4.903   2.288  0.1944 -0.0421  0.0974
 2269TIP3    H128222   4.725   4.859   2.332 -0.4389 -0.9105  0.3202
 2269TIP3    H228223   4.601   4.941   2.359  1.3703  2.1638 -0.1495
 2270TIP3   OH228224   5.538   4.399   4.287  0.2028 -0.7060 -0.8570
 2270TIP3    H128225   5.491   4.475   4.251  1.0114 -0.6180 -1.7658
 2270TIP3    H228226   5.471   4.331   4.292 -0.7136  0.2387  0.6416
 2271TIP3   OH228227   0.543   0.093   4.195 -1.0076 -0.1280 -0.4806
 2271TIP3    H128228   0.523   0.074   4.286  0.3544 -1.0275 -0.3427
 2271TIP3    H228229   0.506   0.180   4.180  0.7568  1.0936  1.6283
 2272TIP3   OH228230   3.989   0.722  11.821 -0.2555 -0.5152  1.0093
 2272TIP3    H128231   4.052   0.650  11.813 -0.1135 -0.2420 -0.7810
 2272TIP3    H228232   4.043   0.801  11.821 -0.5405 -0.3162  0.3945
 2273TIP3   OH228233   4.617   0.992  15.166  0.2554  0.0827 -0.2556
 2273TIP3    H128234   4.639   1.003  15.259  1.4999 -2.1146 -0.2168
 2273TIP3    H228235   4.546   0.928  15.166  0.1128  0.2379 -0.8184
 2274TIP3   OH228236   4.323   6.698   2.527  0.1713  0.1437 -0.3297
 2274TIP3    H128237   4.253   6.675   2.588  0.7706 -1.7947 -0.3134
 2274TIP3    H228238   4.398   6.648   2.557  1.2597  1.2922 -1.0440
 2275TIP3   OH228239   0.329   6.100   3.493 -0.5527 -0.4999 -0.0334
 2275TIP3    H128240   0.279   6.155   3.553  0.7654 -0.5613  1.1677
 2275TIP3    H228241   0.292   6.012   3.503  0.6215 -0.8391  1.9023
 2276TIP3   OH228242   2.176   2.119   1.078 -0.0617  0.1517 -0.0509
 2276TIP3    H128243   2.139   2.175   1.146 -0.2197 -1.8292  1.5705
 2276TIP3    H228244   2.106   2.113   1.012 -0.6552  0.5275  0.5315
 2277TIP3   OH228245   6.116   2.999  17.007 -0.1431  0.3127  0.2182
 2277TIP3    H128246   6.196   2.981  16.957 -0.4249  0.4720 -0.2954
 2277TIP3    H228247   6.146   3.049  17.082  0.3132 -0.0911  0.3144
 2278TIP3   OH228248   5.997   5.092   3.754 -0.9267  0.6433 -0.0293
 2278TIP3    H128249   6.016   5.150   3.829 -0.4198  1.2070 -0.5762
 2278TIP3    H228250   5.958   5.014   3.793 -0.1910  0.7070  0.8785
 2279TIP3   OH228251   1.488   0.955   4.199 -0.1687  0.0546 -0.2990
 2279TIP3    H128252   1.515   1.044   4.175  1.9607 -0.4618 -0.0113
 2279TIP3    H228253   1.401   0.946   4.162 -0.4490  2.2614 -0.3284
 2280TIP3   OH228254   0.002   3.344  15.068 -0.0525  0.2141  0.5037
 2280TIP3    H128255   0.077   3.289  15.049  0.9769  2.2732 -1.9876
 2280TIP3    H228256   0.038   3.431  15.082 -1.8667  0.9749  0.8247
 2281TIP3   OH228257   0.130   6.707  17.006  0.1965 -0.4098 -0.0168
 2281TIP3    H128258   0.216   6.666  17.017 -0.0212 -0.4588  1.7045
 2281TIP3    H228259   0.085   6.651  16.942 -0.3561 -3.4148  2.7483
 2282TIP3   OH228260   6.650   4.517   3.255  0.3800  0.2096 -0.4028
 2282TIP3    H128261   6.589   4.540   3.325  0.6556 -0.8899  0.2125
 2282TIP3    H228262   6.620   4.569   3.180  0.3681  1.7667  0.6317
 2283TIP3   OH228263   0.042   4.659  13.319 -0.4910  0.0079  0.1197
 2283TIP3    H128264   0.024   4.729  13.257 -0.7801 -1.2618 -1.2834
 2283TIP3    H228265   0.129   4.628  13.296 -0.3542 -0.0879  0.7435
 2284TIP3   OH228266   4.339   2.368   4.366  0.1030 -0.1693 -0.2606
 2284TIP3    H128267   4.403   2.401   4.303  1.6686 -4.0036 -0.9792
 2284TIP3    H228268   4.303   2.446   4.407  2.6286  2.3346 -2.3908
 2285TIP3   OH228269   5.492   6.244  15.360  0.3403  0.4931  1.2514
 2285TIP3    H128270   5.424   6.312  15.365  2.3072  2.6274  0.6936
 2285TIP3    H228271   5.459   6.183  15.294  0.1733  3.0656 -1.2350
 2286TIP3   OH228272   4.815   0.606   4.420  0.6202 -0.2367 -0.0475
 2286TIP3    H128273   4.777   0.683   4.462  2.0161  0.2663  0.3408
 2286TIP3    H228274   4.784   0.532   4.473  0.7990  0.2218  0.7002
 2287TIP3   OH228275   4.743   2.325  11.143 -0.0674 -0.6058  0.1399
 2287TIP3    H128276   4.657   2.325  11.185 -0.8466  1.5580 -1.2494
 2287TIP3    H228277   4.803   2.353  11.211 -0.9738  0.7792  0.4193
 2288TIP3   OH228278   3.628   1.647  17.259  0.2437 -0.1438  0.2504
 2288TIP3    H128279   3.606   1.683  17.173  0.3083 -0.0896  0.2556
 2288TIP3    H228280   3.721   1.625  17.253 -0.1413 -1.6976 -0.2279
 2289TIP3   OH228281   4.548   3.163   4.376  0.3073 -0.4825 -0.2808
 2289TIP3    H128282   4.515   3.114   4.452 -0.1560 -0.4043 -0.4284
 2289TIP3    H228283   4.485   3.144   4.306 -0.8036  1.5748  0.0833
 2290TIP3   OH228284   2.371   4.270  11.417 -1.0142  0.1582  0.4139
 2290TIP3    H128285   2.361   4.175  11.425 -0.1434  0.0937  0.8295
 2290TIP3    H228286   2.411   4.282  11.331 -0.8245  0.1195  0.4951
 2291TIP3   OH228287   6.398   2.350   0.414  0.1860 -0.1160  0.2437
 2291TIP3    H128288   6.471   2.298   0.449 -0.2933 -0.2151  1.1275
 2291TIP3    H228289   6.405   2.434   0.461  0.3247  0.2448 -0.4072
 2292TIP3   OH228290   3.821   0.859  12.853 -0.3381  0.4748 -0.5361
 2292TIP3    H128291   3.812   0.858  12.758  0.4424  0.7018 -0.6132
 2292TIP3    H228292   3.782   0.942  12.880 -1.2280  0.0843 -0.5800
 2293TIP3   OH228293   4.464   2.570  17.002 -0.2139 -0.2482 -0.3722
 2293TIP3    H128294   4.394   2.635  16.996  0.5498  0.8161  1.3391
 2293TIP3    H228295   4.474   2.554  17.096  1.8928 -0.2552 -0.5293
 2294TIP3   OH228296   0.017   6.719   3.228  0.3286 -0.7475  0.1236
 2294TIP3    H128297  -0.028   6.803   3.239 -0.8574 -1.0807 -1.7468
 2294TIP3    H228298   0.109   6.739   3.242 -0.1555  0.3612  2.1032
 2295TIP3   OH228299   6.177   6.605  12.119 -0.6204 -0.4470 -0.1480
 2295TIP3    H128300   6.157   6.688  12.163 -1.6944 -0.1107 -1.2283
 2295TIP3    H228301   6.091   6.569  12.096 -0.2433 -2.4847  1.3831
 2296TIP3   OH228302   5.883   0.800  16.207 -0.1289 -0.0091 -0.3438
 2296TIP3    H128303   5.822   0.727  16.202  1.5045 -1.4705 -0.0874
 2296TIP3    H228304   5.940   0.790  16.130  0.4337  0.6791 -0.0330
 2297TIP3   OH228305   0.941   2.886   4.858  0.6439  0.1909 -0.0209
 2297TIP3    H128306   0.966   2.965   4.809 -0.2140 -0.2067 -1.1260
 2297TIP3    H228307   0.846   2.879   4.846  0.5096 -0.2711  1.1941
 2298TIP3   OH228308   2.941   5.675  11.364 -0.3632  0.4983 -0.3809
 2298TIP3    H128309   3.027   5.712  11.387 -0.5956  1.4842 -1.0340
 2298TIP3    H228310   2.961   5.596  11.314  0.2483  2.0186 -2.7021
 2299TIP3   OH228311   2.818   4.859  15.328 -0.4862  0.0367  0.4339
 2299TIP3    H128312   2.906   4.844  15.361 -0.5768 -3.3472 -0.5219
 2299TIP3    H228313   2.761   4.845  15.403 -0.3762 -1.7450  0.2133
 2300TIP3   OH228314   1.648   5.844  15.934  0.1574  0.3583  0.1819
 2300TIP3    H128315   1.560   5.824  15.968 -0.6069 -0.3270 -2.0455
 2300TIP3    H228316   1.635   5.918  15.876  0.4879 -1.3722 -2.2505
 2301TIP3   OH228317   0.191   1.019   4.998  0.0189  0.5157  0.6766
 2301TIP3    H128318   0.125   1.079   5.032 -1.3227  1.2909 -2.8449
 2301TIP3    H228319   0.149   0.934   4.999  0.1776  0.4428  1.3767
 2302TIP3   OH228320   6.175   2.252   3.021  0.5761 -0.8518 -0.1311
 2302TIP3    H128321   6.089   2.216   3.045  0.1944 -0.1766 -0.4403
 2302TIP3    H228322   6.178   2.241   2.926 -0.5625  1.9873 -0.5857
 2303TIP3   OH228323   0.826   5.156  15.436  0.0581  1.1817  0.0859
 2303TIP3    H128324   0.890   5.194  15.376 -0.5161 -1.4059 -2.3664
 2303TIP3    H228325   0.750   5.139  15.381 -0.9532 -0.2064  1.8388
 2304TIP3   OH228326   5.554   5.275   1.446  0.6228 -0.6991  0.0785
 2304TIP3    H128327   5.625   5.241   1.500 -0.9065 -0.8869  2.0906
 2304TIP3    H228328   5.505   5.333   1.504 -0.5532 -0.1364 -1.4016
 2305TIP3   OH228329   5.951   2.960   2.057 -0.4687  0.3931 -0.9283
 2305TIP3    H128330   5.914   2.976   2.144 -0.2662  0.7928 -0.9122
 2305TIP3    H228331   5.976   2.868   2.058 -0.3737  0.4221 -0.5256
 2306TIP3   OH228332   2.457   3.643   4.086 -0.1699  0.7482  0.7400
 2306TIP3    H128333   2.455   3.660   3.992  0.1976 -1.3104  0.3245
 2306TIP3    H228334   2.446   3.730   4.126 -3.7572  1.3487 -1.1297
 2307TIP3   OH228335   4.648   0.941  15.904 -0.1554  0.0406  0.0106
 2307TIP3    H128336   4.585   0.968  15.971  0.8337 -0.6487  1.2767
 2307TIP3    H228337   4.607   0.965  15.821 -0.7840  2.2461  0.9042
 2308TIP3   OH228338   2.795   3.576  12.807 -0.3065  0.1407 -0.9248
 2308TIP3    H128339   2.841   3.542  12.883 -0.9643  1.8348  0.2935
 2308TIP3    H228340   2.787   3.501  12.748  3.2835 -0.4238 -0.9209
 2309TIP3   OH228341   5.298   0.810   3.959 -0.4489 -0.1524  0.2338
 2309TIP3    H128342   5.294   0.733   4.016 -0.3695  0.6852  1.3974
 2309TIP3    H228343   5.212   0.851   3.968  0.7736  2.1645  2.9483
 2310TIP3   OH228344   2.642   3.879   5.655 -0.6880 -0.0560  0.0264
 2310TIP3    H128345   2.552   3.903   5.674 -0.2615  1.3517  0.3857
 2310TIP3    H228346   2.669   3.938   5.584  0.0420 -0.2435  0.1346
 2311TIP3   OH228347   4.032   5.978  13.183  0.0084 -0.0306  0.2983
 2311TIP3    H128348   4.112   5.938  13.216 -0.0721 -0.4699 -0.0240
 2311TIP3    H228349   3.975   5.984  13.260 -0.0794 -0.8018  0.3043
 2312TIP3   OH228350   0.403   2.371   1.649 -0.1581  0.3432 -0.1661
 2312TIP3    H128351   0.441   2.283   1.650  0.8265  0.6322 -2.7725
 2312TIP3    H228352   0.467   2.426   1.693 -0.9699 -0.2418  1.8544
 2313TIP3   OH228353   1.167   2.677  16.167 -0.3399  0.3557 -0.1446
 2313TIP3    H128354   1.082   2.653  16.202  0.0678  0.7720  1.2183
 2313TIP3    H228355   1.148   2.724  16.086 -1.4422  1.2022  0.5864
 2314TIP3   OH228356   3.658   0.515  15.893 -0.3645 -0.3224  0.5041
 2314TIP3    H128357   3.564   0.502  15.902 -0.5937  0.3948 -0.6722
 2314TIP3    H228358   3.678   0.484  15.805  0.6146 -0.9842  0.9405
 2315TIP3   OH228359   2.433   5.810  15.001 -0.3541 -0.4243 -0.6148
 2315TIP3    H128360   2.476   5.780  14.922  0.2285  0.4544 -0.6452
 2315TIP3    H228361   2.423   5.732  15.055 -2.3282 -1.3905 -2.2414
 2316TIP3   OH228362   2.252   2.063  16.989  0.2808  0.1682 -0.0285
 2316TIP3    H128363   2.210   2.076  17.074  0.7796 -1.3582  0.4699
 2316TIP3    H228364   2.190   2.011  16.939 -0.2770  1.5663 -0.8483
 2317TIP3   OH228365   1.057   2.167  14.621  0.0802  0.4672 -0.1453
 2317TIP3    H128366   0.997   2.241  14.625 -0.7266 -0.1809 -0.0944
 2317TIP3    H228367   1.100   2.166  14.706  0.2822  1.0249 -0.2355
 2318TIP3   OH228368   4.494   0.668   0.837  0.2596  0.2481  0.4213
 2318TIP3    H128369   4.563   0.675   0.772  0.3029  0.2908  0.4724
 2318TIP3    H228370   4.413   0.685   0.788  0.2120 -0.5950  0.1942
 2319TIP3   OH228371   2.262   3.726  15.506  0.0748 -0.2472 -0.0207
 2319TIP3    H128372   2.281   3.767  15.590  2.1041  2.8574 -1.8200
 2319TIP3    H228373   2.294   3.637  15.515  0.4683  0.0706  2.3791
 2320TIP3   OH228374   4.400   5.328  14.255 -0.4676  0.3525  0.0576
 2320TIP3    H128375   4.433   5.414  14.280  0.2242  0.4657 -1.1649
 2320TIP3    H228376   4.374   5.287  14.338 -0.7458  1.6984  0.6600
 2321TIP3   OH228377   4.501   2.476   1.909 -0.5362 -0.2877 -0.0024
 2321TIP3    H128378   4.431   2.514   1.856  0.3793  2.2325  0.5045
 2321TIP3    H228379   4.475   2.493   1.999 -1.4874 -3.5007  0.4539
 2322TIP3   OH228380   3.532   0.636   4.217  0.1208 -0.4673 -0.6270
 2322TIP3    H128381   3.510   0.562   4.272 -0.2934  0.4944  0.5409
 2322TIP3    H228382   3.514   0.606   4.128 -1.1762 -1.3889 -0.0885
 2323TIP3   OH228383   4.073   4.575   4.034 -0.1761 -0.3218 -0.2769
 2323TIP3    H128384   4.097   4.507   4.097 -1.1027 -0.3571  0.0561
 2323TIP3    H228385   4.075   4.657   4.084 -1.7292 -0.4489  0.0440
 2324TIP3   OH228386   5.935   2.427   0.658 -0.2504 -0.0178  0.0414
 2324TIP3    H128387   5.918   2.394   0.746 -2.1317  0.5731 -0.0614
 2324TIP3    H228388   5.900   2.358   0.600 -0.1289  0.1473 -0.2291
 2325TIP3   OH228389   1.486   0.395  10.724 -0.4073 -0.5037  0.1149
 2325TIP3    H128390   1.408   0.374  10.674 -1.6687  2.7685  0.4465
 2325TIP3    H228391   1.523   0.471  10.680  0.0328  0.7479  2.4686
 2326TIP3   OH228392   5.696   6.394  15.498  0.3298  0.7332 -0.3489
 2326TIP3    H128393   5.636   6.320  15.488  1.3672 -0.4018  1.4235
 2326TIP3    H228394   5.762   6.381  15.430  0.4386  0.0991 -0.1246
 2327TIP3   OH228395   5.005   2.072   6.266  0.2420  0.3453  0.2486
 2327TIP3    H128396   4.963   2.155   6.292  0.6696  0.1467  1.6748
 2327TIP3    H228397   5.092   2.077   6.305  1.1956  0.2683 -1.7457
 2328TIP3   OH228398   3.169   5.685   1.786  0.3786  0.5766  0.2551
 2328TIP3    H128399   3.205   5.772   1.803  0.5803  0.1550  2.2406
 2328TIP3    H228400   3.075   5.695   1.799  0.2053  0.8002 -1.0196
 2329TIP3   OH228401   1.633   6.017   3.634  0.2210  0.1008 -0.3937
 2329TIP3    H128402   1.594   5.931   3.645 -0.6615  0.6025  0.7464
 2329TIP3    H228403   1.559   6.078   3.636  0.8989  0.9526 -0.1128
 2330TIP3   OH228404   1.790   5.959   4.558  0.3183 -0.1532 -0.0792
 2330TIP3    H128405   1.750   5.940   4.473 -0.8824 -0.3556  0.5133
 2330TIP3    H228406   1.879   5.925   4.550 -0.3064 -1.7611 -0.6727
 2331TIP3   OH228407   6.138   2.406  16.811  0.4069 -0.7055  0.5090
 2331TIP3    H128408   6.166   2.392  16.902  1.7449 -2.2880 -0.1133
 2331TIP3    H228409   6.046   2.380  16.810  0.7103 -1.8536  1.1543
 2332TIP3   OH228410   3.974   0.431   3.814  0.0185 -0.0870  0.2636
 2332TIP3    H128411   3.941   0.458   3.728  0.6922  0.4138  0.1497
 2332TIP3    H228412   3.913   0.471   3.876  0.9429  1.7076  0.0936
 2333TIP3   OH228413   0.778   0.714  10.628  0.9486  0.2429  0.1903
 2333TIP3    H128414   0.868   0.740  10.608  1.3732 -0.5345  1.0200
 2333TIP3    H228415   0.764   0.633  10.579  0.6441  0.4324 -0.0450
 2334TIP3   OH228416   5.768   4.417  12.814  0.1735 -0.3691 -0.4368
 2334TIP3    H128417   5.703   4.424  12.884  1.8876  1.1634  1.1392
 2334TIP3    H228418   5.807   4.330  12.826  0.4538 -0.1227  0.5743
 2335TIP3   OH228419   2.062   4.686   1.424 -0.2079  0.0211 -0.4568
 2335TIP3    H128420   2.099   4.673   1.511  2.2703 -1.7579 -1.6631
 2335TIP3    H228421   2.036   4.599   1.395  1.2187  0.1623 -2.3630
 2336TIP3   OH228422   0.583   2.923   3.991  0.3081  0.0821 -0.7022
 2336TIP3    H128423   0.519   2.949   4.057 -0.2563 -0.1482 -1.1488
 2336TIP3    H228424   0.615   3.006   3.956  2.2168  0.2765  1.3297
 2337TIP3   OH228425   4.152   5.124  14.191  0.3874  0.2641 -0.3780
 2337TIP3    H128426   4.114   5.039  14.215 -3.5764  1.7460 -0.6259
 2337TIP3    H228427   4.215   5.103  14.121 -0.5467 -2.4472 -0.5322
 2338TIP3   OH228428   3.239   5.873  16.121  0.4554 -0.2864 -0.2502
 2338TIP3    H128429   3.271   5.798  16.171  1.2874  0.0602 -0.2466
 2338TIP3    H228430   3.216   5.938  16.187  0.2804 -0.3227 -0.2752
 2339TIP3   OH228431   2.415   6.223  15.094 -0.7341  0.3242  0.3628
 2339TIP3    H128432   2.477   6.152  15.114  1.1660  1.5447 -0.8124
 2339TIP3    H228433   2.446   6.259  15.010 -3.0330  1.0694 -0.2549
 2340TIP3   OH228434   6.165   1.950  12.760  0.1634  0.2255 -0.4924
 2340TIP3    H128435   6.191   2.037  12.731  1.3162 -0.2055 -0.8160
 2340TIP3    H228436   6.217   1.934  12.839 -0.5963  0.1182 -0.0020
 2341TIP3   OH228437   5.920   1.047  12.405  0.7135  0.2027  0.0773
 2341TIP3    H128438   5.830   1.016  12.419  0.1718 -0.4175 -3.6324
 2341TIP3    H228439   5.918   1.139  12.430 -0.6865 -0.0310  0.9350
 2342TIP3   OH228440   2.406   1.029  16.284  0.0811  0.2105  0.1290
 2342TIP3    H128441   2.473   0.961  16.292  0.2652  0.3258 -0.4404
 2342TIP3    H228442   2.400   1.066  16.373  1.6673  1.0458 -0.0681
 2343TIP3   OH228443   1.917   6.523  10.717  0.3479 -0.3812  0.1327
 2343TIP3    H128444   1.941   6.611  10.747  0.9821 -0.1504 -1.0010
 2343TIP3    H228445   1.991   6.468  10.743 -1.0729 -1.1057  2.9896
 2344TIP3   OH228446   4.443   3.279   0.777  0.0766 -0.1640  0.1445
 2344TIP3    H128447   4.440   3.254   0.870 -0.6079  0.8034  0.4048
 2344TIP3    H228448   4.522   3.332   0.769  0.0772 -0.1552  0.2079
 2345TIP3   OH228449   6.693   5.007   4.056  0.4689 -0.7800 -0.0834
 2345TIP3    H128450   6.693   5.080   4.118  0.2014 -0.6036 -0.2873
 2345TIP3    H228451   6.617   4.955   4.082  1.0878 -1.3910  0.5280
 2346TIP3   OH228452   1.903   3.030   3.015  0.3413  0.2144  0.1493
 2346TIP3    H128453   1.926   3.071   3.098  1.0068  0.7387 -0.2866
 2346TIP3    H228454   1.905   3.101   2.951 -3.9761  0.7093  0.2452
 2347TIP3   OH228455   1.894   2.895  15.138  0.3068 -0.7518  0.0333
 2347TIP3    H128456   1.877   2.841  15.061 -0.9763 -0.4619  0.0898
 2347TIP3    H228457   1.833   2.969  15.129  2.0051  0.7031 -0.0469
 2348TIP3   OH228458   6.219   0.424  14.016 -0.0630  0.4154 -0.3621
 2348TIP3    H128459   6.266   0.486  14.072  1.8510 -1.4474  0.2534
 2348TIP3    H228460   6.191   0.355  14.076  1.0770 -1.0897 -1.4757
 2349TIP3   OH228461   4.281   0.789   5.331  0.2614 -0.0522  0.1690
 2349TIP3    H128462   4.339   0.765   5.258 -0.5092 -2.7178  0.3310
 2349TIP3    H228463   4.340   0.822   5.398  1.0794  1.5912 -1.2627
 2350TIP3   OH228464   5.983   2.196  14.826 -0.0387  0.3677 -0.3919
 2350TIP3    H128465   6.048   2.241  14.774 -0.9727  0.8904 -1.1441
 2350TIP3    H228466   5.901   2.209  14.779 -0.9102  0.7995  1.1616
 2351TIP3   OH228467   6.419   5.552  15.055 -0.0924 -0.7384  0.1225
 2351TIP3    H128468   6.459   5.491  15.118 -0.0647  0.7614  1.6355
 2351TIP3    H228469   6.447   5.638  15.085 -1.1577  0.1067 -1.2205
 2352TIP3   OH228470   2.526   2.282  12.609 -0.4625  0.3235 -0.4255
 2352TIP3    H128471   2.546   2.372  12.582  1.9202 -0.0272 -0.1170
 2352TIP3    H228472   2.607   2.252  12.652 -1.9635 -1.2182  1.5118
 2353TIP3   OH228473   0.944   5.756  12.886  0.0711 -0.6545 -0.4775
 2353TIP3    H128474   0.871   5.717  12.839  1.9865 -3.1566 -1.6226
 2353TIP3    H228475   0.973   5.687  12.946  1.8144  0.0562 -0.4440
 2354TIP3   OH228476   1.052   0.526   1.742  0.0977 -0.4299  0.0856
 2354TIP3    H128477   1.050   0.622   1.735 -0.7117 -0.4645 -0.2655
 2354TIP3    H228478   1.069   0.497   1.652 -0.9859 -0.6451 -0.0578
 2355TIP3   OH228479   5.141   0.017  15.099  0.4671 -0.8899  0.4824
 2355TIP3    H128480   5.229  -0.018  15.116  0.4396 -1.3168 -0.2096
 2355TIP3    H228481   5.146   0.052  15.010  0.3550  0.4578  0.9875
 2356TIP3   OH228482   6.411   2.913  12.673 -0.3722  0.2281 -0.3262
 2356TIP3    H128483   6.354   2.861  12.616 -0.4396 -0.7396  0.5917
 2356TIP3    H228484   6.487   2.934  12.619 -0.7014 -0.1668 -0.9483
 2357TIP3   OH228485   5.772   5.407  12.384  0.0182  0.1161 -0.7181
 2357TIP3    H128486   5.694   5.352  12.379 -2.1913  2.6516  2.1064
 2357TIP3    H228487   5.826   5.365  12.452 -0.1721 -0.1540 -0.7305
 2358TIP3   OH228488   1.336   5.109  15.421 -0.6502  0.1431  0.4622
 2358TIP3    H128489   1.350   5.016  15.439  0.6559  0.0308 -0.9866
 2358TIP3    H228490   1.241   5.119  15.423 -0.7988 -1.1361  0.9959
 2359TIP3   OH228491   1.108   6.540   6.340 -0.2300 -0.0589  0.2463
 2359TIP3    H128492   1.146   6.534   6.252 -0.3382  2.2672 -0.0077
 2359TIP3    H228493   1.090   6.449   6.364  1.3338 -0.8849 -1.4440
 2360TIP3   OH228494   2.949   4.357  13.735 -0.7532 -0.5866  0.6445
 2360TIP3    H128495   2.965   4.439  13.782  1.3859 -0.3302 -0.4464
 2360TIP3    H228496   2.930   4.384  13.645  4.0610 -1.2072 -0.8555
 2361TIP3   OH228497   5.449   1.696   5.371 -0.1804  0.6172 -0.7130
 2361TIP3    H128498   5.376   1.736   5.323 -0.6142 -1.3246 -1.7320
 2361TIP3    H228499   5.407   1.647   5.442  0.3985  2.5645  1.0919
 2362TIP3   OH228500   0.479   6.041   2.170 -0.0544 -0.1067 -0.1112
 2362TIP3    H128501   0.432   6.071   2.248  2.2003  0.4489  1.1221
 2362TIP3    H228502   0.510   5.954   2.192  0.6086  0.0555 -0.3718
 2363TIP3   OH228503   0.250   2.058  13.999 -0.1700  0.0902 -0.1735
 2363TIP3    H128504   0.216   2.146  14.009  1.4165  0.8895 -1.2223
 2363TIP3    H228505   0.222   2.011  14.077 -3.8669  0.5023 -1.0622
 2364TIP3   OH228506   0.199   5.872  12.120 -0.4769  0.5072 -0.4420
 2364TIP3    H128507   0.105   5.886  12.130 -0.4515  0.5370 -0.2397
 2364TIP3    H228508   0.206   5.787  12.076 -0.5888  0.3403 -0.1374
 2365TIP3   OH228509   5.360   2.678  13.988  0.0783  0.7316 -0.5790
 2365TIP3    H128510   5.448   2.641  13.998 -0.4502 -0.5899 -0.5251
 2365TIP3    H228511   5.339   2.714  14.074 -0.3814 -1.2147  0.1765
 2366TIP3   OH228512   5.113   0.470   1.600  0.1534  0.6281 -0.0375
 2366TIP3    H128513   5.045   0.447   1.536 -1.9623 -0.8602  2.5171
 2366TIP3    H228514   5.174   0.397   1.598  0.5716  0.9869 -0.8992
 2367TIP3   OH228515   1.793   2.504   0.908 -0.0848  0.4539 -0.3840
 2367TIP3    H128516   1.802   2.452   0.829 -0.4851 -2.1284  1.1558
 2367TIP3    H228517   1.882   2.510   0.943  0.2415  2.3767 -1.4213
 2368TIP3   OH228518   5.760   1.071   2.005  0.2787 -0.2569 -0.6968
 2368TIP3    H128519   5.748   0.985   2.046  0.0300  0.1230  0.0551
 2368TIP3    H228520   5.680   1.118   2.026  0.6570  0.3558 -0.6094
 2369TIP3   OH228521   0.571   1.580   0.932  0.2609 -0.8631 -0.4909
 2369TIP3    H128522   0.662   1.570   0.961  0.1324  1.8368  1.1392
 2369TIP3    H228523   0.521   1.523   0.991  0.8933 -3.3013 -2.1529
 2370TIP3   OH228524   4.833   1.274   6.093  0.3389 -0.0751 -0.3967
 2370TIP3    H128525   4.880   1.230   6.164  0.2715  0.5730  0.0584
 2370TIP3    H228526   4.781   1.206   6.052  0.7080 -0.5428 -0.0937
 2371TIP3   OH228527   0.082   1.542  12.105  0.0655 -0.0373 -0.0622
 2371TIP3    H128528   0.121   1.459  12.078 -0.9992 -0.7079  0.4085
 2371TIP3    H228529  -0.003   1.545  12.061 -0.3964  0.2666  0.8289
 2372TIP3   OH228530   3.338   3.231   5.087  0.7709  0.0298  0.1681
 2372TIP3    H128531   3.433   3.245   5.091  1.1303 -1.9880 -0.1302
 2372TIP3    H228532   3.328   3.136   5.087 -1.2672  0.2020  0.1128
 2373TIP3   OH228533   0.500   2.796   2.040  0.5181 -0.0978 -0.9742
 2373TIP3    H128534   0.432   2.862   2.048  0.7649 -0.0537  2.2047
 2373TIP3    H228535   0.453   2.713   2.044  0.5498 -0.0651  0.8581
 2374TIP3   OH228536   4.619   2.497   5.881 -0.0683 -0.1218 -0.3901
 2374TIP3    H128537   4.678   2.424   5.900  0.6299  0.1150 -1.5990
 2374TIP3    H228538   4.535   2.470   5.919  0.3090 -1.3214 -0.3593
 2375TIP3   OH228539   6.149   1.097   4.943 -0.4609 -0.0024  0.3723
 2375TIP3    H128540   6.213   1.149   4.894  1.7025 -0.3414  2.6956
 2375TIP3    H228541   6.082   1.161   4.969 -2.2585  0.0486 -3.6110
 2376TIP3   OH228542   4.595   4.887   1.630  0.0291  0.2919  0.4691
 2376TIP3    H128543   4.551   4.874   1.714  1.1540  0.7440  1.1477
 2376TIP3    H228544   4.603   4.982   1.621 -3.6022  0.5956 -2.0654
 2377TIP3   OH228545   3.846   5.549  12.534  0.1557 -0.6847  0.1237
 2377TIP3    H128546   3.897   5.612  12.585 -0.6812 -0.4609  0.7130
 2377TIP3    H228547   3.828   5.594  12.451 -0.4598 -0.1209  0.5504
 2378TIP3   OH228548   6.367   2.535   0.763  0.1448 -0.5476  0.2344
 2378TIP3    H128549   6.309   2.580   0.701  0.2036  1.2075  1.3830
 2378TIP3    H228550   6.308   2.495   0.827  0.1359  0.8437  1.1385
 2379TIP3   OH228551   3.444   5.476  15.781  0.2241 -0.2771 -0.6652
 2379TIP3    H128552   3.511   5.415  15.751 -0.0483 -0.4826 -0.8524
 2379TIP3    H228553   3.420   5.444  15.869  3.3106  2.1196  1.2560
 2380TIP3   OH228554   3.667   3.755   4.971  0.3699 -0.4804 -0.5231
 2380TIP3    H128555   3.598   3.779   4.909 -0.5069 -1.8926 -0.1324
 2380TIP3    H228556   3.728   3.702   4.921 -0.4489 -1.7991 -0.1557
 2381TIP3   OH228557   5.822   5.462   1.295 -0.0991  0.8234 -0.8206
 2381TIP3    H128558   5.830   5.393   1.361  0.4317 -1.0296 -2.6947
 2381TIP3    H228559   5.774   5.532   1.339 -1.2122 -0.9803  1.0225
 2382TIP3   OH228560   4.596   5.552  12.029  0.0863  0.5328 -0.1524
 2382TIP3    H128561   4.687   5.579  12.023  0.7562 -1.6083 -0.2747
 2382TIP3    H228562   4.599   5.463  12.062 -1.9155  0.0550 -1.0997
 2383TIP3   OH228563   1.174   1.884   5.711 -0.3817 -0.0633 -0.4842
 2383TIP3    H128564   1.192   1.973   5.682 -0.0092  0.0328  0.0196
 2383TIP3    H228565   1.231   1.829   5.657  1.2204  0.2102  0.8413
 2384TIP3   OH228566   0.696   4.753  13.832  0.3313  0.1925 -0.3160
 2384TIP3    H128567   0.713   4.691  13.761 -0.4571 -0.0367 -0.3177
 2384TIP3    H228568   0.616   4.720  13.873 -0.2523  1.3402 -0.4851
 2385TIP3   OH228569   0.512   2.081  13.021  0.2721  0.3268 -0.3332
 2385TIP3    H128570   0.532   1.993  13.051  1.1065 -0.8730 -3.9013
 2385TIP3    H228571   0.596   2.126  13.020  0.1231  0.6109 -0.0923
 2386TIP3   OH228572   5.299   0.359  15.476 -0.2511 -0.1812 -0.1654
 2386TIP3    H128573   5.303   0.451  15.450  0.2809 -0.2243 -0.2636
 2386TIP3    H228574   5.307   0.360  15.572 -1.0354 -0.0863 -0.0955
 2387TIP3   OH228575   5.856   3.502  12.483  0.0339 -0.1430 -0.0171
 2387TIP3    H128576   5.833   3.522  12.574  1.0412 -1.6063  0.5999
 2387TIP3    H228577   5.800   3.560  12.431 -2.0306 -0.6998  1.4635
 2388TIP3   OH228578   2.872   6.137   2.829  0.1177 -0.0599  0.8752
 2388TIP3    H128579   2.935   6.205   2.853  2.5426 -2.4845  2.0063
 2388TIP3    H228580   2.858   6.148   2.735  1.6131  1.0963  0.7551
 2389TIP3   OH228581   3.884   2.197  16.226 -0.1313  0.3453 -0.0918
 2389TIP3    H128582   3.836   2.186  16.308  0.4182  3.0400  0.6883
 2389TIP3    H228583   3.887   2.109  16.188 -0.7456 -0.9195  2.5560
 2390TIP3   OH228584   4.639   6.190   2.180 -0.0428  0.1998  0.5317
 2390TIP3    H128585   4.679   6.276   2.169  0.6656 -0.0829  0.8179
 2390TIP3    H228586   4.557   6.207   2.227  0.0722  0.7214  0.5480
 2391TIP3   OH228587   2.139   1.373  13.922  0.4646  0.2920 -0.0837
 2391TIP3    H128588   2.166   1.282  13.916  0.5118  0.4053 -2.4256
 2391TIP3    H228589   2.060   1.379  13.868 -1.2297  1.0779  2.3399
 2392TIP3   OH228590   1.020   2.245   0.233 -0.0252 -0.4283  0.1706
 2392TIP3    H128591   1.115   2.236   0.225  0.0100  0.6471 -1.0207
 2392TIP3    H228592   1.008   2.303   0.308  0.2489 -0.6330  0.3756
 2393TIP3   OH228593   5.758   0.471   4.639  0.2238  0.6872 -0.0370
 2393TIP3    H128594   5.701   0.410   4.593  0.7249 -0.3223  0.6545
 2393TIP3    H228595   5.706   0.499   4.715  0.4117  0.2489  0.2549
 2394TIP3   OH228596   0.473   1.400  13.896  0.0735 -0.2398  0.0658
 2394TIP3    H128597   0.441   1.311  13.910  1.8828 -0.6680  1.9121
 2394TIP3    H228598   0.566   1.389  13.877  0.1541  1.2290 -0.5033
 2395TIP3   OH228599   5.334   5.774  14.621  0.5671  0.0613 -0.2335
 2395TIP3    H128600   5.274   5.847  14.608 -0.2030 -0.4996  0.0724
 2395TIP3    H228601   5.297   5.726  14.695  0.6467 -1.0517 -0.8897
 2396TIP3   OH228602   1.635   1.250   5.924  0.3198 -0.1745 -0.3467
 2396TIP3    H128603   1.662   1.177   5.980 -0.1975  1.8360  2.8198
 2396TIP3    H228604   1.556   1.219   5.880 -0.3774 -1.3311  1.5845
 2397TIP3   OH228605   3.395   2.577   2.205  0.3659  0.0724  0.3610
 2397TIP3    H128606   3.451   2.637   2.255  0.2056 -0.3546  1.0624
 2397TIP3    H228607   3.324   2.554   2.266  0.9039 -1.5249  0.4298
 2398TIP3   OH228608   4.161   3.251  13.284  0.0249  0.2737  0.0367
 2398TIP3    H128609   4.226   3.197  13.330  0.9253  1.9409  0.8263
 2398TIP3    H228610   4.145   3.203  13.203  0.1098 -1.6052  1.0528
 2399TIP3   OH228611   2.608   2.603   1.418 -0.5123 -0.0669 -0.1883
 2399TIP3    H128612   2.548   2.596   1.492 -1.2147 -0.7589 -0.8017
 2399TIP3    H228613   2.619   2.512   1.388  0.1508  0.1518 -0.6148
 2400TIP3   OH228614   0.646   3.536  11.484 -0.3341 -0.4024  0.0166
 2400TIP3    H128615   0.568   3.480  11.479 -0.0940 -0.7924  0.5757
 2400TIP3    H228616   0.707   3.496  11.421 -1.5386  1.4952 -2.5649
 2401TIP3   OH228617   3.474   6.432  12.679  0.0336  0.1569 -0.4637
 2401TIP3    H128618   3.430   6.404  12.759 -0.4213 -0.1251 -0.8122
 2401TIP3    H228619   3.405   6.471  12.626  0.5690  1.5710 -0.1695
 2402TIP3   OH228620   1.924   4.338  16.404 -0.0536  0.5076  0.2721
 2402TIP3    H128621   1.909   4.338  16.309  0.3605  1.9366  0.1744
 2402TIP3    H228622   1.940   4.247  16.426  1.5088  0.3330 -1.3091
 2403TIP3   OH228623   1.050   1.209  12.100 -0.2168 -0.1596 -0.6942
 2403TIP3    H128624   1.125   1.195  12.158 -1.4113 -2.9880  0.3692
 2403TIP3    H228625   1.081   1.181  12.014 -0.1400 -1.9056 -0.1456
 2404TIP3   OH228626   3.068   4.963   4.752 -0.1993 -0.2331 -0.2333
 2404TIP3    H128627   3.076   4.869   4.736  0.0678 -0.5830  1.6841
 2404TIP3    H228628   3.031   4.998   4.671 -0.3597 -1.9906 -0.9717
 2405TIP3   OH228629   2.038   3.550   6.640 -0.3209 -0.4138  0.6633
 2405TIP3    H128630   2.002   3.607   6.708  0.2809  1.0243 -0.1552
 2405TIP3    H228631   2.131   3.572   6.637 -0.1071 -1.3306  0.1936
 2406TIP3   OH228632   4.663   5.870  14.529  0.2045  0.1825 -0.2054
 2406TIP3    H128633   4.740   5.922  14.549  0.7521 -0.7548  0.1710
 2406TIP3    H228634   4.589   5.928  14.548  0.6833 -0.1646  3.2650
 2407TIP3   OH228635   2.373   5.132   4.506 -0.8993  0.7666 -0.3075
 2407TIP3    H128636   2.307   5.163   4.569  0.1631  0.3465  1.0760
 2407TIP3    H228637   2.407   5.212   4.466 -0.3209  1.2035  1.0061
 2408TIP3   OH228638   2.390   4.635  13.743 -0.3092  0.0205 -0.3621
 2408TIP3    H128639   2.404   4.563  13.804 -1.6775 -0.1726 -0.2324
 2408TIP3    H228640   2.324   4.602  13.681 -2.2522  1.6791  0.7003
 2409TIP3   OH228641   4.994   6.035  12.531  0.2057  0.2200 -0.6398
 2409TIP3    H128642   4.909   6.002  12.559 -0.8434  1.2871 -2.3759
 2409TIP3    H228643   5.003   6.119  12.575  0.0202  0.4478 -1.0371
 2410TIP3   OH228644   6.400   6.129  16.764  0.0038  0.3406  0.3256
 2410TIP3    H128645   6.390   6.224  16.759 -1.0065  0.2121 -0.5387
 2410TIP3    H228646   6.452   6.106  16.687 -2.7828 -0.1223 -1.5695
 2411TIP3   OH228647   0.868   2.391   2.488  0.6695 -0.4706  0.1598
 2411TIP3    H128648   0.923   2.380   2.410 -0.2776 -0.6578 -0.4962
 2411TIP3    H228649   0.807   2.317   2.485  1.5489 -1.3372  1.8899
 2412TIP3   OH228650   0.113   6.385   0.156  0.3973  0.1516 -0.0949
 2412TIP3    H128651   0.025   6.364   0.124  0.6888 -0.9581 -0.2435
 2412TIP3    H228652   0.171   6.350   0.088  0.9402  1.9342 -0.5847
 2413TIP3   OH228653   5.898   3.871   5.843  0.2013  0.7769  0.5639
 2413TIP3    H128654   5.879   3.897   5.753  2.3933 -1.8991 -0.8097
 2413TIP3    H228655   5.812   3.854   5.881 -0.7958 -3.0859 -2.7552
 2414TIP3   OH228656   4.329   0.688  16.266 -0.3081 -0.0621 -0.4959
 2414TIP3    H128657   4.292   0.775  16.253 -0.1070  0.1513  0.3266
 2414TIP3    H228658   4.411   0.689  16.216 -0.6887 -0.0532 -1.1341
 2415TIP3   OH228659   0.399   0.704   0.453 -0.3588  0.3882  0.2283
 2415TIP3    H128660   0.334   0.643   0.418  0.8767 -0.7949 -0.0397
 2415TIP3    H228661   0.456   0.724   0.379  0.0381  0.8258  0.6474
 2416TIP3   OH228662   1.493   2.341  13.270  0.0661  0.2095 -0.2738
 2416TIP3    H128663   1.579   2.369  13.300  0.8235 -2.5798  0.4402
 2416TIP3    H228664   1.503   2.326  13.176  1.1196 -2.3605  0.1780
 2417TIP3   OH228665   3.862   4.603  15.744 -0.5968 -0.3560 -0.3240
 2417TIP3    H128666   3.827   4.640  15.663  1.3157 -0.2413 -1.1405
 2417TIP3    H228667   3.854   4.674  15.808 -3.6313 -0.9640  0.1177
 2418TIP3   OH228668   1.710   3.046   2.345 -0.4621 -0.6216 -0.0805
 2418TIP3    H128669   1.727   3.018   2.435  3.2291  2.5587  0.5218
 2418TIP3    H228670   1.695   3.140   2.352 -1.4948 -0.5092 -2.7193
 2419TIP3   OH228671   2.179   3.618  16.074  0.2908  0.1715  0.2901
 2419TIP3    H128672   2.209   3.528  16.068  1.0301  0.4633 -0.4962
 2419TIP3    H228673   2.091   3.617  16.037  0.4428 -0.1514 -0.0593
 2420TIP3   OH228674   4.523   5.281   5.348  1.1363 -0.3721 -0.5315
 2420TIP3    H128675   4.601   5.258   5.297  0.0895 -1.3418 -1.7384
 2420TIP3    H228676   4.496   5.199   5.389  0.7337 -0.0395 -0.1263
 2421TIP3   OH228677   1.053   3.908   2.147  0.3465 -0.4968  0.0242
 2421TIP3    H128678   1.088   3.990   2.111 -0.9445 -0.6554 -1.6824
 2421TIP3    H228679   1.116   3.842   2.120  1.0960 -0.1786  0.9223
 2422TIP3   OH228680   5.999   5.117  15.239  0.2064  0.2993  0.8118
 2422TIP3    H128681   6.045   5.098  15.158  0.7433  0.4458  1.0778
 2422TIP3    H228682   5.906   5.102  15.219  0.4087 -0.4106  0.3982
 2423TIP3   OH228683   5.642   6.630  15.246  0.3809  0.0863 -0.6344
 2423TIP3    H128684   5.704   6.580  15.193  2.3627  0.2520  1.4332
 2423TIP3    H228685   5.573   6.567  15.268  2.2782 -1.5086  1.0256
 2424TIP3   OH228686   1.993   6.663   4.712 -0.1250 -0.1210  0.2348
 2424TIP3    H128687   1.945   6.700   4.785  1.5462  0.3417  1.1628
 2424TIP3    H228688   1.928   6.653   4.642 -1.2225  1.9164  0.8895
 2425TIP3   OH228689   2.681   0.155  15.096 -0.3830 -0.6623 -0.0772
 2425TIP3    H128690   2.624   0.079  15.109  0.5631 -1.3365  0.3313
 2425TIP3    H228691   2.761   0.133  15.145 -0.0204  0.5259 -0.0998
 2426TIP3   OH228692   4.442   6.450   2.891  0.7043 -0.7670  0.5719
 2426TIP3    H128693   4.393   6.523   2.930  0.4618 -1.3216  1.3325
 2426TIP3    H228694   4.491   6.490   2.820  0.7187  0.1772  1.0882
 2427TIP3   OH228695   2.340   0.797  14.507 -0.0469  0.4120 -0.6168
 2427TIP3    H128696   2.280   0.736  14.550  0.7463  0.3710  0.4723
 2427TIP3    H228697   2.347   0.870  14.568  0.6656  0.6208 -0.9376
 2428TIP3   OH228698   1.083   2.779  16.818 -0.2296  0.4360  0.1531
 2428TIP3    H128699   1.003   2.729  16.834  0.5404 -1.0283 -0.4367
 2428TIP3    H228700   1.069   2.861  16.866 -0.7325 -1.1056  2.8312
 2429TIP3   OH228701   0.512   1.091   5.560  0.0285 -0.0057  0.3274
 2429TIP3    H128702   0.474   1.169   5.520  0.8109 -0.2460 -0.9589
 2429TIP3    H228703   0.583   1.124   5.615  2.1564  0.1250 -2.2966
 2430TIP3   OH228704   6.110   1.641   1.779 -0.3999  0.2590  0.3749
 2430TIP3    H128705   6.075   1.656   1.867  0.1062 -0.6142  0.7390
 2430TIP3    H228706   6.137   1.549   1.779 -1.5630 -0.1153 -1.1099
 2431TIP3   OH228707   6.592   2.466   1.112 -0.4256  0.1161  0.5022
 2431TIP3    H128708   6.621   2.530   1.047 -0.5562  0.1820  0.5085
 2431TIP3    H228709   6.618   2.381   1.075  1.6840  0.2690  1.4549
 2432TIP3   OH228710   5.256   0.151   2.938  0.4887  0.4506 -0.0602
 2432TIP3    H128711   5.297   0.068   2.961  0.0352  0.0020 -0.8334
 2432TIP3    H228712   5.276   0.208   3.012  2.7007  0.3459 -0.4967
 2433TIP3   OH228713   5.467   3.684   2.462 -0.6307 -0.6706  0.7301
 2433TIP3    H128714   5.561   3.699   2.474 -0.4722  0.2925 -1.3204
 2433TIP3    H228715   5.427   3.769   2.476 -1.2054 -1.0508  1.4581
 2434TIP3   OH228716   0.807   5.847  16.933  0.1713 -0.1352  0.4183
 2434TIP3    H128717   0.795   5.933  16.893 -0.9224 -0.3782  0.1785
 2434TIP3    H228718   0.892   5.817  16.901  0.1020  0.4216 -0.3252
 2435TIP3   OH228719   3.758   5.728   3.182 -0.1367 -0.6285  0.0774
 2435TIP3    H128720   3.663   5.715   3.180  0.0338 -2.0896  0.1374
 2435TIP3    H228721   3.784   5.704   3.271  0.3165 -0.4693 -0.0086
 2436TIP3   OH228722   3.787   1.227  14.174  0.3745 -0.1213 -0.1121
 2436TIP3    H128723   3.865   1.276  14.147 -0.2507  0.2000 -1.4440
 2436TIP3    H228724   3.758   1.271  14.254  0.7444  0.6742 -0.3938
 2437TIP3   OH228725   1.141   0.771   1.632 -0.2491  0.0600  0.1529
 2437TIP3    H128726   1.111   0.862   1.639  0.0097  0.2133 -0.6900
 2437TIP3    H228727   1.228   0.777   1.593  0.8815 -0.3903  2.4357
 2438TIP3   OH228728   1.530   5.162  12.107  0.0884  0.2992 -0.2985
 2438TIP3    H128729   1.469   5.119  12.048 -0.1039 -1.3786  1.0383
 2438TIP3    H228730   1.559   5.239  12.059  0.4705 -1.3032 -2.8741
 2439TIP3   OH228731   1.436   0.352   0.778 -0.0610  0.4062  0.0340
 2439TIP3    H128732   1.469   0.331   0.690 -0.1579 -0.2234  0.1423
 2439TIP3    H228733   1.349   0.314   0.780  0.7612 -1.5730  1.1624
 2440TIP3   OH228734   4.084   0.554  13.269 -0.6219 -0.0548  0.1874
 2440TIP3    H128735   4.060   0.559  13.361 -0.4377  0.7731  0.2010
 2440TIP3    H228736   4.127   0.637  13.251 -0.1406 -0.4392 -0.5050
 2441TIP3   OH228737   6.695   5.936   5.791 -0.3991 -0.1535 -0.3093
 2441TIP3    H128738   6.691   5.841   5.804 -0.3503 -0.1426 -0.2150
 2441TIP3    H228739   6.776   5.963   5.834  0.1924 -0.2298 -1.3457
 2442TIP3   OH228740   3.029   2.112  14.524  0.4163  0.5674 -0.3585
 2442TIP3    H128741   2.939   2.101  14.494  0.4664 -0.8680 -0.0869
 2442TIP3    H228742   3.082   2.067  14.457  1.0207  2.0480 -0.9186
 2443TIP3   OH228743   3.584   3.175  12.210  0.3531 -0.0877 -0.0918
 2443TIP3    H128744   3.539   3.108  12.262 -1.0280  1.2782  0.5379
 2443TIP3    H228745   3.546   3.167  12.123 -1.7771  1.5675  0.6191
 2444TIP3   OH228746   4.461   2.856   3.859  0.4953  0.2822 -0.4719
 2444TIP3    H128747   4.539   2.822   3.904  0.7486 -0.8339 -1.6890
 2444TIP3    H228748   4.390   2.843   3.921  0.7538 -1.6641 -0.5295
 2445TIP3   OH228749   1.172   0.445   0.567 -0.2058 -0.4661 -0.0262
 2445TIP3    H128750   1.245   0.386   0.586 -0.6813 -1.5776 -1.4385
 2445TIP3    H228751   1.101   0.415   0.624 -0.7911 -2.0394 -1.4975
 2446TIP3   OH228752   2.432   1.079   4.880 -0.1446 -0.4863 -0.3254
 2446TIP3    H128753   2.446   1.074   4.975  0.7592 -0.4033 -0.4501
 2446TIP3    H228754   2.337   1.066   4.870 -0.4097  0.4665  0.6646
 2447TIP3   OH228755   3.889   5.299   4.687 -0.0779 -0.2217  0.8304
 2447TIP3    H128756   3.825   5.319   4.756 -0.0927 -0.0993  0.7804
 2447TIP3    H228757   3.963   5.260   4.734  0.0032  0.0624  0.9416
 2448TIP3   OH228758   2.001   1.716  16.518 -0.4436 -0.6377  0.5047
 2448TIP3    H128759   2.088   1.750  16.538 -1.3382  1.3486  1.3724
 2448TIP3    H228760   2.013   1.662  16.440  1.1107  2.1489 -1.3519
 2449TIP3   OH228761   2.776   0.377   4.073  0.4273 -0.1913 -0.4481
 2449TIP3    H128762   2.763   0.469   4.096  2.0094 -0.4109  1.7092
 2449TIP3    H228763   2.752   0.372   3.981 -1.2931  2.0063 -0.2172
 2450TIP3   OH228764   3.753   2.429  16.082 -0.3006  0.2728  0.0277
 2450TIP3    H128765   3.671   2.393  16.047 -1.1017  2.4764 -0.5079
 2450TIP3    H228766   3.784   2.362  16.143 -3.1656 -0.1461  1.1958
 2451TIP3   OH228767   1.428   3.999   5.157  0.0486  0.2639  0.4977
 2451TIP3    H128768   1.353   3.967   5.108 -1.4550  1.8969  1.5846
 2451TIP3    H228769   1.499   4.004   5.093 -1.0173 -0.4645 -0.7820
 2452TIP3   OH228770   5.936   5.022  11.541 -0.1852  0.5541  0.1836
 2452TIP3    H128771   5.969   5.026  11.630  2.5683 -1.3719 -0.5970
 2452TIP3    H228772   5.987   5.087  11.493  0.8109 -0.7273 -0.5676
 2453TIP3   OH228773   0.459   4.818   2.684  0.4768  0.0526  0.2260
 2453TIP3    H128774   0.408   4.898   2.696  0.8056  0.4506 -0.9162
 2453TIP3    H228775   0.539   4.832   2.734 -0.0062 -0.1002  1.0678
 2454TIP3   OH228776   1.813   1.535   2.710 -0.2185  0.1862  0.0813
 2454TIP3    H128777   1.763   1.537   2.628 -0.7937  1.7892  0.4341
 2454TIP3    H228778   1.904   1.524   2.682 -0.2426  2.0147 -0.8998
 2455TIP3   OH228779   3.007   3.941   2.193  0.2898  0.5420  0.2373
 2455TIP3    H128780   3.099   3.946   2.219  0.4755  0.6387 -0.4193
 2455TIP3    H228781   3.001   3.862   2.140  0.3138  1.2869 -0.9147
 2456TIP3   OH228782   3.832   2.652   1.241  0.0640 -0.2979  0.0386
 2456TIP3    H128783   3.756   2.700   1.275  0.5076  0.0993  0.4987
 2456TIP3    H228784   3.907   2.693   1.284  0.4487 -1.5702  0.6638
 2457TIP3   OH228785   6.066   0.426   1.429 -0.2501  0.0961 -0.3010
 2457TIP3    H128786   6.154   0.433   1.466 -0.5913 -1.8505  1.0512
 2457TIP3    H228787   6.009   0.462   1.497 -0.6464 -0.7850 -0.1490
 2458TIP3   OH228788   0.638   3.319  13.812  0.3029 -0.1271 -0.0211
 2458TIP3    H128789   0.631   3.328  13.717 -0.6951  2.8940  0.2372
 2458TIP3    H228790   0.572   3.253  13.834 -1.5889  1.2413 -1.2238
 2459TIP3   OH228791   1.224   4.941   5.057 -0.6970 -0.3906 -0.2795
 2459TIP3    H128792   1.218   4.995   5.135 -1.1845 -0.5720 -0.1819
 2459TIP3    H228793   1.164   4.868   5.074  1.1595 -1.8353  0.2680
 2460TIP3   OH228794   3.300   0.937  15.932  0.0416 -0.5719  0.5745
 2460TIP3    H128795   3.324   1.013  15.985  1.9761 -2.3014  2.3800
 2460TIP3    H228796   3.210   0.954  15.904  0.6844  2.7663  0.0799
 2461TIP3   OH228797   0.378   4.052  10.452 -0.3737 -0.8217 -0.1687
 2461TIP3    H128798   0.359   4.132  10.501 -0.2743 -1.0911  0.3146
 2461TIP3    H228799   0.463   4.024  10.484 -0.3434 -1.0425 -0.4418
 2462TIP3   OH228800   0.551   4.596  15.098  0.0033  0.1254  0.3137
 2462TIP3    H128801   0.566   4.522  15.157  0.2651 -0.4080 -0.4221
 2462TIP3    H228802   0.460   4.622  15.115  0.7492  1.5033  2.6622
 2463TIP3   OH228803   4.900   0.864   0.983 -0.7812 -0.0516  0.1055
 2463TIP3    H128804   4.807   0.844   0.989 -1.0583  0.4133 -1.8489
 2463TIP3    H228805   4.936   0.840   1.068 -2.8205  0.5501  1.1824
 2464TIP3   OH228806   6.257   5.363   0.527  0.1933  0.2110 -0.0236
 2464TIP3    H128807   6.263   5.456   0.546 -1.0306 -0.0603  1.8898
 2464TIP3    H228808   6.335   5.325   0.568  1.4066  0.4835 -1.9239
 2465TIP3   OH228809   2.749   2.769  17.192  0.3566 -0.7090  0.2494
 2465TIP3    H128810   2.841   2.745  17.186  0.8906  1.3538 -0.6529
 2465TIP3    H228811   2.702   2.687  17.177  2.0352 -1.6846  0.1053
 2466TIP3   OH228812   1.876   5.215  15.380 -0.1278  0.3254  0.9220
 2466TIP3    H128813   1.836   5.264  15.308  1.2260  0.4456  0.2184
 2466TIP3    H228814   1.803   5.170  15.422 -1.0535  0.8908 -0.0339
 2467TIP3   OH228815   0.339   3.835   5.976 -0.3270  0.0213  0.2707
 2467TIP3    H128816   0.283   3.759   5.961 -1.0940  0.6808 -0.2641
 2467TIP3    H228817   0.279   3.907   5.993  0.4157  0.2118  2.3883
 2468TIP3   OH228818   6.075   0.103  15.886 -0.4296 -0.0204  0.5307
 2468TIP3    H128819   6.138   0.173  15.902 -1.4202  0.7526  1.1476
 2468TIP3    H228820   6.060   0.105  15.792 -0.3452  0.5115  0.5253
 2469TIP3   OH228821   4.473   4.750  10.990  0.1804 -0.0720  0.2053
 2469TIP3    H128822   4.493   4.664  10.953 -0.5434  0.5019 -1.6699
 2469TIP3    H228823   4.515   4.750  11.076  2.0037 -1.5005 -0.6145
 2470TIP3   OH228824   5.726   2.766  16.471  0.3764  0.3743 -0.5555
 2470TIP3    H128825   5.676   2.716  16.407  2.2339  0.5638 -2.2469
 2470TIP3    H228826   5.706   2.858  16.450  0.6355  0.4292 -0.5623
 2471TIP3   OH228827   5.793   0.747   1.870 -0.0287  0.2216 -0.0416
 2471TIP3    H128828   5.705   0.710   1.876 -0.0822  0.2479 -0.6275
 2471TIP3    H228829   5.843   0.702   1.938 -0.0711 -0.9772 -0.7750
 2472TIP3   OH228830   4.829   4.211   3.032 -0.6877 -1.0831  0.4501
 2472TIP3    H128831   4.882   4.282   3.070 -0.8763 -1.7543  2.0197
 2472TIP3    H228832   4.881   4.181   2.958 -1.2819  1.6615 -1.2254
 2473TIP3   OH228833   3.577   3.585   4.616  0.3081 -0.0963 -0.1057
 2473TIP3    H128834   3.667   3.574   4.645  0.3042 -0.0740 -0.0852
 2473TIP3    H228835   3.556   3.676   4.636  0.0078 -0.3223  0.6395
 2474TIP3   OH228836   0.185   1.388  15.457 -0.2095 -0.3857 -0.2716
 2474TIP3    H128837   0.233   1.464  15.490 -0.9549 -0.5361  1.2030
 2474TIP3    H228838   0.177   1.329  15.532 -1.0595 -1.2108 -0.9802
 2475TIP3   OH228839   5.576   4.382  11.676 -0.1893 -0.4535  0.2330
 2475TIP3    H128840   5.647   4.426  11.629 -0.9533  0.1079 -0.4038
 2475TIP3    H228841   5.539   4.322  11.612 -1.5373  0.6477 -0.0641
 2476TIP3   OH228842   5.289   4.131   4.654 -0.0339  0.1934  0.7994
 2476TIP3    H128843   5.380   4.102   4.640 -0.4572 -1.8819  1.9147
 2476TIP3    H228844   5.295   4.194   4.725  0.6360  0.8241  0.1980
 2477TIP3   OH228845   3.540   4.684   4.348 -0.5162  0.0087 -0.7162
 2477TIP3    H128846   3.636   4.689   4.355 -0.5410 -0.0615 -0.3268
 2477TIP3    H228847   3.510   4.669   4.437 -0.9085  0.2452 -0.8088
 2478TIP3   OH228848   4.915   3.675   0.237 -0.3146 -0.2184  0.0619
 2478TIP3    H128849   4.865   3.739   0.288 -1.3401  0.7454 -2.0074
 2478TIP3    H228850   4.852   3.640   0.174  1.2511  0.0268 -1.7390
 2479TIP3   OH228851   3.437   2.245   4.966 -0.3486 -0.2712 -0.1278
 2479TIP3    H128852   3.419   2.339   4.974  0.6081  0.0900 -1.7449
 2479TIP3    H228853   3.410   2.222   4.877 -0.9201 -1.6345  0.3721
 2480TIP3   OH228854   4.344   3.857  11.475 -0.4770  0.3731 -0.4545
 2480TIP3    H128855   4.369   3.766  11.492  1.1020  0.9708  0.7372
 2480TIP3    H228856   4.426   3.900  11.449 -0.8393  1.7819  0.5715
 2481TIP3   OH228857   0.576   4.089  11.308  0.4634  0.1459 -0.4597
 2481TIP3    H128858   0.567   4.035  11.386  2.4016 -2.1037 -1.6723
 2481TIP3    H228859   0.486   4.114  11.286 -0.3919 -1.5408  0.8727
 2482TIP3   OH228860   6.578   3.477  14.885 -0.1215 -0.1287 -0.6930
 2482TIP3    H128861   6.673   3.466  14.878 -0.1172 -0.7757  0.2693
 2482TIP3    H228862   6.543   3.426  14.812  0.1363 -2.7080  0.8854
 2483TIP3   OH228863   5.430   4.686   5.649 -0.3945  0.0624  0.3415
 2483TIP3    H128864   5.451   4.774   5.681 -1.3347  0.4286  0.0107
 2483TIP3    H228865   5.412   4.698   5.556  1.2437 -0.8058 -0.1198
 2484TIP3   OH228866   2.374   5.733   5.364 -0.2608  0.1045  0.2109
 2484TIP3    H128867   2.433   5.668   5.402 -2.4403 -1.8243  0.5227
 2484TIP3    H228868   2.377   5.807   5.425  0.6657 -0.5826  1.0284
 2485TIP3   OH228869   3.251   0.018   2.321  0.5622  0.2351 -0.3706
 2485TIP3    H128870   3.336   0.022   2.365 -0.0152 -2.1581  1.1729
 2485TIP3    H228871   3.226   0.109   2.309  2.5308  0.9937  0.7624
 2486TIP3   OH228872   4.745   2.494   2.332 -0.0559 -0.3355  0.1773
 2486TIP3    H128873   4.780   2.576   2.297  1.7712 -0.8786  0.6238
 2486TIP3    H228874   4.685   2.521   2.402 -1.5021  0.6599 -1.3577
 2487TIP3   OH228875   5.510   2.788  11.423 -0.0346 -0.1356  0.6705
 2487TIP3    H128876   5.589   2.743  11.454  0.1322 -0.6907 -0.5125
 2487TIP3    H228877   5.456   2.719  11.385 -0.9376  0.3014  1.1384
 2488TIP3   OH228878   4.958   0.970  11.688 -0.2228  0.0942 -0.2610
 2488TIP3    H128879   4.938   1.061  11.670 -0.0653 -0.1673 -1.9006
 2488TIP3    H228880   4.932   0.923  11.609  0.6192 -1.1540  0.1589
 2489TIP3   OH228881   3.121   2.632   5.102 -0.1967  0.0164  0.0919
 2489TIP3    H128882   3.060   2.618   5.174 -0.7830  0.0197 -0.4018
 2489TIP3    H228883   3.207   2.633   5.144 -0.5626  0.4453  0.8438
 2490TIP3   OH228884   1.576   6.380   3.265  0.9486 -0.7130 -0.4174
 2490TIP3    H128885   1.499   6.394   3.211  1.3238  0.6565 -0.6401
 2490TIP3    H228886   1.544   6.379   3.355  0.6664 -0.2255 -0.5141
 2491TIP3   OH228887   1.484   2.655   4.707 -0.0258 -0.6868  0.2887
 2491TIP3    H128888   1.501   2.561   4.713  0.1694 -0.8269 -1.7410
 2491TIP3    H228889   1.401   2.667   4.751  0.2905 -1.6953  1.2018
 2492TIP3   OH228890   3.171   5.576  11.537  0.1176 -0.1903  0.2756
 2492TIP3    H128891   3.171   5.481  11.546 -2.5815 -0.4151 -0.9848
 2492TIP3    H228892   3.198   5.592  11.446  0.9910  0.3009  0.6087
 2493TIP3   OH228893   0.989   2.790   5.658 -0.4971 -0.0303  0.1300
 2493TIP3    H128894   0.921   2.847   5.694  1.5659  1.9237  1.1690
 2493TIP3    H228895   0.952   2.758   5.576 -2.2613  1.8375  0.1056
 2494TIP3   OH228896   4.501   1.518   1.977  0.5814  0.3898 -0.5742
 2494TIP3    H128897   4.408   1.499   1.966  0.3503  1.7981 -1.2610
 2494TIP3    H228898   4.546   1.443   1.936 -0.2564  0.5859 -1.9062
 2495TIP3   OH228899   6.393   4.665   5.193  0.0665  0.0053 -0.3125
 2495TIP3    H128900   6.404   4.653   5.099 -0.2246  0.5820 -0.4290
 2495TIP3    H228901   6.479   4.645   5.231  0.0040 -0.8841 -0.6276
 2496TIP3   OH228902   1.203   4.993  16.363 -0.1078 -0.5847 -0.2536
 2496TIP3    H128903   1.265   4.943  16.309  0.2507 -0.5717  0.1421
 2496TIP3    H228904   1.211   4.955  16.450  3.0386  2.5435  1.0741
 2497TIP3   OH228905   4.968   0.240   1.920  0.5934 -0.6835 -0.1064
 2497TIP3    H128906   5.018   0.223   1.839  0.3305 -0.4908 -0.3090
 2497TIP3    H228907   4.927   0.325   1.906 -0.9764 -1.4771 -0.5412
 2498TIP3   OH228908   0.922   1.589  14.992  0.0711  0.0100 -0.5303
 2498TIP3    H128909   0.925   1.581  15.088  0.4733 -0.1705 -0.5545
 2498TIP3    H228910   0.969   1.511  14.961 -0.5294 -0.2116 -0.8853
 2499TIP3   OH228911   5.503   5.317  10.617 -0.1097 -0.1929 -0.2413
 2499TIP3    H128912   5.507   5.342  10.525  0.8671  0.2117 -0.0999
 2499TIP3    H228913   5.415   5.282  10.629 -0.6361  0.7952 -1.0633
 2500TIP3   OH228914   1.735   5.369  13.604  0.2792  0.5096  0.2716
 2500TIP3    H128915   1.824   5.400  13.592 -0.2425  1.8981 -0.2857
 2500TIP3    H228916   1.713   5.393  13.694  0.2561  0.7676  0.1985
 2501TIP3   OH228917   3.603   0.647  12.534  0.2809  0.4202  0.4034
 2501TIP3    H128918   3.607   0.557  12.566  1.5728 -0.2669 -1.5355
 2501TIP3    H228919   3.604   0.639  12.438  1.0399  2.5220  0.1867
 2502TIP3   OH228920   1.097   5.830  16.888  0.2058 -0.2284  0.0097
 2502TIP3    H128921   1.132   5.758  16.941 -3.4312 -1.1451  1.5011
 2502TIP3    H228922   1.095   5.904  16.949 -2.2199 -0.7797  0.7177
 2503TIP3   OH228923   1.998   1.808  13.337  0.5175 -0.4494 -0.2688
 2503TIP3    H128924   1.945   1.858  13.399  2.6556  2.1681 -0.3464
 2503TIP3    H228925   1.958   1.824  13.252  0.8621  0.7834 -0.2204
 2504TIP3   OH228926   1.466   5.210   4.783  0.0644  0.2186  0.3578
 2504TIP3    H128927   1.483   5.192   4.691  0.0532 -1.0012  0.5747
 2504TIP3    H228928   1.434   5.127   4.818  0.9801  0.3944  1.6783
 2505TIP3   OH228929   0.453   5.608   4.219 -0.1779 -0.3037 -0.0941
 2505TIP3    H128930   0.535   5.655   4.208 -0.5335  1.2260  2.8329
 2505TIP3    H228931   0.479   5.518   4.236  0.7591 -0.2381 -1.0834
 2506TIP3   OH228932   1.948   2.797  14.861 -0.2275  0.8267 -1.0606
 2506TIP3    H128933   1.937   2.849  14.782 -2.1372  0.6824 -0.9328
 2506TIP3    H228934   1.938   2.707  14.832  0.2368  0.6962 -0.8287
 2507TIP3   OH228935   0.553   6.212   3.714 -0.2101 -0.1620 -0.3169
 2507TIP3    H128936   0.514   6.155   3.648  0.8388  0.3401 -1.4106
 2507TIP3    H228937   0.501   6.292   3.710 -0.6125 -0.4030  0.0063
 2508TIP3   OH228938   3.521   1.959  10.798 -0.5032  0.2615  0.5278
 2508TIP3    H128939   3.562   1.984  10.881 -1.5210  0.9791  0.8303
 2508TIP3    H228940   3.497   2.042  10.757 -1.5880 -0.1319  0.3399
 2509TIP3   OH228941   2.711   0.153   2.355  0.3012  0.0661  0.0805
 2509TIP3    H128942   2.734   0.072   2.398  2.1136  0.5138  0.0264
 2509TIP3    H228943   2.792   0.182   2.313 -0.8448  0.7569 -1.7900
 2510TIP3   OH228944   2.093   6.773  17.127  0.1223 -0.4837  0.5122
 2510TIP3    H128945   2.180   6.734  17.123 -0.6128 -2.1288 -0.0686
 2510TIP3    H228946   2.072   6.795  17.037  1.2221  3.0403  0.9629
 2511TIP3   OH228947   4.430   5.865   3.484  0.2301 -0.3078 -0.2526
 2511TIP3    H128948   4.418   5.920   3.406  3.2513  1.1815  0.2116
 2511TIP3    H228949   4.376   5.787   3.467 -0.9323  0.9461 -2.8050
 2512TIP3   OH228950   0.218   0.379   4.848  0.0827  0.1383 -0.0373
 2512TIP3    H128951   0.273   0.439   4.797  0.0364 -0.2149 -0.5123
 2512TIP3    H228952   0.234   0.293   4.808  0.2782 -0.1915  0.7403
 2513TIP3   OH228953   0.074   6.229   2.959  0.3274  0.3135  0.4052
 2513TIP3    H128954   0.090   6.136   2.940  2.6419  0.5015  1.0652
 2513TIP3    H228955  -0.004   6.251   2.908 -0.0374 -1.8865 -0.0849
 2514TIP3   OH228956   0.022   2.881  16.327 -0.4895 -0.0071  0.3531
 2514TIP3    H128957  -0.015   2.810  16.273  1.2751 -0.5963 -0.1535
 2514TIP3    H228958   0.029   2.843  16.414 -0.7443 -0.0197  0.3686
 2515TIP3   OH228959   5.790   4.432   3.552 -0.5887 -0.5637  0.1286
 2515TIP3    H128960   5.773   4.526   3.555  1.2933 -0.1815 -0.0387
 2515TIP3    H228961   5.746   4.403   3.472 -1.4006  0.1108  0.3082
 2516TIP3   OH228962   6.240   4.490  13.443 -0.1745  0.3193  0.2446
 2516TIP3    H128963   6.236   4.428  13.370 -0.4176 -0.4806  0.9200
 2516TIP3    H228964   6.155   4.535  13.441 -0.6540 -0.5452  0.7483
 2517TIP3   OH228965   6.758   4.774   5.616  0.1279  0.0807  0.2694
 2517TIP3    H128966   6.828   4.774   5.550  0.6639 -2.2778  0.7507
 2517TIP3    H228967   6.714   4.690   5.604 -1.7151  0.9103  0.9500
 2518TIP3   OH228968   1.558   1.274  12.328 -0.0184 -0.3767 -0.0109
 2518TIP3    H128969   1.477   1.288  12.376 -1.4222 -0.6621 -2.1594
 2518TIP3    H228970   1.626   1.269  12.396 -1.7354  0.0802  1.8336
 2519TIP3   OH228971   3.465   1.831   5.929 -0.1233  0.0297  0.1630
 2519TIP3    H128972   3.525   1.876   5.989 -0.9191 -1.2838  2.0264
 2519TIP3    H228973   3.486   1.867   5.843  0.2810  2.8735  1.3413
 2520TIP3   OH228974   3.950   4.853   2.401  0.9220 -0.5023 -0.5335
 2520TIP3    H128975   3.975   4.857   2.308  1.3863  0.9249 -0.3646
 2520TIP3    H228976   4.028   4.881   2.448  0.4040 -0.3231  0.2359
 2521TIP3   OH228977   4.550   5.111  13.614 -0.0893  0.2076 -0.1544
 2521TIP3    H128978   4.541   5.034  13.671  1.6704 -1.2655 -1.7319
 2521TIP3    H228979   4.546   5.076  13.525  0.9422  1.8996 -0.9177
 2522TIP3   OH228980   2.590   1.579  13.794  0.5417 -0.0827  0.2315
 2522TIP3    H128981   2.627   1.490  13.792 -2.0079 -1.2141 -1.1802
 2522TIP3    H228982   2.579   1.602  13.702 -2.0158  0.2064  0.5374
 2523TIP3   OH228983   2.949   4.344  12.137  0.0829 -0.2148 -0.0412
 2523TIP3    H128984   2.866   4.317  12.099 -0.8320  1.4109  0.7004
 2523TIP3    H228985   2.960   4.435  12.109  2.9652 -1.1153 -2.3321
 2524TIP3   OH228986   1.760   0.813   4.694  0.4315  0.1405 -0.0791
 2524TIP3    H128987   1.780   0.820   4.788  0.3653  1.0266 -0.1313
 2524TIP3    H228988   1.844   0.826   4.650  0.1946  1.3131 -0.1982
 2525TIP3   OH228989   5.238   3.680  10.239  0.0447  0.2403 -0.2440
 2525TIP3    H128990   5.283   3.764  10.241  0.6803 -0.1004 -0.0226
 2525TIP3    H228991   5.306   3.617  10.215 -0.4003 -0.2268 -0.2888
 2526TIP3   OH228992   4.663   5.056   5.254  0.1211  0.0323  0.0459
 2526TIP3    H128993   4.616   4.984   5.213  1.0074 -0.6926  0.2650
 2526TIP3    H228994   4.698   5.019   5.335  0.6617  0.6733  0.1165
 2527TIP3   OH228995   6.008   5.029  10.789 -0.4691  0.5897 -0.5222
 2527TIP3    H128996   5.943   5.060  10.727 -1.1904 -0.2371 -0.1990
 2527TIP3    H228997   5.982   5.067  10.873 -1.4869 -0.9813 -0.0783
 2528TIP3   OH228998   0.910   5.523  17.202 -0.4875  0.3144 -0.3422
 2528TIP3    H128999   0.881   5.438  17.235 -0.9745  0.8093  0.5420
 2528TIP3    H229000   0.998   5.534  17.239 -0.5308  0.3087 -0.2357
 2529TIP3   OH229001   5.057   4.784   0.449 -0.1719  0.6378 -0.1151
 2529TIP3    H129002   5.033   4.820   0.535 -0.2103 -1.4559  0.8268
 2529TIP3    H229003   4.974   4.756   0.411 -0.2327  2.1775 -1.1793
 2530TIP3   OH229004   4.679   2.710   3.961  0.5982  0.5065 -0.1777
 2530TIP3    H129005   4.763   2.727   3.918  0.8309  0.9505  0.4363
 2530TIP3    H229006   4.678   2.770   4.036  0.0908 -0.0812  0.2919
 2531TIP3   OH229007   5.756   0.489  15.787  0.6854  0.5086  0.2577
 2531TIP3    H129008   5.848   0.468  15.766  0.8736  0.9325  0.6366
 2531TIP3    H229009   5.751   0.482  15.882 -0.7093 -3.5884  0.0714
 2532TIP3   OH229010   6.282   4.032  16.597 -0.4346 -0.0929 -0.0433
 2532TIP3    H129011   6.277   3.964  16.530 -1.6851 -1.4872  1.3828
 2532TIP3    H229012   6.229   3.999  16.670  0.5213  1.5303  1.4949
 2533TIP3   OH229013   1.712   4.486  16.549  0.2329  0.0426 -0.1010
 2533TIP3    H129014   1.771   4.443  16.488  0.8052 -0.2652  0.6525
 2533TIP3    H229015   1.748   4.466  16.635 -0.5887  0.4225  0.3415
 2534TIP3   OH229016   1.993   2.664  16.486  0.3089  0.3921  0.2265
 2534TIP3    H129017   2.053   2.653  16.559  1.0629  0.1202 -0.4147
 2534TIP3    H229018   1.988   2.577  16.446  0.5826  0.7237 -0.5500
 2535TIP3   OH229019   0.070   3.173  11.218  0.3937  1.0653  0.0236
 2535TIP3    H129020   0.075   3.266  11.196  1.8540  1.0078 -0.0301
 2535TIP3    H229021   0.083   3.170  11.313 -3.0046  1.1049  0.6127
 2536TIP3   OH229022   0.951   0.300   2.371 -0.2171  0.1209 -0.1539
 2536TIP3    H129023   0.970   0.301   2.464 -0.4798  0.0683 -0.1000
 2536TIP3    H229024   0.983   0.385   2.339  2.7190 -1.0346 -0.5947
 2537TIP3   OH229025   2.997   6.083   0.571 -0.5810 -0.0628  0.3347
 2537TIP3    H129026   3.036   6.043   0.648  1.0257 -0.0151 -0.4264
 2537TIP3    H229027   3.071   6.103   0.514 -1.6840  0.4508 -0.9643
 2538TIP3   OH229028   4.669   3.810   2.230  0.2579  0.2580  0.0095
 2538TIP3    H129029   4.694   3.833   2.320  0.4136 -1.4492  0.4408
 2538TIP3    H229030   4.731   3.742   2.205 -0.6522 -0.2610 -0.8972
 2539TIP3   OH229031   3.616   1.371   0.090 -0.2007  0.5772  0.2908
 2539TIP3    H129032   3.645   1.367   0.181  1.4043  1.8699 -0.1060
 2539TIP3    H229033   3.603   1.465   0.073 -1.6979  0.2691 -0.4797
 2540TIP3   OH229034   3.245   6.008   6.279 -0.1703 -0.2951 -0.0427
 2540TIP3    H129035   3.159   5.969   6.296 -0.2087 -0.0741  0.2752
 2540TIP3    H229036   3.301   5.974   6.349 -0.0285 -0.3413 -0.1777
 2541TIP3   OH229037   5.678   1.533  14.045 -0.4736 -0.3377 -0.0984
 2541TIP3    H129038   5.746   1.599  14.035  0.1384 -0.8623  0.5452
 2541TIP3    H229039   5.708   1.459  13.992 -0.3228 -0.7290  0.5194
 2542TIP3   OH229040   1.836   1.948   4.852 -0.2878 -0.3276  0.2864
 2542TIP3    H129041   1.818   1.856   4.869 -0.7097 -0.0845  1.2104
 2542TIP3    H229042   1.906   1.947   4.787 -1.7163 -1.2883 -1.2993
 2543TIP3   OH229043   4.617   3.674  15.719  0.2324  0.0617 -0.0002
 2543TIP3    H129044   4.680   3.728  15.672 -0.6454  0.0093 -1.3002
 2543TIP3    H229045   4.642   3.681  15.810  0.4038  2.3438 -0.1738
 2544TIP3   OH229046   1.675   0.176   5.077 -0.4760  0.7520  0.1512
 2544TIP3    H129047   1.617   0.203   5.005  0.0605 -1.3432 -1.1565
 2544TIP3    H229048   1.635   0.215   5.155 -3.8335 -0.7198 -0.6202
 2545TIP3   OH229049   6.714   5.786   1.238 -0.6666  0.0124 -0.0874
 2545TIP3    H129050   6.797   5.778   1.285 -0.1084  1.3118 -0.8136
 2545TIP3    H229051   6.656   5.830   1.300 -0.4668  0.1430  0.0076
 2546TIP3   OH229052   5.857   4.767  11.529 -0.9033 -0.6777 -0.0030
 2546TIP3    H129053   5.785   4.758  11.592 -0.7505  0.5126  0.3557
 2546TIP3    H229054   5.880   4.859  11.532  0.6817 -1.0457 -0.0679
 2547TIP3   OH229055   4.441   4.683  11.583 -0.0523  0.0596  0.4215
 2547TIP3    H129056   4.356   4.720  11.609 -1.1807 -1.9115 -0.2408
 2547TIP3    H229057   4.450   4.707  11.490  0.3906  0.7054  0.6223
 2548TIP3   OH229058   5.462   2.443   5.409 -0.2803 -0.8857  0.0820
 2548TIP3    H129059   5.376   2.403   5.396 -0.5105 -0.4337  0.1992
 2548TIP3    H229060   5.488   2.472   5.322  0.0232 -1.5533 -0.0563
 2549TIP3   OH229061   6.232   1.908   1.882  0.6299  0.7462 -0.7239
 2549TIP3    H129062   6.177   1.928   1.958 -2.5393 -1.8244 -2.0874
 2549TIP3    H229063   6.284   1.833   1.909  1.8870  1.7621 -0.1874
 2550TIP3   OH229064   2.197   0.812   4.844  0.0517 -0.3888 -0.2074
 2550TIP3    H129065   2.162   0.900   4.828  0.0786  0.3402  3.0111
 2550TIP3    H229066   2.141   0.755   4.792 -0.3743  1.4187 -1.9046
 2551TIP3   OH229067   4.203   5.675   1.025 -0.7842  0.5089  0.2552
 2551TIP3    H129068   4.258   5.596   1.024 -2.1018 -0.4416 -0.8295
 2551TIP3    H229069   4.246   5.733   1.087  1.7767  0.0525 -0.9537
 2552TIP3   OH229070   6.137   5.231   5.280 -0.2716 -0.0582 -0.0405
 2552TIP3    H129071   6.211   5.258   5.226 -0.4446 -0.8510 -0.6854
 2552TIP3    H229072   6.125   5.303   5.342  1.2617 -0.0759  0.3078
 2553TIP3   OH229073   2.730   1.718   2.702 -0.3523  0.3086 -0.0158
 2553TIP3    H129074   2.747   1.675   2.786 -1.0056  0.6163  0.2752
 2553TIP3    H229075   2.745   1.811   2.718 -1.2347  0.4612 -0.0319
 2554TIP3   OH229076   2.888   5.210  15.296 -0.0428 -0.8692 -0.1956
 2554TIP3    H129077   2.913   5.147  15.229 -0.6685 -0.6612 -0.6324
 2554TIP3    H229078   2.970   5.251  15.323  0.4194 -2.1139  0.3532
 2555TIP3   OH229079   3.089   3.607   1.170  0.2099  0.1369  0.2079
 2555TIP3    H129080   3.097   3.547   1.096  0.5996 -0.3042  0.6105
 2555TIP3    H229081   3.167   3.592   1.223 -1.0550 -1.0770  1.8312
 2556TIP3   OH229082   1.985   2.660   3.678  0.3929 -0.5388  0.0846
 2556TIP3    H129083   1.973   2.755   3.667 -3.6845 -0.9212 -0.3515
 2556TIP3    H229084   2.011   2.649   3.769 -2.0605  0.9524  1.0669
 2557TIP3   OH229085   3.002   3.756  13.108 -0.5247  0.3943  0.1348
 2557TIP3    H129086   2.984   3.664  13.087  2.9269 -0.1188 -1.2852
 2557TIP3    H229087   3.000   3.760  13.204  0.0495 -1.3787  0.2579
 2558TIP3   OH229088   2.341   5.148  11.270  0.0063  0.1411  0.3683
 2558TIP3    H129089   2.303   5.065  11.298 -2.7360  0.2382 -2.4675
 2558TIP3    H229090   2.269   5.211  11.276  1.0883  1.5586 -0.6427
 2559TIP3   OH229091   3.571   1.897   4.786  0.1778 -0.0887  0.0203
 2559TIP3    H129092   3.553   1.970   4.728 -0.2415 -1.3451 -1.4917
 2559TIP3    H229093   3.501   1.834   4.769  0.6608 -0.9643  1.0959
 2560TIP3   OH229094   2.579   5.078   0.724 -0.6049  0.2320  0.0258
 2560TIP3    H129095   2.557   5.143   0.657 -1.2005  0.9972  0.9453
 2560TIP3    H229096   2.620   5.127   0.794  0.7607 -0.6865 -0.0971
 2561TIP3   OH229097   2.531   4.707   0.663  0.1300 -0.1421 -0.4965
 2561TIP3    H129098   2.607   4.762   0.680  0.7146 -0.6874 -1.2603
 2561TIP3    H229099   2.559   4.648   0.593 -1.2212  0.1071 -1.2875
 2562TIP3   OH229100   5.712   3.072  11.825  0.7655  0.0019 -0.3450
 2562TIP3    H129101   5.768   3.003  11.859  1.1734  0.1443 -0.7222
 2562TIP3    H229102   5.766   3.118  11.762  0.5161  0.7013 -0.0636
 2563TIP3   OH229103   2.503   3.337  12.302  0.2875 -0.4126 -0.4378
 2563TIP3    H129104   2.531   3.306  12.216  0.6661  0.3977 -0.6230
 2563TIP3    H229105   2.512   3.433  12.297 -0.2795 -0.3082  0.2952
 2564TIP3   OH229106   6.203   2.831   1.017  0.2121 -0.2778 -0.1279
 2564TIP3    H129107   6.136   2.900   1.018  1.4215  0.9438  0.0442
 2564TIP3    H229108   6.160   2.756   0.976 -1.3547  0.3622  0.2772
 2565TIP3   OH229109   1.820   6.088  16.840  0.1057 -0.3997 -0.6855
 2565TIP3    H129110   1.785   6.047  16.760 -0.2446 -1.4373 -0.0175
 2565TIP3    H229111   1.745   6.131  16.880  0.2076 -0.1740 -0.7375
 2566TIP3   OH229112   5.144   2.314   0.567  0.5291 -0.5768 -0.6676
 2566TIP3    H129113   5.055   2.344   0.549  0.5399  1.3925  1.9298
 2566TIP3    H229114   5.134   2.222   0.593 -0.7030 -0.4572 -0.6703
 2567TIP3   OH229115   3.243   4.433  14.932 -0.2063 -0.1036  0.7445
 2567TIP3    H129116   3.164   4.456  14.981 -0.0296 -0.6147  1.2898
 2567TIP3    H229117   3.287   4.369  14.988 -0.2675 -1.1148 -0.3338
 2568TIP3   OH229118   5.208   4.454   3.286 -0.4424  0.0312  0.3668
 2568TIP3    H129119   5.236   4.412   3.368 -0.1259  0.3395  0.4197
 2568TIP3    H229120   5.286   4.498   3.254  0.1394 -2.0514 -1.3714
 2569TIP3   OH229121   2.659   1.855  11.400  0.7454  0.1083 -1.0090
 2569TIP3    H129122   2.621   1.767  11.400 -0.9802  0.7587  1.0675
 2569TIP3    H229123   2.720   1.855  11.474  1.6472  0.3378 -1.7314
 2570TIP3   OH229124   1.490   5.013   5.128  0.6908  0.3931 -0.3033
 2570TIP3    H129125   1.428   4.961   5.076  1.0260  0.3455 -0.6636
 2570TIP3    H229126   1.550   4.948   5.164  0.6411  0.4561 -0.1096
 2571TIP3   OH229127   1.968   6.384  14.014  0.0081  0.1528  0.6022
 2571TIP3    H129128   1.909   6.437  14.066  0.6573  0.0019  1.5058
 2571TIP3    H229129   1.959   6.296  14.049 -0.7112 -0.2695 -0.5794
 2572TIP3   OH229130   0.215   6.687   4.079  0.3687 -0.0711 -0.1271
 2572TIP3    H129131   0.293   6.725   4.039 -0.4212  0.1198 -1.5306
 2572TIP3    H229132   0.188   6.617   4.019 -0.8658  0.2490  0.0258
 2573TIP3   OH229133   2.927   6.579  13.543 -0.6913  0.1218  0.1453
 2573TIP3    H129134   2.981   6.598  13.620  0.7194 -0.0759 -0.7516
 2573TIP3    H229135   2.884   6.497  13.563 -0.9093  0.4399  1.0170
 2574TIP3   OH229136   1.029   1.147  17.164 -0.0655 -0.0837 -0.4835
 2574TIP3    H129137   1.091   1.179  17.098 -0.9165  1.5989 -0.5197
 2574TIP3    H229138   1.007   1.059  17.135  0.6405  0.1120 -1.6776
 2575TIP3   OH229139   5.379   2.006   4.325  0.1778 -0.3514 -0.3198
 2575TIP3    H129140   5.349   2.072   4.262 -1.7893  0.0368  0.9210
 2575TIP3    H229141   5.466   2.035   4.352 -0.2411  1.1792 -0.5504
 2576TIP3   OH229142   2.644   1.479  16.040 -0.4928  0.4093  0.3986
 2576TIP3    H129143   2.715   1.470  16.103 -0.4381  0.7680  0.3908
 2576TIP3    H229144   2.575   1.421  16.073 -0.2375  0.1379  0.4598
 2577TIP3   OH229145   6.671   2.608   2.913 -0.3491 -0.5770  0.2271
 2577TIP3    H129146   6.587   2.629   2.873 -0.4789 -0.7778  0.3936
 2577TIP3    H229147   6.652   2.597   3.006 -0.4206 -2.1239  0.0613
 2578TIP3   OH229148   4.530   1.440   5.616 -0.1951 -0.2155 -0.4717
 2578TIP3    H129149   4.612   1.471   5.656 -1.7745  1.9457  1.3631
 2578TIP3    H229150   4.475   1.417   5.690 -1.6625 -0.4984 -1.6098
 2579TIP3   OH229151   3.111   2.595  13.020  0.3309 -0.0625  0.0955
 2579TIP3    H129152   3.129   2.683  13.053  0.1424  0.5629 -1.3943
 2579TIP3    H229153   3.061   2.552  13.089 -2.8535  2.2502 -0.5817
 2580TIP3   OH229154   0.232   1.085  11.483 -0.2602 -0.0225  0.3765
 2580TIP3    H129155   0.182   1.093  11.565  0.6238 -0.2923  0.9538
 2580TIP3    H229156   0.318   1.121  11.503 -0.3387  0.8308 -0.7426
 2581TIP3   OH229157   3.434   6.519   3.902  0.5929  0.1195 -0.2266
 2581TIP3    H129158   3.340   6.512   3.888  0.9026  0.0587 -3.0359
 2581TIP3    H229159   3.447   6.606   3.938 -0.5741 -0.2130  1.0682
 2582TIP3   OH229160   4.655   2.338   5.480  0.2239 -0.0868 -0.5853
 2582TIP3    H129161   4.636   2.303   5.567 -1.4467  0.6323 -0.6165
 2582TIP3    H229162   4.574   2.323   5.431 -0.3493  3.1285 -0.8195
 2583TIP3   OH229163   0.254   3.794   2.783  0.1704  0.0960 -0.3711
 2583TIP3    H129164   0.341   3.769   2.750 -0.2386 -0.9077 -0.7001
 2583TIP3    H229165   0.231   3.871   2.732  0.0940 -0.7007 -1.5571
 2584TIP3   OH229166   2.216   2.030   2.349 -0.1997  0.2937 -0.3865
 2584TIP3    H129167   2.187   2.077   2.427  1.2667 -1.3066  1.2246
 2584TIP3    H229168   2.172   1.945   2.353  0.8371 -0.2717 -0.6056
 2585TIP3   OH229169   5.380   6.687  16.067 -0.4008  0.3880  0.0620
 2585TIP3    H129170   5.469   6.713  16.042 -0.0992 -2.1011 -1.7859
 2585TIP3    H229171   5.347   6.762  16.117  2.9267  1.1352  1.3790
 2586TIP3   OH229172   3.404   1.660  12.220  0.0876  0.1176 -0.8006
 2586TIP3    H129173   3.424   1.610  12.141  0.4145 -1.0906  0.0041
 2586TIP3    H229174   3.367   1.595  12.280  0.0654  0.9589  0.1196
 2587TIP3   OH229175   5.317   2.796  12.259  0.2390  0.0721 -0.2682
 2587TIP3    H129176   5.341   2.755  12.176 -0.9690 -1.0683 -0.0906
 2587TIP3    H229177   5.366   2.748  12.325 -1.1794 -1.1598 -0.0597
 2588TIP3   OH229178   2.554   6.009   2.619 -0.2590  0.0110  0.2745
 2588TIP3    H129179   2.606   6.089   2.625 -1.1459  0.6953 -0.6663
 2588TIP3    H229180   2.465   6.040   2.602 -0.7505 -1.1608  0.5857
 2589TIP3   OH229181   4.079   1.514  15.668 -1.0096  0.4408 -0.0887
 2589TIP3    H129182   4.072   1.483  15.578  1.8088  0.8710 -0.5504
 2589TIP3    H229183   4.106   1.606  15.660  0.4745  0.1581  1.1508
 2590TIP3   OH229184   4.899   5.113   1.922 -0.5694  0.0874 -0.1333
 2590TIP3    H129185   4.885   5.115   1.828 -0.9232 -1.4317 -0.1374
 2590TIP3    H229186   4.989   5.082   1.933  0.4393  2.7786  0.0308
 2591TIP3   OH229187   4.358   1.330   2.993  0.4138  0.2228  0.7566
 2591TIP3    H129188   4.335   1.416   2.960 -0.0945 -0.2505 -0.1588
 2591TIP3    H229189   4.342   1.336   3.088  0.3086  1.0988  0.6937
 2592TIP3   OH229190   3.715   1.156  17.223  0.5330 -0.1094 -0.1545
 2592TIP3    H129191   3.635   1.116  17.188  0.7776 -2.2622  1.5618
 2592TIP3    H229192   3.684   1.229  17.276  0.0486  1.9129 -2.9700
 2593TIP3   OH229193   6.083   4.542  15.039 -0.8013 -0.0706 -0.0001
 2593TIP3    H129194   6.001   4.578  15.072 -2.5214 -0.8957 -3.0115
 2593TIP3    H229195   6.131   4.618  15.005 -2.2485  0.0740 -1.9267
 2594TIP3   OH229196   0.156   5.824   0.284 -0.2752 -0.7733 -0.6127
 2594TIP3    H129197   0.233   5.814   0.340 -0.6462 -0.6114 -0.0636
 2594TIP3    H229198   0.191   5.826   0.195  0.3506 -0.7454 -0.3710
 2595TIP3   OH229199   1.252   5.903   1.734  0.1760  0.0872  0.0698
 2595TIP3    H129200   1.238   5.852   1.654 -1.4074 -0.9159  0.9414
 2595TIP3    H229201   1.272   5.837   1.801 -0.1545  0.7753  0.8546
 2596TIP3   OH229202   3.021   6.064  13.875 -0.3169  0.1682 -0.1987
 2596TIP3    H129203   3.005   6.152  13.842 -2.3571 -0.2266 -0.4170
 2596TIP3    H229204   2.939   6.017  13.860  1.2318 -2.2902 -1.6714
 2597TIP3   OH229205   3.142   6.560   0.967 -0.7569 -0.2516 -0.7073
 2597TIP3    H129206   3.126   6.557   0.872 -0.7743  0.0825 -0.7154
 2597TIP3    H229207   3.229   6.601   0.975  0.0222 -1.8333 -0.6555
 2598TIP3   OH229208   1.116   2.418  15.928 -0.3106  0.7084  1.0098
 2598TIP3    H129209   1.073   2.333  15.921 -0.8816  1.1203 -1.8147
 2598TIP3    H229210   1.051   2.475  15.969 -0.5969  0.1835  1.2946
 2599TIP3   OH229211   5.456   2.821  15.126  0.3034  0.3542 -0.0434
 2599TIP3    H129212   5.485   2.895  15.179 -0.9212  0.6378  0.2648
 2599TIP3    H229213   5.400   2.770  15.184 -1.4165  0.8938 -1.1562
 2600TIP3   OH229214   0.035   4.965  14.370  0.1565  0.4781 -0.4925
 2600TIP3    H129215  -0.056   4.943  14.390  0.0918 -0.6047 -1.8622
 2600TIP3    H229216   0.064   4.898  14.308  1.3965  1.7042 -1.3209
 2601TIP3   OH229217   6.070   5.579  16.871  0.3184 -0.3126  0.1543
 2601TIP3    H129218   6.080   5.526  16.792 -0.2398 -0.2422  0.0303
 2601TIP3    H229219   5.997   5.638  16.851  0.0439 -0.4316  0.7933
 2602TIP3   OH229220   2.585   5.359   3.238 -0.8456  0.3215  0.5020
 2602TIP3    H129221   2.661   5.417   3.232  0.0041 -0.7894  0.0185
 2602TIP3    H229222   2.585   5.311   3.156 -1.6634 -0.1876  0.7882
 2603TIP3   OH229223   0.434   4.776   5.648 -0.0403  0.4095  0.3855
 2603TIP3    H129224   0.388   4.812   5.572 -1.3743 -1.4664  0.2255
 2603TIP3    H229225   0.374   4.788   5.721  0.4932  0.6084  0.7993
 2604TIP3   OH229226   3.458   6.593   4.744 -0.0382  0.3677  0.9081
 2604TIP3    H129227   3.385   6.590   4.682  1.4727 -1.9585 -0.9600
 2604TIP3    H229228   3.453   6.510   4.791  0.3614  0.9905  2.0901
 2605TIP3   OH229229   1.734   6.560   0.483  0.1210  0.9703 -0.0733
 2605TIP3    H129230   1.700   6.646   0.506  0.0917  1.1808 -0.8803
 2605TIP3    H229231   1.736   6.512   0.566 -1.1884  1.2797  0.1621
 2606TIP3   OH229232   3.947   0.454  15.475  0.2919 -0.2814  0.1898
 2606TIP3    H129233   3.976   0.480  15.562  1.3816 -0.1213 -0.2141
 2606TIP3    H229234   3.965   0.360  15.471 -0.2315 -0.3899  0.3163
 2607TIP3   OH229235   2.138   6.027  12.168 -0.0778  0.4470 -0.1666
 2607TIP3    H129236   2.141   6.083  12.246 -3.1968 -0.7459  0.9516
 2607TIP3    H229237   2.124   5.939  12.202 -1.6396 -0.0997 -2.0386
 2608TIP3   OH229238   4.144   1.453   4.763 -0.2770 -0.6448  0.0749
 2608TIP3    H129239   4.132   1.363   4.733  0.7407 -0.7335 -0.0825
 2608TIP3    H229240   4.059   1.495   4.746 -0.9372 -1.7007  0.6401
 2609TIP3   OH229241   1.700   6.190   0.916 -0.0295 -0.3857 -0.0441
 2609TIP3    H129242   1.769   6.179   0.982  0.9807  1.0987 -0.7822
 2609TIP3    H229243   1.633   6.126   0.940 -0.0609  0.5912  2.8422
 2610TIP3   OH229244   5.569   2.008   4.539 -0.4341 -0.2584  0.2205
 2610TIP3    H129245   5.579   1.914   4.555  1.6123 -0.1076  0.0294
 2610TIP3    H229246   5.530   2.041   4.620 -1.7150 -1.3255  0.0774
 2611TIP3   OH229247   5.848   2.676  15.432  0.1047  0.7397  0.3047
 2611TIP3    H129248   5.917   2.677  15.366 -0.2332 -1.2341 -0.1475
 2611TIP3    H229249   5.806   2.762  15.424  0.4854  0.7908 -1.6117
 2612TIP3   OH229250   4.806   1.339  16.071 -0.2589 -0.0413  0.4927
 2612TIP3    H129251   4.864   1.367  16.141  1.5488 -3.0265  0.3582
 2612TIP3    H229252   4.746   1.277  16.112 -0.2365 -0.5889 -0.2861
 2613TIP3   OH229253   0.894   2.667   2.536 -0.0055 -0.0407 -0.6094
 2613TIP3    H129254   0.837   2.673   2.613  0.4870  0.2072 -0.2632
 2613TIP3    H229255   0.889   2.575   2.510  2.4000 -0.9443  1.7107
 2614TIP3   OH229256   0.575   4.544   5.814 -0.4628 -0.7386  0.5278
 2614TIP3    H129257   0.548   4.487   5.886 -0.7689 -1.4475 -0.1430
 2614TIP3    H229258   0.501   4.604   5.802 -0.7251 -1.0980  0.3206
 2615TIP3   OH229259   6.129   5.391  17.077  0.0199 -0.1576 -0.7784
 2615TIP3    H129260   6.094   5.451  17.011  2.7017  0.7773 -1.4617
 2615TIP3    H229261   6.101   5.428  17.161 -1.3399  0.0012 -1.2666
 2616TIP3   OH229262   1.478   3.698   5.313  0.0370 -0.2383  0.0824
 2616TIP3    H129263   1.492   3.792   5.309 -1.7488  0.0387 -0.3410
 2616TIP3    H229264   1.468   3.672   5.221  0.1426 -0.7925  0.2233
 2617TIP3   OH229265   3.557   3.039   3.459  0.1546  0.3079  0.2270
 2617TIP3    H129266   3.482   3.097   3.448 -0.2704 -0.1404  0.7298
 2617TIP3    H229267   3.580   3.045   3.551  0.6336  0.3052  0.1137
 2618TIP3   OH229268   2.507   3.929  15.959  0.1922 -0.4832  0.5450
 2618TIP3    H129269   2.494   3.883  16.043  0.5818  0.6882  1.2727
 2618TIP3    H229270   2.596   3.963  15.964 -0.1751  0.5721  0.1598
 2619TIP3   OH229271   5.418   3.502   2.220  0.1886 -0.1455 -0.5250
 2619TIP3    H129272   5.436   3.565   2.290 -0.4427  0.0831 -0.5617
 2619TIP3    H229273   5.352   3.545   2.166  0.1838 -0.6011 -0.8826
 2620TIP3   OH229274   4.501   3.634  14.619  0.3445 -0.2736  0.4609
 2620TIP3    H129275   4.427   3.579  14.592  0.6792 -0.7969  0.6148
 2620TIP3    H229276   4.468   3.723  14.609  0.0424 -0.4751 -0.5162
 2621TIP3   OH229277   1.008   5.351  16.072  0.6105  0.9667 -0.0856
 2621TIP3    H129278   1.059   5.366  16.152  0.2614  0.7833  0.1791
 2621TIP3    H229279   1.070   5.365  16.001  1.4511 -0.7432  0.2520
 2622TIP3   OH229280   0.727   4.551  16.921 -0.7244 -0.5824 -0.4579
 2622TIP3    H129281   0.679   4.500  16.987 -0.9231  0.9738  0.6582
 2622TIP3    H229282   0.765   4.485  16.863 -2.8165 -1.9219 -0.4103
 2623TIP3   OH229283   5.542   2.315  12.819 -0.1485 -0.0370  0.6382
 2623TIP3    H129284   5.482   2.254  12.863  0.4028  0.6821  2.4828
 2623TIP3    H229285   5.485   2.372  12.768 -0.9169 -0.3203  1.1558
 2624TIP3   OH229286   0.751   6.198  14.337 -0.2111  0.6414 -0.4970
 2624TIP3    H129287   0.766   6.110  14.373 -1.8491 -0.8597 -3.1862
 2624TIP3    H229288   0.676   6.231  14.387 -0.2844  0.0471 -0.1982
 2625TIP3   OH229289   2.970   1.580   5.171 -0.2503  0.2173  0.1896
 2625TIP3    H129290   2.893   1.597   5.224 -0.8718  1.9365 -1.1621
 2625TIP3    H229291   2.956   1.493   5.134 -0.2418 -0.6080  2.0135
 2626TIP3   OH229292   0.152   3.382  11.828 -0.1614  0.6725  0.2957
 2626TIP3    H129293   0.126   3.419  11.744 -1.0761  2.2066  1.2100
 2626TIP3    H229294   0.074   3.336  11.859  0.9201 -2.0712 -0.7669
 2627TIP3   OH229295   1.271   3.332  12.197  0.2719  0.5193  0.2095
 2627TIP3    H129296   1.271   3.293  12.109 -0.9335 -1.0924  0.8750
 2627TIP3    H229297   1.181   3.319  12.229  0.6611  1.1614  1.6461
 2628TIP3   OH229298   6.746   3.582  16.190 -0.2884  0.1610 -0.5314
 2628TIP3    H129299   6.787   3.541  16.267  0.6847 -0.3904 -1.3209
 2628TIP3    H229300   6.708   3.509  16.142  2.4776 -0.1021 -2.5717
 2629TIP3   OH229301   1.648   1.759  12.281 -0.3018  0.8551 -0.3684
 2629TIP3    H129302   1.686   1.684  12.326 -2.1264 -0.7927 -1.3891
 2629TIP3    H229303   1.669   1.834  12.336 -0.3556 -0.7198  1.9323
 2630TIP3   OH229304   4.177   2.215  12.010  0.1922  0.1046 -0.4249
 2630TIP3    H129305   4.271   2.229  12.014  0.1518  0.1258  1.9319
 2630TIP3    H229306   4.140   2.278  12.071 -1.1805 -1.0787  0.0460
 2631TIP3   OH229307   5.950   2.042   0.240  0.0819 -0.1749  0.2827
 2631TIP3    H129308   5.871   2.084   0.205 -0.2057  0.3860  1.5735
 2631TIP3    H229309   5.968   1.970   0.179 -2.1105 -1.0595  0.5974
 2632TIP3   OH229310   2.985   4.111   1.796 -0.2236  0.0665  0.8479
 2632TIP3    H129311   2.924   4.110   1.869 -1.4864 -0.4680 -0.1800
 2632TIP3    H229312   3.035   4.192   1.808 -1.8910  1.1118  1.1295
 2633TIP3   OH229313   0.750   2.193   3.602 -0.1201 -0.4553  0.0194
 2633TIP3    H129314   0.701   2.271   3.576  2.1720  0.7545 -0.9831
 2633TIP3    H229315   0.782   2.156   3.520  0.5173 -1.2495  0.6139
 2634TIP3   OH229316   4.742   2.648  11.162 -0.6136 -0.5334  0.2217
 2634TIP3    H129317   4.673   2.636  11.096 -1.0909 -0.3485  0.6846
 2634TIP3    H229318   4.751   2.562  11.203  0.0835 -0.8009 -0.4593
 2635TIP3   OH229319   1.924   5.560  14.867  0.1692  0.0954 -0.4985
 2635TIP3    H129320   1.963   5.475  14.887  2.2076  0.9229 -0.6763
 2635TIP3    H229321   1.976   5.592  14.793 -1.7435  0.7288 -1.6262
 2636TIP3   OH229322   2.866   0.823   3.389  0.4090 -0.1795 -0.1825
 2636TIP3    H129323   2.879   0.876   3.310 -0.4165  0.2733 -0.0203
 2636TIP3    H229324   2.772   0.807   3.393  0.3802  0.1487  0.9286
 2637TIP3   OH229325   0.521   2.771  11.365 -1.0018  0.3539  0.4590
 2637TIP3    H129326   0.560   2.690  11.396 -0.9374 -0.0808 -0.7009
 2637TIP3    H229327   0.446   2.786  11.423 -1.9840 -1.4016 -0.3029
 2638TIP3   OH229328   4.497   5.173   3.574  0.3484 -0.0921  0.7041
 2638TIP3    H129329   4.571   5.121   3.543 -1.5469 -3.8502  1.8479
 2638TIP3    H229330   4.495   5.157   3.669 -0.1390  2.5057  1.1952
 2639TIP3   OH229331   4.676   3.185  15.386 -0.1982 -0.2600  0.1079
 2639TIP3    H129332   4.634   3.153  15.465 -1.5024  0.8558 -0.0868
 2639TIP3    H229333   4.603   3.217  15.332  0.4536 -2.6331 -2.3502
 2640TIP3   OH229334   5.005   0.401   2.782  0.0031 -0.2333 -0.1486
 2640TIP3    H129335   4.986   0.313   2.815 -2.0072  0.8779  1.9639
 2640TIP3    H229336   5.055   0.442   2.853 -1.5033  1.1736  0.1482
 2641TIP3   OH229337   4.798   1.693   4.169 -0.1903  0.6942  0.1921
 2641TIP3    H129338   4.760   1.713   4.254  0.3792  2.4624  0.0621
 2641TIP3    H229339   4.884   1.655   4.189 -0.0644  1.0898  0.4213
 2642TIP3   OH229340   4.298   1.184   3.667 -0.2057 -0.0695  0.3492
 2642TIP3    H129341   4.350   1.145   3.596  0.5866  0.9261  0.3563
 2642TIP3    H229342   4.226   1.123   3.680 -0.1228 -0.4945 -1.0231
 2643TIP3   OH229343   4.462   5.163  17.192  0.9587 -0.1729  0.3734
 2643TIP3    H129344   4.519   5.086  17.188  0.3557 -0.6223  0.3254
 2643TIP3    H229345   4.384   5.133  17.239  0.3755  0.1859 -0.3535
 2644TIP3   OH229346   4.946   6.524  17.244  0.8195 -0.5471 -0.5129
 2644TIP3    H129347   4.877   6.579  17.282 -0.4146 -0.8054 -2.2486
 2644TIP3    H229348   5.016   6.525  17.309 -1.1979 -1.1275  1.8675
 2645TIP3   OH229349   2.966   3.941  12.402 -0.1833  0.0732 -0.5195
 2645TIP3    H129350   2.918   4.024  12.395 -0.4519  0.1061  1.1864
 2645TIP3    H229351   2.940   3.906  12.487  1.3837 -0.8350 -0.3708
 2646TIP3   OH229352   3.373   2.893   4.750  0.3260  0.7170 -0.1924
 2646TIP3    H129353   3.456   2.922   4.789 -0.1914  1.1282  0.6104
 2646TIP3    H229354   3.309   2.956   4.781 -0.5336 -0.3571  0.2627
 2647TIP3   OH229355   2.370   6.027   1.423  0.3157 -0.5317 -0.1994
 2647TIP3    H129356   2.318   5.967   1.370 -0.4331 -1.0228  1.0481
 2647TIP3    H229357   2.416   5.971   1.485  0.7736  0.0732  0.0176
 2648TIP3   OH229358   0.679   2.924   1.168 -0.1362  0.3651  0.4110
 2648TIP3    H129359   0.749   2.990   1.167 -0.2169  0.4483  0.2614
 2648TIP3    H229360   0.706   2.863   1.237  1.0869 -0.6967 -0.9485
 2649TIP3   OH229361   0.636   2.476  13.642 -0.2925  0.6919  0.6414
 2649TIP3    H129362   0.687   2.548  13.606 -0.1439  0.1434 -0.2957
 2649TIP3    H229363   0.690   2.398  13.627 -2.0000 -0.1406 -1.8162
 2650TIP3   OH229364   1.541   4.441   1.573  0.2134  0.4191 -0.3310
 2650TIP3    H129365   1.549   4.489   1.491 -0.8185  0.0510 -0.6574
 2650TIP3    H229366   1.596   4.363   1.560  1.5559  1.2582  0.0471
 2651TIP3   OH229367   2.937   0.981  11.211  0.5213 -1.0319  0.0444
 2651TIP3    H129368   2.910   0.894  11.181  1.1904 -1.3693  0.3988
 2651TIP3    H229369   2.867   1.040  11.181  0.8132 -1.4530 -1.5551
 2652TIP3   OH229370   3.459   0.526  12.869 -0.0323  1.0225  0.1176
 2652TIP3    H129371   3.452   0.598  12.931  0.9622  1.5517 -0.3563
 2652TIP3    H229372   3.371   0.517  12.833 -0.3615  1.4363  0.7896
 2653TIP3   OH229373   1.273   0.283   0.037  0.0856 -0.1520 -0.0111
 2653TIP3    H129374   1.255   0.375   0.053  0.1854 -0.4175  1.8326
 2653TIP3    H229375   1.336   0.283  -0.035 -0.4630  1.1650 -0.5217
 2654TIP3   OH229376   4.233   2.500   1.593 -0.9486 -0.0820 -0.5838
 2654TIP3    H129377   4.284   2.545   1.525  3.1010 -0.7110  1.6668
 2654TIP3    H229378   4.241   2.407   1.572  0.5952 -0.3058  0.7362
 2655TIP3   OH229379   5.192   0.036  15.811  0.1608 -0.4738  0.1460
 2655TIP3    H129380   5.259   0.048  15.879 -0.3500  0.0828  0.5639
 2655TIP3    H229381   5.113   0.010  15.859 -0.6966  1.6541 -0.0022
 2656TIP3   OH229382   5.933   5.299  14.237  0.2133  0.1179  0.2452
 2656TIP3    H129383   5.857   5.240  14.232  1.5093 -1.6913  0.7318
 2656TIP3    H229384   5.903   5.372  14.290 -1.3011 -0.3694  0.1139
 2657TIP3   OH229385   1.230   5.355  11.975  0.4628  0.0669  0.2775
 2657TIP3    H129386   1.188   5.275  12.008  0.5565 -0.1050 -0.0105
 2657TIP3    H229387   1.242   5.338  11.882  3.4649 -0.9841  0.7188
 2658TIP3   OH229388   6.212   4.089   1.787 -0.0432  0.2225  0.1621
 2658TIP3    H129389   6.182   3.999   1.778 -0.9506  0.4668  0.6878
 2658TIP3    H229390   6.232   4.117   1.697 -1.1554 -0.0222 -0.1698
 2659TIP3   OH229391   5.398   2.028   1.067  0.1594 -0.1399  1.0968
 2659TIP3    H129392   5.311   2.054   1.036  0.4981  0.4200  0.5759
 2659TIP3    H229393   5.402   2.059   1.157 -0.3612 -0.6130  1.2886
 2660TIP3   OH229394   3.107   0.084   6.827  0.6156  0.1466 -0.3056
 2660TIP3    H129395   3.184   0.139   6.837  0.5804  0.3033 -0.8662
 2660TIP3    H229396   3.141  -0.006   6.830  1.0361  0.2129 -2.0504
 2661TIP3   OH229397   6.644   4.517   2.866 -0.0359  0.0404 -0.4949
 2661TIP3    H129398   6.668   4.597   2.912  0.7310  0.3130 -1.3348
 2661TIP3    H229399   6.606   4.547   2.784 -2.0332 -0.4185  0.1994
 2662TIP3   OH229400   5.389   3.078   0.695 -0.6735  0.0058 -0.6879
 2662TIP3    H129401   5.380   3.170   0.670 -0.6969  0.3591  0.5620
 2662TIP3    H229402   5.347   3.072   0.780  0.9323 -0.7523  0.0996
 2663TIP3   OH229403   2.142   4.604   6.358 -0.0727  0.3979 -0.0084
 2663TIP3    H129404   2.175   4.666   6.293  1.3326  0.5499  0.7925
 2663TIP3    H229405   2.157   4.647   6.442 -2.6017  0.5595  0.4350
 2664TIP3   OH229406   2.847   3.001  15.972 -0.2204  0.0496 -0.1212
 2664TIP3    H129407   2.834   3.060  16.047  0.8040  0.6940 -0.4335
 2664TIP3    H229408   2.934   3.024  15.939 -1.0868  0.5605 -2.1955
 2665TIP3   OH229409   5.183   1.511   1.317 -0.5346  0.0811  0.0526
 2665TIP3    H129410   5.106   1.545   1.271 -1.5849 -1.1838  0.8007
 2665TIP3    H229411   5.257   1.532   1.259 -1.4725  0.9929 -0.8609
 2666TIP3   OH229412   6.339   0.943  12.603  0.0948 -0.0301  0.8184
 2666TIP3    H129413   6.253   0.964  12.640  0.6907  1.0810  1.6383
 2666TIP3    H229414   6.355   0.853  12.632 -0.0770  0.3305  2.1346
 2667TIP3   OH229415   3.525   6.521  12.286 -0.1149 -0.6800 -0.4393
 2667TIP3    H129416   3.528   6.496  12.194 -0.3768  0.7718 -0.8548
 2667TIP3    H229417   3.487   6.444  12.330 -1.2674 -0.8769 -1.7230
 2668TIP3   OH229418   1.730   2.039   5.547 -0.0565  0.3367 -0.0340
 2668TIP3    H129419   1.748   2.133   5.545 -1.2966  0.5785 -2.1141
 2668TIP3    H229420   1.815   1.998   5.532  0.9753  0.9597  3.2794
 2669TIP3   OH229421   0.599   5.942  11.520 -0.8291  0.0344 -0.2112
 2669TIP3    H129422   0.591   5.872  11.456  2.1452 -1.4118  0.8261
 2669TIP3    H229423   0.618   5.898  11.603 -1.2268  1.9809  1.0009
 2670TIP3   OH229424   4.968   3.373   5.083 -0.1770  0.0939 -0.1374
 2670TIP3    H129425   4.881   3.336   5.100  0.4265 -0.6864  1.4697
 2670TIP3    H229426   5.016   3.303   5.040  1.5264 -1.9540  4.4553
 2671TIP3   OH229427   4.255   6.507   1.303 -0.3440  0.2794  0.4696
 2671TIP3    H129428   4.246   6.514   1.398  0.6682 -0.3753  0.6297
 2671TIP3    H229429   4.303   6.426   1.289 -2.3579 -0.7940 -0.7344
 2672TIP3   OH229430   6.177   4.272   4.869  0.3091  0.0004 -0.2444
 2672TIP3    H129431   6.088   4.291   4.897  0.8302  2.9854 -0.1981
 2672TIP3    H229432   6.168   4.202   4.805 -2.0195 -0.0358  0.0415
 2673TIP3   OH229433   1.810   4.719   1.749 -0.0270  1.0251  0.3744
 2673TIP3    H129434   1.883   4.662   1.724 -0.6321  0.7345 -0.7902
 2673TIP3    H229435   1.740   4.659   1.773  0.0224  1.3056  1.2898
 2674TIP3   OH229436   1.385   4.919   4.800 -0.2348  0.0965 -0.0933
 2674TIP3    H129437   1.346   4.886   4.881 -0.1633 -4.0225 -1.4996
 2674TIP3    H229438   1.475   4.886   4.802 -0.6523 -1.4157 -2.4006
 2675TIP3   OH229439   2.483   1.870  11.919  0.1756  0.0479 -0.4255
 2675TIP3    H129440   2.460   1.858  11.826 -0.6694 -0.0821 -0.2090
 2675TIP3    H229441   2.421   1.936  11.950 -0.2985 -0.7372  0.3313
 2676TIP3   OH229442   0.977   4.146   1.003 -0.7702 -0.3273 -0.2707
 2676TIP3    H129443   1.060   4.126   0.958 -0.0848 -1.3511  1.3604
 2676TIP3    H229444   0.989   4.235   1.036 -0.4760 -0.3223 -0.3872
 2677TIP3   OH229445   0.691   3.632   3.754 -0.8704  0.9021 -0.1776
 2677TIP3    H129446   0.658   3.670   3.672  1.0399  1.3508 -0.7892
 2677TIP3    H229447   0.719   3.544   3.730  0.8936  1.4769 -0.3574
 2678TIP3   OH229448   4.858   1.959  10.855  0.2035 -0.4571  0.2257
 2678TIP3    H129449   4.776   1.967  10.806  0.9089  0.1322 -0.9240
 2678TIP3    H229450   4.863   2.039  10.907  1.7371  1.4407 -2.5176
 2679TIP3   OH229451   1.684   4.487   4.308 -0.0414 -0.1586  0.1819
 2679TIP3    H129452   1.705   4.428   4.235  1.2654 -1.7916  1.7970
 2679TIP3    H229453   1.598   4.457   4.339 -0.8827  0.9259 -1.0012
 2680TIP3   OH229454   5.711   1.936  11.463  0.5281 -0.4794  0.1644
 2680TIP3    H129455   5.638   1.926  11.524  1.6870  0.8686  1.8671
 2680TIP3    H229456   5.680   1.896  11.382 -2.0126 -0.1523  0.8776
 2681TIP3   OH229457   1.935   3.503   2.362 -0.4535  0.8465 -0.3535
 2681TIP3    H129458   1.934   3.597   2.346  0.7663  0.7995 -0.7779
 2681TIP3    H229459   2.023   3.485   2.395 -0.8163 -0.0858  0.1616
 2682TIP3   OH229460   4.075   2.339  16.824  0.0799  0.0167 -0.0146
 2682TIP3    H129461   4.101   2.353  16.733  0.6401  0.1924  0.1685
 2682TIP3    H229462   4.155   2.308  16.867 -0.5246 -1.4249  0.1226
 2683TIP3   OH229463   4.377   4.150  14.320 -1.2425 -0.4791  0.4255
 2683TIP3    H129464   4.304   4.113  14.371  0.3485 -0.5138  2.8674
 2683TIP3    H229465   4.442   4.080  14.317 -0.2040  0.4498  0.7271
 2684TIP3   OH229466   1.102   4.532   1.682 -0.1483  0.1384 -0.5859
 2684TIP3    H129467   1.142   4.615   1.658  0.5695  0.3632  1.2142
 2684TIP3    H229468   1.171   4.485   1.729 -0.7639 -1.1937 -0.9564
 2685TIP3   OH229469   1.877   4.443  16.797  0.4152  0.2232 -0.2032
 2685TIP3    H129470   1.969   4.438  16.769 -0.0418  0.4615 -1.8302
 2685TIP3    H229471   1.861   4.537  16.806 -0.2943  0.3380 -2.2276
 2686TIP3   OH229472   4.468   3.421  15.584 -0.5078 -0.0035  0.2702
 2686TIP3    H129473   4.489   3.472  15.662  1.3234 -0.5606  0.1926
 2686TIP3    H229474   4.537   3.445  15.521  0.0171 -2.0534 -0.0020
 2687TIP3   OH229475   3.949   4.960   4.986  0.2097  0.0563 -0.1088
 2687TIP3    H129476   4.033   4.917   4.970  0.1131  0.3429 -1.5012
 2687TIP3    H229477   3.940   4.959   5.081  1.5079 -0.5112  0.0363
 2688TIP3   OH229478   5.679   3.805  12.010  0.3829 -0.1777 -0.9380
 2688TIP3    H129479   5.591   3.836  12.031  0.3938 -0.0827 -1.0292
 2688TIP3    H229480   5.725   3.883  11.977  0.6355 -0.1300 -0.4766
 2689TIP3   OH229481   4.784   6.305   1.031 -0.1561 -0.0192  0.4020
 2689TIP3    H129482   4.689   6.305   1.030 -0.1723  1.2855  0.5805
 2689TIP3    H229483   4.809   6.309   0.938 -0.2719 -0.0944  0.3670
 2690TIP3   OH229484   4.121   3.612  14.027 -0.2870 -0.4072  0.1666
 2690TIP3    H129485   4.216   3.617  14.018 -0.1437 -1.4531  0.9361
 2690TIP3    H229486   4.099   3.522  14.003 -1.1779  0.0148 -0.6894
 2691TIP3   OH229487   4.478   5.660   2.527 -0.3772 -0.3000 -1.0432
 2691TIP3    H129488   4.562   5.642   2.485 -0.1224 -1.1320 -0.2092
 2691TIP3    H229489   4.464   5.754   2.514  0.5680 -0.1991 -1.3884
 2692TIP3   OH229490   2.348   1.413   5.313 -0.1410  0.1972  0.2255
 2692TIP3    H129491   2.404   1.459   5.250  1.7558 -0.4462  1.3653
 2692TIP3    H229492   2.259   1.440   5.290  0.5550  0.7840 -2.0594
 2693TIP3   OH229493   0.523   4.445  13.078 -0.4598 -0.2435 -1.0214
 2693TIP3    H129494   0.559   4.380  13.017 -0.7868  0.3535 -1.8662
 2693TIP3    H229495   0.436   4.464  13.043 -1.6514 -1.6534  0.9682
 2694TIP3   OH229496   5.114   6.688  16.341  0.0173 -0.1236 -0.3827
 2694TIP3    H129497   5.165   6.766  16.363 -0.2439  0.4094 -1.5798
 2694TIP3    H229498   5.148   6.619  16.398 -0.0086  0.9549  0.9780
 2695TIP3   OH229499   2.240   0.413   2.150 -0.1383 -0.8381 -0.2698
 2695TIP3    H129500   2.262   0.506   2.147  1.9189 -1.0913  2.6279
 2695TIP3    H229501   2.292   0.374   2.079 -0.7203  0.1340 -1.2549
 2696TIP3   OH229502   1.894   5.451   0.281 -0.1246  0.3989  0.1984
 2696TIP3    H129503   1.830   5.496   0.336 -0.6298  0.8669 -0.7472
 2696TIP3    H229504   1.900   5.505   0.202  0.3633 -0.4083 -0.3345
 2697TIP3   OH229505   3.783   0.974  15.959  0.1699  0.4376 -0.3150
 2697TIP3    H129506   3.745   0.945  16.042 -1.5236 -0.1898 -1.2711
 2697TIP3    H229507   3.748   1.062  15.946 -1.6228 -0.4053 -1.5391
 2698TIP3   OH229508   6.599   6.143   4.933  0.0449 -0.2484 -0.3068
 2698TIP3    H129509   6.568   6.052   4.940 -2.5231  0.6469  1.6297
 2698TIP3    H229510   6.521   6.196   4.947  1.6175  2.2917 -0.5160
 2699TIP3   OH229511   4.528   2.816   3.022 -0.0370 -0.2640 -0.1111
 2699TIP3    H129512   4.461   2.884   3.012  1.8694  1.8686  0.7631
 2699TIP3    H229513   4.530   2.797   3.116  1.7573  1.0602  0.1735
 2700TIP3   OH229514   4.388   4.103   0.219 -0.2981  1.0966  0.6158
 2700TIP3    H129515   4.342   4.159   0.281  1.7350  0.6417  2.6525
 2700TIP3    H229516   4.477   4.140   0.214  0.1630 -0.0785 -0.4759
 2701TIP3   OH229517   3.554   2.529  11.220  0.2882 -0.0683  0.5883
 2701TIP3    H129518   3.610   2.519  11.297  1.9211 -1.0717 -0.6598
 2701TIP3    H229519   3.546   2.441  11.184  1.0359  0.5948 -1.3415
 2702TIP3   OH229520   2.310   0.461   3.254  0.2732 -0.0244 -0.2831
 2702TIP3    H129521   2.242   0.522   3.285 -0.4290 -0.6421 -0.5673
 2702TIP3    H229522   2.283   0.376   3.290 -0.2676 -0.6717 -2.0936
 2703TIP3   OH229523   5.804   5.185   4.036  0.8898 -0.3604  0.0209
 2703TIP3    H129524   5.839   5.116   4.092  0.5743  0.0907  0.7909
 2703TIP3    H229525   5.817   5.266   4.086 -1.7938 -0.2232  0.6429
 2704TIP3   OH229526   4.647   3.584  15.368 -0.3361 -0.3894 -0.3776
 2704TIP3    H129527   4.715   3.518  15.378 -0.1487 -0.4073 -1.6137
 2704TIP3    H229528   4.692   3.667  15.379  0.0120 -0.3818 -1.7144
 2705TIP3   OH229529   1.351   0.744   3.109  0.4580  0.0940  0.7850
 2705TIP3    H129530   1.357   0.829   3.064  0.0942 -0.0703  0.4250
 2705TIP3    H229531   1.438   0.705   3.098 -0.1450 -0.7623 -1.4120
 2706TIP3   OH229532   2.183   2.586  16.767  0.4592 -0.2339 -0.1980
 2706TIP3    H129533   2.263   2.619  16.726  2.1408 -1.0001  2.2599
 2706TIP3    H229534   2.205   2.497  16.795 -1.8726 -1.1445 -1.0083
 2707TIP3   OH229535   4.603   1.618   2.491  0.3465 -0.6982  0.6029
 2707TIP3    H129536   4.616   1.568   2.411  0.7563 -2.2303  1.5861
 2707TIP3    H229537   4.571   1.554   2.554 -1.9579  0.8765  1.1392
 2708TIP3   OH229538   3.050   6.065  15.152 -0.1296  0.0781 -0.1025
 2708TIP3    H129539   3.014   6.153  15.144 -0.8325 -0.3075 -1.3034
 2708TIP3    H229540   3.127   6.076  15.208  0.0408  1.5184 -0.5922
 2709TIP3   OH229541   4.358   4.755   0.555 -0.1222  0.3698 -0.9681
 2709TIP3    H129542   4.332   4.835   0.510  2.7759  0.8979 -1.9111
 2709TIP3    H229543   4.353   4.687   0.487  1.3935  0.5885 -1.3183
 2710TIP3   OH229544   3.346   5.802  12.195  0.5410  0.0119 -0.0780
 2710TIP3    H129545   3.353   5.717  12.239 -2.6477 -0.9972 -1.2829
 2710TIP3    H229546   3.405   5.795  12.120  1.8112 -0.3311  0.9143
 2711TIP3   OH229547   1.787   4.571  12.128  0.1886  0.0770 -0.3658
 2711TIP3    H129548   1.750   4.504  12.071 -0.8458  0.8428 -0.6264
 2711TIP3    H229549   1.722   4.582  12.197  0.3254  0.8323 -0.3508
 2712TIP3   OH229550   2.495   1.436   4.437  0.3469 -0.0092  0.3903
 2712TIP3    H129551   2.453   1.359   4.475  1.5821 -0.0489  1.8113
 2712TIP3    H229552   2.461   1.510   4.488  0.8300  0.1220  0.5330
 2713TIP3   OH229553   6.186   3.067   4.506 -0.2300  0.3997 -0.3732
 2713TIP3    H129554   6.118   3.000   4.495 -2.1967  2.1772  0.4998
 2713TIP3    H229555   6.236   3.037   4.582 -0.1640 -0.7801 -0.8479
 2714TIP3   OH229556   3.746   2.214  14.273  0.1888 -0.8589  0.2575
 2714TIP3    H129557   3.688   2.251  14.340 -0.2826 -1.2443  0.0637
 2714TIP3    H229558   3.693   2.213  14.193  0.8053 -0.2466 -0.1625
 2715TIP3   OH229559   6.477   2.194   3.992  0.5984  0.1853 -0.0252
 2715TIP3    H129560   6.455   2.261   3.928 -1.9864 -0.3973  0.1578
 2715TIP3    H229561   6.568   2.172   3.973  0.9434  2.3743 -1.2905
 2716TIP3   OH229562   4.748   3.783   0.693 -0.0779  0.1982 -0.6014
 2716TIP3    H129563   4.703   3.791   0.777  1.0392 -0.2178  0.0640
 2716TIP3    H229564   4.836   3.754   0.716  0.4827  0.8267 -1.8691
 2717TIP3   OH229565   5.060   6.202   4.796 -0.0325  0.3885 -0.1013
 2717TIP3    H129566   5.004   6.164   4.728  1.5865  0.3451 -1.5092
 2717TIP3    H229567   5.067   6.134   4.863  1.4299 -1.2255 -1.7688
 2718TIP3   OH229568   4.593   6.125   2.723  0.6752  0.2593  0.3984
 2718TIP3    H129569   4.526   6.086   2.780  1.1571  1.9145  2.1712
 2718TIP3    H229570   4.664   6.149   2.782  1.1843  2.1093 -0.8951
 2719TIP3   OH229571   4.737   3.211   3.637 -0.1892 -0.6314 -0.5003
 2719TIP3    H129572   4.676   3.284   3.646 -0.1269 -0.4667 -1.2891
 2719TIP3    H229573   4.815   3.237   3.686  0.5548  0.6732 -2.2605
 2720TIP3   OH229574   5.081   6.317   0.618  0.2347  0.0020  0.0352
 2720TIP3    H129575   5.085   6.372   0.540  0.7522  1.2446  0.9053
 2720TIP3    H229576   4.989   6.321   0.646 -1.2009 -4.2664 -3.0640
 2721TIP3   OH229577   2.067   3.905  15.884 -0.2301  0.7101  0.3712
 2721TIP3    H129578   2.100   3.946  15.964 -2.4359 -0.7153  2.1109
 2721TIP3    H229579   2.007   3.970  15.847  1.3129  1.6562 -0.5972
 2722TIP3   OH229580   5.033   0.347  11.909  0.2284 -0.2383  0.2905
 2722TIP3    H129581   5.099   0.372  11.844  0.4841  1.3055  1.1013
 2722TIP3    H229582   4.965   0.304  11.859 -0.4626  2.5324 -1.3367
 2723TIP3   OH229583   3.153   5.842  13.238 -0.2856 -0.1982 -0.5364
 2723TIP3    H129584   3.070   5.796  13.226 -0.7309  0.5487 -0.3651
 2723TIP3    H229585   3.218   5.772  13.246 -1.0617 -0.8208  0.5690
 2724TIP3   OH229586   0.229   5.871   3.607  0.6913  0.3180  0.3594
 2724TIP3    H129587   0.314   5.838   3.635  0.1880 -0.2306  1.2857
 2724TIP3    H229588   0.166   5.817   3.653 -0.1653  1.2745  0.3452
 2725TIP3   OH229589   3.832   1.827  15.356  0.5703 -0.4620  0.6614
 2725TIP3    H129590   3.786   1.753  15.395 -0.5156  0.1722  0.6192
 2725TIP3    H229591   3.811   1.823  15.263  1.6921 -0.9198  0.4021
 2726TIP3   OH229592   6.425   6.583  16.461  0.0822 -0.0128 -0.0424
 2726TIP3    H129593   6.334   6.611  16.473 -0.0013 -0.3720  0.2086
 2726TIP3    H229594   6.420   6.487  16.461  0.3909 -0.0333 -0.6038
 2727TIP3   OH229595   3.584   4.106   2.351 -0.3580 -0.0818  1.1317
 2727TIP3    H129596   3.513   4.117   2.414  0.8578 -0.2674  2.6003
 2727TIP3    H229597   3.634   4.031   2.383  0.0251 -0.5112 -0.3562
 2728TIP3   OH229598   4.855   0.975  13.491  0.6860  0.4533  0.5682
 2728TIP3    H129599   4.876   0.984  13.398  0.7736 -1.5082  0.3533
 2728TIP3    H229600   4.906   1.043  13.534 -0.8486  2.7391 -0.9497
 2729TIP3   OH229601   3.488   5.683  14.308  0.1352 -0.4298  0.0521
 2729TIP3    H129602   3.534   5.612  14.351 -0.0895 -1.0613 -0.7208
 2729TIP3    H229603   3.495   5.663  14.214 -1.3638 -0.3374 -0.1056
 2730TIP3   OH229604   2.637   0.809   4.898  0.4077  0.1582  0.0220
 2730TIP3    H129605   2.606   0.788   4.987  0.9248  2.6880  0.8813
 2730TIP3    H229606   2.558   0.834   4.851  0.3818  0.9149  0.4480
 2731TIP3   OH229607   2.981   2.477  15.078 -0.6429  0.5925  0.4499
 2731TIP3    H129608   3.033   2.553  15.052 -0.6815  0.7881  0.9237
 2731TIP3    H229609   2.986   2.418  15.003  0.1056  0.6925  0.4069
 2732TIP3   OH229610   4.969   4.414   3.137  0.3847 -0.0484  0.1821
 2732TIP3    H129611   4.918   4.474   3.191  0.3309 -0.7335  0.9061
 2732TIP3    H229612   5.051   4.402   3.184  0.7172  0.0804 -0.3583
 2733TIP3   OH229613   5.638   1.213  10.855  0.6390 -0.3580  0.3425
 2733TIP3    H129614   5.572   1.174  10.913 -0.7147 -0.6836 -1.3310
 2733TIP3    H229615   5.710   1.236  10.913 -0.8989 -0.0825  2.2510
 2734TIP3   OH229616   4.777   3.098   6.583  0.0070  0.1524 -0.5763
 2734TIP3    H129617   4.732   3.014   6.576  0.9347 -0.2446 -2.4264
 2734TIP3    H229618   4.823   3.108   6.500  0.8690  1.9594  0.0527
 2735TIP3   OH229619   6.511   1.951  12.671  0.3128  0.3751  0.2717
 2735TIP3    H129620   6.468   1.888  12.729  0.4014 -0.8987 -0.9707
 2735TIP3    H229621   6.552   1.897  12.603  1.6189  1.7146 -0.0622
 2736TIP3   OH229622   4.501   2.794  11.654  0.3102  0.1878  0.3928
 2736TIP3    H129623   4.462   2.715  11.693 -2.5627  1.8831  1.2250
 2736TIP3    H229624   4.500   2.859  11.724 -1.2007  2.1220 -1.2785
 2737TIP3   OH229625   1.259   6.203  15.441 -0.3003  0.4733  0.0975
 2737TIP3    H129626   1.211   6.253  15.507  0.3137  0.9507  0.1979
 2737TIP3    H229627   1.194   6.178  15.376 -0.9870 -0.3079  1.0648
 2738TIP3   OH229628   5.439   1.558   5.880 -0.5381 -0.1629 -0.5274
 2738TIP3    H129629   5.502   1.630   5.869  0.6440 -0.9029  1.0519
 2738TIP3    H229630   5.490   1.479   5.865 -0.6244 -0.8586  2.2533
 2739TIP3   OH229631   3.130   1.279   0.771 -0.1693  0.3382 -0.7743
 2739TIP3    H129632   3.056   1.217   0.774 -0.4006  0.6226 -0.4918
 2739TIP3    H229633   3.139   1.309   0.862  0.9683 -0.4764 -0.5891
 2740TIP3   OH229634   5.159   5.285  16.460 -0.6108  0.6224  0.8447
 2740TIP3    H129635   5.079   5.276  16.513 -0.6462  0.6062  0.7871
 2740TIP3    H229636   5.144   5.229  16.384 -0.6149  0.7526  0.7499
 2741TIP3   OH229637   1.126   4.627   0.880 -0.3948  0.1983 -0.3700
 2741TIP3    H129638   1.064   4.653   0.948  0.1327  1.1459 -0.2319
 2741TIP3    H229639   1.084   4.652   0.798 -0.3674  0.4866 -0.2982
 2742TIP3   OH229640   5.894   1.208   0.274 -0.3814 -0.2444 -0.2025
 2742TIP3    H129641   5.934   1.268   0.211  1.7457 -0.3538  0.9691
 2742TIP3    H229642   5.953   1.132   0.276 -1.0228 -0.7352  1.0890
 2743TIP3   OH229643   0.335   6.216  15.442  0.0121  0.4904  0.3822
 2743TIP3    H129644   0.275   6.143  15.433 -0.0982  0.6419 -0.1099
 2743TIP3    H229645   0.283   6.294  15.422  0.3451  0.6290  0.0371
 2744TIP3   OH229646   5.467   0.382  16.328  0.0665 -0.3403 -0.6181
 2744TIP3    H129647   5.433   0.457  16.378  0.0933  0.7534 -2.1643
 2744TIP3    H229648   5.410   0.309  16.353 -1.3999  0.7111 -0.7484
 2745TIP3   OH229649   4.058   5.870   0.881 -0.7863 -0.7091 -0.2429
 2745TIP3    H129650   3.973   5.870   0.924  0.4101 -1.2430  2.2968
 2745TIP3    H229651   4.106   5.799   0.922  0.5002 -1.2835 -2.5327
 2746TIP3   OH229652   3.856   3.463   1.564 -0.1058  0.4797 -0.4293
 2746TIP3    H129653   3.852   3.557   1.576 -2.2388  0.2082  1.7888
 2746TIP3    H229654   3.772   3.440   1.523 -1.1200 -0.6907  2.0693
 2747TIP3   OH229655   6.092   6.091  16.992 -0.6457  0.3810 -0.4326
 2747TIP3    H129656   6.175   6.043  16.991 -0.4589  0.7161 -1.4069
 2747TIP3    H229657   6.026   6.022  17.005 -0.3151 -0.0573 -1.0075
 2748TIP3   OH229658   1.189   0.490  15.150 -0.1152 -0.4342  0.5312
 2748TIP3    H129659   1.181   0.544  15.072 -0.2375  0.4828  1.1546
 2748TIP3    H229660   1.175   0.400  15.119 -0.2903 -0.0765 -0.4679
 2749TIP3   OH229661   2.322   6.295  11.682  0.3120  0.0449  0.0475
 2749TIP3    H129662   2.335   6.389  11.672 -2.2999  0.4419 -0.2749
 2749TIP3    H229663   2.235   6.279  11.647  0.2344 -2.3186  1.1393
 2750TIP3   OH229664   2.167   6.730  15.817 -0.3181  0.4905 -0.6616
 2750TIP3    H129665   2.189   6.645  15.854 -1.6911  0.0375 -0.8023
 2750TIP3    H229666   2.129   6.779  15.890  0.7276  1.1085 -0.5113
 2751TIP3   OH229667   5.498   0.754   6.206 -0.0661 -0.1988 -0.3555
 2751TIP3    H129668   5.412   0.717   6.225  1.3047 -3.6933 -0.1384
 2751TIP3    H229669   5.495   0.843   6.241 -3.6262 -0.0703 -0.6336
 2752TIP3   OH229670   3.383   4.057   4.151  0.2969 -0.0476  0.2906
 2752TIP3    H129671   3.386   3.965   4.124  2.9405 -0.3857  1.4073
 2752TIP3    H229672   3.374   4.054   4.246  1.1392  0.8110  0.4097
 2753TIP3   OH229673   4.537   2.164   3.793 -0.3945 -0.2421  0.6083
 2753TIP3    H129674   4.485   2.227   3.744 -0.6021 -0.4585  0.5504
 2753TIP3    H229675   4.512   2.177   3.884 -1.9811 -1.6485  0.4159
 2754TIP3   OH229676   3.512   1.939  13.415 -0.4794  0.1882 -0.1274
 2754TIP3    H129677   3.587   1.880  13.421 -0.3414  0.0039 -2.6620
 2754TIP3    H229678   3.527   2.005  13.483  0.7706 -1.1264  0.9277
 2755TIP3   OH229679   2.892   0.368   2.574  0.5341  0.1825  0.6218
 2755TIP3    H129680   2.917   0.277   2.588  0.5817  0.2334  0.8740
 2755TIP3    H229681   2.856   0.396   2.658 -1.7142 -0.3105 -0.1035
 2756TIP3   OH229682   3.687   1.717  13.427  0.3804  0.0649 -0.0705
 2756TIP3    H129683   3.628   1.642  13.428 -1.1771  1.2197 -1.4181
 2756TIP3    H229684   3.775   1.678  13.432 -0.3779 -1.6435  3.1590
 2757TIP3   OH229685   2.543   6.755  16.408 -0.3991 -0.0931  0.4255
 2757TIP3    H129686   2.509   6.785  16.493 -1.9447  0.3491 -0.3116
 2757TIP3    H229687   2.583   6.671  16.427 -2.5305 -0.9941  1.2842
 2758TIP3   OH229688   1.945   6.373   5.588  0.6355 -0.1152  0.1543
 2758TIP3    H129689   1.972   6.349   5.500 -1.8923 -0.7315 -0.5298
 2758TIP3    H229690   1.861   6.327   5.601 -1.5485  3.6864  1.0110
 2759TIP3   OH229691   4.679   1.141  16.259 -0.1591 -0.0391 -0.4635
 2759TIP3    H129692   4.766   1.115  16.287  0.2298 -0.6012 -2.0841
 2759TIP3    H229693   4.629   1.149  16.340  1.5205  0.8409  0.5397
 2760TIP3   OH229694   1.227   3.966  11.615 -0.6256 -0.1818 -0.1347
 2760TIP3    H129695   1.295   3.965  11.682 -0.8962  0.6440  0.1682
 2760TIP3    H229696   1.145   3.958  11.663 -0.7238 -2.7155 -0.5943
 2761TIP3   OH229697   1.044   5.510   0.163 -0.2951 -0.3591 -0.0062
 2761TIP3    H129698   1.058   5.579   0.228 -0.8106 -0.3160  0.0576
 2761TIP3    H229699   0.954   5.482   0.175 -0.1003 -1.0272 -0.0550
 2762TIP3   OH229700   6.253   6.172   2.689 -0.2008  0.4195  0.1504
 2762TIP3    H129701   6.186   6.108   2.664  1.2137 -0.0582 -2.8976
 2762TIP3    H229702   6.285   6.142   2.773 -0.6725 -2.0254 -0.4647
 2763TIP3   OH229703   4.002   0.848  13.298 -0.9066 -0.4873  0.5254
 2763TIP3    H129704   3.948   0.769  13.293  0.4055 -1.3925  0.2129
 2763TIP3    H229705   4.021   0.871  13.207 -0.3351 -0.4867  0.6400
 2764TIP3   OH229706   4.906   2.639  15.019 -0.0724 -0.1452  0.4525
 2764TIP3    H129707   4.831   2.691  14.989 -0.6798 -2.1553 -1.8291
 2764TIP3    H229708   4.972   2.651  14.951  0.4706 -0.8750  0.8388
 2765TIP3   OH229709   0.347   3.776  11.219 -0.0336  0.7640  0.2681
 2765TIP3    H129710   0.270   3.724  11.197 -1.3321  2.5661  0.3186
 2765TIP3    H229711   0.315   3.839  11.285  1.0862  2.4778 -0.7417
 2766TIP3   OH229712   3.819   0.826   5.353  0.9993  0.1554 -0.0826
 2766TIP3    H129713   3.725   0.831   5.339  1.1108  1.5144 -0.3919
 2766TIP3    H229714   3.854   0.908   5.319  2.4155 -0.7269 -0.8490
 2767TIP3   OH229715   3.104   3.827   5.150  0.7292  0.0003  0.0592
 2767TIP3    H129716   3.130   3.757   5.090 -1.1578 -0.9542  0.2989
 2767TIP3    H229717   3.079   3.781   5.230  0.8290  1.0825  0.7322
 2768TIP3   OH229718   1.891   0.371   6.573 -0.3825 -0.0154  0.0295
 2768TIP3    H129719   1.959   0.320   6.530  3.4830  0.5908  4.5529
 2768TIP3    H229720   1.842   0.307   6.624 -0.1710  0.0217  0.2816
 2769TIP3   OH229721   3.546   3.342  14.770 -0.2059 -0.0231 -0.2020
 2769TIP3    H129722   3.450   3.336  14.777 -0.2920  2.2383  1.3182
 2769TIP3    H229723   3.578   3.275  14.830 -0.8718  0.6282  0.9179
 2770TIP3   OH229724   4.678   1.594  17.212 -0.1320 -0.1822  0.5433
 2770TIP3    H129725   4.642   1.618  17.127  0.5798 -0.8879  0.0264
 2770TIP3    H229726   4.759   1.546  17.191  0.0169 -0.4230  1.6125
 2771TIP3   OH229727   4.971   2.588   4.355 -0.0641  0.2161  0.1190
 2771TIP3    H129728   4.997   2.599   4.264  0.8303  1.1073  0.4519
 2771TIP3    H229729   5.054   2.589   4.404 -0.3434 -2.2924  0.7998
 2772TIP3   OH229730   4.492   2.099  14.931  0.6911 -0.1524 -0.0213
 2772TIP3    H129731   4.411   2.144  14.907  1.4416  2.1557  1.4831
 2772TIP3    H229732   4.513   2.132  15.018  2.7016 -1.4898  0.0545
 2773TIP3   OH229733   4.397   0.266   3.581  0.2044 -0.0726 -0.7679
 2773TIP3    H129734   4.341   0.233   3.510 -0.6956 -0.6091  0.1592
 2773TIP3    H229735   4.458   0.325   3.538 -0.8449  0.2454 -1.8846
 2774TIP3   OH229736   5.412   0.742  11.112 -0.8070 -0.0511  0.1777
 2774TIP3    H129737   5.459   0.675  11.064  0.9016  0.4785  1.0419
 2774TIP3    H229738   5.337   0.696  11.151 -1.8377 -0.6408 -2.2830
 2775TIP3   OH229739   6.688   2.261   2.967 -0.3845  0.6773  0.0456
 2775TIP3    H129740   6.725   2.174   2.982 -0.8966  0.8043  2.4259
 2775TIP3    H229741   6.693   2.304   3.052 -0.3552  2.9203 -1.0211
 2776TIP3   OH229742   2.805   2.983  17.013 -0.0104  0.6660 -0.1112
 2776TIP3    H129743   2.882   2.951  16.964 -1.8660  0.2631 -3.0138
 2776TIP3    H229744   2.764   2.903  17.047 -0.4377  0.6482 -0.6587
 2777TIP3   OH229745   4.723   6.245   1.600  0.2747  1.0910 -0.4876
 2777TIP3    H129746   4.656   6.244   1.668  0.0619 -0.5876 -0.6774
 2777TIP3    H229747   4.683   6.200   1.525  1.9555 -1.0941 -0.1959
 2778TIP3   OH229748   0.804   0.619   5.798  0.6410 -0.1360 -0.8494
 2778TIP3    H129749   0.747   0.696   5.797 -0.1724 -0.7320 -0.8942
 2778TIP3    H229750   0.759   0.555   5.744 -0.2860 -1.7503  1.6515
 2779TIP3   OH229751   5.512   1.464   2.937 -0.4453 -0.5961 -0.1590
 2779TIP3    H129752   5.491   1.556   2.952  1.2358 -0.4770  2.0405
 2779TIP3    H229753   5.445   1.416   2.986 -2.8177 -0.7700 -3.2563
 2780TIP3   OH229754   4.926   4.246   0.180  0.3016  0.0798  0.0932
 2780TIP3    H129755   4.875   4.313   0.226 -1.0936 -0.5464 -0.4866
 2780TIP3    H229756   4.934   4.280   0.091  0.7055  0.0687  0.1271
 2781TIP3   OH229757   1.492   4.470   2.875 -0.2970 -0.1959 -0.5182
 2781TIP3    H129758   1.416   4.452   2.931 -1.1127  3.8461  0.0081
 2781TIP3    H229759   1.457   4.527   2.806  1.8685  0.1108 -1.4299
 2782TIP3   OH229760   3.053   3.109   0.488 -0.2420  0.1336  0.5052
 2782TIP3    H129761   2.986   3.051   0.523  0.3623 -1.3078 -0.6062
 2782TIP3    H229762   3.019   3.135   0.402 -0.5389  1.5368  1.0173
 2783TIP3   OH229763   0.569   0.516   4.163 -0.2446 -0.5081 -0.7959
 2783TIP3    H129764   0.552   0.608   4.183  1.7302  0.0158 -1.3330
 2783TIP3    H229765   0.558   0.472   4.248 -2.1777  0.0055 -0.7179
 2784TIP3   OH229766   1.807   0.183  15.391  0.6608  0.1337 -0.5456
 2784TIP3    H129767   1.828   0.089  15.400  0.8270  0.3440  1.8411
 2784TIP3    H229768   1.891   0.224  15.370  0.9287 -0.0670  0.1133
 2785TIP3   OH229769   1.369   2.531  11.983 -0.1212 -0.2277 -0.3260
 2785TIP3    H129770   1.452   2.494  12.011 -0.1013 -0.9503 -1.2996
 2785TIP3    H229771   1.370   2.620  12.017  0.6572 -0.5153  0.4337
 2786TIP3   OH229772   5.083   6.244  11.070 -0.6245  0.6054  0.0418
 2786TIP3    H129773   5.092   6.313  11.004  0.2685 -1.4988 -2.2048
 2786TIP3    H229774   5.170   6.236  11.109 -0.7978  0.9318  0.4955
 2787TIP3   OH229775   4.213   3.229  12.803  0.0942 -0.2057  0.0713
 2787TIP3    H129776   4.122   3.225  12.774  0.0139 -0.1569  0.3125
 2787TIP3    H229777   4.263   3.190  12.731 -0.1671 -0.7276  0.1660
 2788TIP3   OH229778   2.914   4.008  12.842  0.3327  0.2735 -0.2527
 2788TIP3    H129779   2.963   4.033  12.920  1.1775 -1.0703 -0.3337
 2788TIP3    H229780   2.823   4.001  12.871  0.8322 -1.7026  0.9950
 2789TIP3   OH229781   4.334   4.527  12.269 -0.1541  0.7764 -0.3560
 2789TIP3    H129782   4.426   4.526  12.242 -0.4171  2.7339 -1.5720
 2789TIP3    H229783   4.285   4.528  12.186 -1.4071 -2.2197  0.2310
 2790TIP3   OH229784   2.371   5.361  15.558 -0.0948  0.7877  0.1523
 2790TIP3    H129785   2.355   5.273  15.593  0.9984  0.0001 -1.2133
 2790TIP3    H229786   2.285   5.391  15.530 -0.2900 -0.5179 -0.7875
 2791TIP3   OH229787   5.831   3.439   3.492  0.4156 -0.7918 -0.0249
 2791TIP3    H129788   5.787   3.468   3.411 -0.4648  1.8664  1.2872
 2791TIP3    H229789   5.916   3.484   3.490 -0.3008  0.7157  1.2762
 2792TIP3   OH229790   4.675   4.911   2.915  0.1076 -0.5044  0.0648
 2792TIP3    H129791   4.705   4.986   2.967  0.3345  0.6987 -1.7281
 2792TIP3    H229792   4.740   4.843   2.934  0.2270 -0.0890  1.2772
 2793TIP3   OH229793   0.330   3.736   5.013  0.1198  0.0257 -0.2091
 2793TIP3    H129794   0.289   3.822   5.005 -0.0982  0.2347  2.3075
 2793TIP3    H229795   0.312   3.693   4.930  0.2250  2.3832 -1.5346
 2794TIP3   OH229796   5.357   4.306  12.122 -0.0107 -0.1958 -0.0370
 2794TIP3    H129797   5.399   4.328  12.206 -0.9160  0.6328  0.2196
 2794TIP3    H229798   5.391   4.372  12.061 -1.9695  1.4280  0.5049
 2795TIP3   OH229799   6.374   0.334   0.512  0.1129 -0.5243  0.5147
 2795TIP3    H129800   6.454   0.286   0.491  0.6936  1.2167 -1.5134
 2795TIP3    H229801   6.353   0.383   0.433 -0.7682  2.1200  2.2421
 2796TIP3   OH229802   3.446   5.748  15.048 -0.1525  0.3774  0.0793
 2796TIP3    H129803   3.404   5.807  14.985  2.2103  2.3552  0.2550
 2796TIP3    H229804   3.517   5.707  14.998 -1.2133 -1.8067  0.2027
 2797TIP3   OH229805   5.058   3.920   1.754  0.1211 -0.3915  0.2664
 2797TIP3    H129806   5.076   3.828   1.733  0.2668 -0.4195  0.5181
 2797TIP3    H229807   4.962   3.926   1.757  0.1110 -0.5245  0.2040
 2798TIP3   OH229808   5.842   3.877  15.309 -0.3369 -0.0463 -0.3388
 2798TIP3    H129809   5.931   3.882  15.275 -0.5356  1.1869 -0.7456
 2798TIP3    H229810   5.787   3.911  15.238 -0.8733  1.4083  0.7121
 2799TIP3   OH229811   1.062   0.673   3.812  0.4421 -0.4799 -0.0258
 2799TIP3    H129812   1.047   0.615   3.887 -0.3546  1.1782  1.1454
 2799TIP3    H229813   0.977   0.678   3.769  1.4951 -3.8473 -2.9962
 2800TIP3   OH229814   6.761   5.852  12.953  0.0630  0.1289 -0.2072
 2800TIP3    H129815   6.751   5.850  13.048 -1.0107  0.6366 -0.2952
 2800TIP3    H229816   6.841   5.904  12.938 -0.6950  1.5324  0.3858
 2801TIP3   OH229817   5.729   2.293  14.663  0.1753  0.3441 -0.0669
 2801TIP3    H129818   5.634   2.298  14.650  0.2044  0.8819 -0.0883
 2801TIP3    H229819   5.750   2.201  14.648 -0.5635 -0.1052  1.4164
 2802TIP3   OH229820   0.921   5.397  12.708 -0.0244  0.6051  0.0314
 2802TIP3    H129821   0.979   5.371  12.778 -0.8664 -1.7952 -0.0724
 2802TIP3    H229822   0.848   5.442  12.752  0.1665  0.4197  0.5367
 2803TIP3   OH229823   6.372   1.596   5.270  0.1950  0.0623  0.4699
 2803TIP3    H129824   6.314   1.544   5.324 -1.1109 -0.5812 -1.4458
 2803TIP3    H229825   6.443   1.622   5.329 -1.7288  0.4602  2.7826
 2804TIP3   OH229826   4.540   3.455   3.607  0.2471 -0.1535 -0.0550
 2804TIP3    H129827   4.597   3.508   3.551 -1.3005 -0.2855 -1.8456
 2804TIP3    H229828   4.536   3.504   3.689  0.6961  1.3140 -0.8706
 2805TIP3   OH229829   2.767   2.397   3.847 -0.0312  0.1159 -0.1915
 2805TIP3    H129830   2.813   2.442   3.918 -0.4355 -0.0689  0.1862
 2805TIP3    H229831   2.777   2.456   3.772 -2.3745  1.9242  0.8143
 2806TIP3   OH229832   3.388   4.302  15.149  0.3616  0.1671  0.4514
 2806TIP3    H129833   3.401   4.219  15.195  2.6803  0.0413 -0.3051
 2806TIP3    H229834   3.475   4.326  15.117 -0.5186  2.1295 -0.6744
 2807TIP3   OH229835   1.015   2.680   1.492 -0.6054  0.5642  0.6669
 2807TIP3    H129836   0.998   2.733   1.414 -0.5205  1.1102  1.0113
 2807TIP3    H229837   1.072   2.735   1.546  2.8392 -1.4109 -0.6869
 2808TIP3   OH229838   1.248   3.926   4.970 -0.4819 -0.5877  0.7180
 2808TIP3    H129839   1.176   3.960   5.023 -0.9895 -3.0998  1.7709
 2808TIP3    H229840   1.210   3.855   4.920  1.0779 -1.4244  0.6507
 2809TIP3   OH229841   2.025   1.837  14.491 -0.5229  0.2409  0.2228
 2809TIP3    H129842   2.018   1.924  14.451 -0.3344 -0.5782 -1.7374
 2809TIP3    H229843   1.956   1.785  14.449 -1.3876 -0.3042  2.1954
 2810TIP3   OH229844   5.893   4.664  10.271 -0.7006  0.2185 -0.3757
 2810TIP3    H129845   5.981   4.660  10.232  0.8101 -0.7149  2.8088
 2810TIP3    H229846   5.866   4.756  10.259  0.7927  0.5899 -1.1896
 2811TIP3   OH229847   5.504   4.889  11.536  0.0380 -0.3783  0.4124
 2811TIP3    H129848   5.414   4.878  11.505 -0.1910  0.1727  0.8574
 2811TIP3    H229849   5.556   4.828  11.483 -0.6717 -1.0844  0.5155
 2812TIP3   OH229850   4.979   5.824   4.585 -0.0549 -0.0946 -0.1625
 2812TIP3    H129851   5.044   5.757   4.565  0.1500 -0.0606  0.3965
 2812TIP3    H229852   4.895   5.778   4.582  0.1025 -0.4282  0.4460
 2813TIP3   OH229853   5.209   4.735  10.860  0.8585  0.2320  0.5483
 2813TIP3    H129854   5.193   4.654  10.811  1.2909  1.6428 -2.1073
 2813TIP3    H229855   5.299   4.759  10.840  1.2652  0.6197  2.5702
 2814TIP3   OH229856   1.425   0.518   1.607 -0.2354  0.5911  0.4401
 2814TIP3    H129857   1.401   0.450   1.544  1.1759  0.5774 -0.1175
 2814TIP3    H229858   1.371   0.593   1.583  0.2683  0.5880 -0.8112
 2815TIP3   OH229859   5.327   5.253   2.427 -0.3589 -0.0925 -0.2676
 2815TIP3    H129860   5.407   5.208   2.400 -0.3295 -0.3762  0.2759
 2815TIP3    H229861   5.266   5.182   2.448 -0.6211  0.1222 -0.3043
 2816TIP3   OH229862   1.701   4.346  11.968 -0.1332 -0.1765  0.7071
 2816TIP3    H129863   1.612   4.319  11.994 -0.4054  0.1869  0.1742
 2816TIP3    H229864   1.713   4.308  11.881 -0.0667  0.4331  0.4498
 2817TIP3   OH229865   2.452   5.090   5.497  0.7840 -0.9856  0.4948
 2817TIP3    H129866   2.543   5.069   5.520  1.8019  1.5612 -0.7488
 2817TIP3    H229867   2.456   5.181   5.467 -2.0096 -1.1558 -0.6786
 2818TIP3   OH229868   2.835   5.457   1.508  0.0816  0.3160  0.1422
 2818TIP3    H129869   2.759   5.514   1.522  0.0671 -0.0586  1.8932
 2818TIP3    H229870   2.801   5.369   1.525  0.3879 -0.1077 -1.3464
 2819TIP3   OH229871   5.269   5.984   2.030  0.2093  0.3572 -0.4226
 2819TIP3    H129872   5.204   5.917   2.011 -2.6319  1.3206  4.2093
 2819TIP3    H229873   5.342   5.936   2.070 -0.3404 -0.2854 -0.1623
 2820TIP3   OH229874   1.597   3.196  12.086 -0.6310  0.0245 -0.5540
 2820TIP3    H129875   1.524   3.135  12.080 -0.5557  0.0253 -1.8729
 2820TIP3    H229876   1.670   3.151  12.043  0.1300  0.0643  0.6529
 2821TIP3   OH229877   0.966   5.695   2.728 -0.4233 -0.1557  0.9135
 2821TIP3    H129878   0.877   5.728   2.717 -0.9089 -1.8904 -1.1637
 2821TIP3    H229879   0.954   5.608   2.767  0.1966 -1.0087 -0.7088
 2822TIP3   OH229880   1.224   6.457  16.460 -0.1453  0.0617  0.3202
 2822TIP3    H129881   1.281   6.460  16.537  0.2388 -1.2007  0.1025
 2822TIP3    H229882   1.239   6.542  16.416  3.1084 -0.9045 -0.7837
 2823TIP3   OH229883   0.945   3.921   4.170 -0.2551  0.8465 -0.6961
 2823TIP3    H129884   0.906   3.930   4.082 -0.5517  0.9890 -0.5508
 2823TIP3    H229885   0.873   3.940   4.230 -0.0362  0.8050 -0.4196
 2824TIP3   OH229886   2.123   5.756  12.298 -0.3642  0.2702  0.6313
 2824TIP3    H129887   2.204   5.733  12.253 -1.0431  0.0904 -0.5410
 2824TIP3    H229888   2.140   5.735  12.390 -0.7265 -4.6882 -0.1552
 2825TIP3   OH229889   5.999   4.031  12.412 -0.0454 -0.4373 -0.9582
 2825TIP3    H129890   6.069   4.072  12.463 -1.2976 -0.4710  0.8823
 2825TIP3    H229891   5.943   4.103  12.385  0.0062 -0.5322 -1.3220
 2826TIP3   OH229892   3.243   6.436  13.960 -0.2701  0.1598  0.3136
 2826TIP3    H129893   3.309   6.376  13.926  0.0267 -0.0561  1.2600
 2826TIP3    H229894   3.282   6.523  13.948 -0.3563  0.1232 -0.2893
 2827TIP3   OH229895   3.252   3.679  16.928  0.6911  0.6076 -0.1633
 2827TIP3    H129896   3.342   3.663  16.899  0.4909  0.4507 -0.7282
 2827TIP3    H229897   3.260   3.707  17.019  1.2182 -0.6479  0.2064
 2828TIP3   OH229898   0.211   0.219   2.211 -0.6190 -0.3762 -0.0643
 2828TIP3    H129899   0.204   0.280   2.138  1.7764 -0.8741 -0.7966
 2828TIP3    H229900   0.233   0.274   2.286  1.2629 -0.2308 -0.6632
 2829TIP3   OH229901   4.793   2.015   1.923  0.5147 -0.3406 -0.8149
 2829TIP3    H129902   4.726   2.060   1.974 -0.0404 -0.0026 -1.8084
 2829TIP3    H229903   4.762   1.924   1.917  0.1392 -0.1908 -1.2513
 2830TIP3   OH229904   3.337   1.435   5.331 -0.0545 -0.4185 -0.6797
 2830TIP3    H129905   3.255   1.403   5.368 -1.8382  2.4457 -1.7703
 2830TIP3    H229906   3.345   1.389   5.248 -0.4334 -0.9129 -0.4468
 2831TIP3   OH229907   1.700   5.733   4.699 -0.1984 -0.2172 -0.6309
 2831TIP3    H129908   1.688   5.739   4.794 -1.0223 -0.1105 -0.7378
 2831TIP3    H229909   1.717   5.823   4.672  0.6162 -0.3298 -0.5157
 2832TIP3   OH229910   2.765   3.349   3.210 -0.2502 -0.1471 -0.3111
 2832TIP3    H129911   2.755   3.268   3.161 -1.8850 -0.9051  1.1544
 2832TIP3    H229912   2.859   3.363   3.216  0.0162 -0.8567 -2.2528
 2833TIP3   OH229913   0.824   3.312  12.084  0.0725 -0.5395  0.1727
 2833TIP3    H129914   0.865   3.226  12.099 -0.8325 -1.1679 -0.7931
 2833TIP3    H229915   0.762   3.321  12.157  0.4314 -0.5351  0.4805
 2834TIP3   OH229916   2.026   2.070  14.317  0.1074  0.6245  0.6499
 2834TIP3    H129917   2.091   2.140  14.323  0.5902  0.4002 -1.2349
 2834TIP3    H229918   1.988   2.080  14.229 -0.6976 -0.7234  0.8136
 2835TIP3   OH229919   5.212   0.101  13.272  0.7335  0.4631  0.0420
 2835TIP3    H129920   5.302   0.112  13.242  0.6044 -0.6417 -0.7971
 2835TIP3    H229921   5.180   0.025  13.224  0.1029 -0.6256  2.0840
 2836TIP3   OH229922   5.401   6.615  10.642  0.5315 -0.2418  0.4874
 2836TIP3    H129923   5.454   6.694  10.632  1.6946 -1.0850 -0.3396
 2836TIP3    H229924   5.418   6.565  10.562 -0.3783 -1.2174  0.8780
 2837TIP3   OH229925   3.777   3.864  12.131 -0.1601 -0.1301  0.0347
 2837TIP3    H129926   3.744   3.796  12.073 -0.6280  0.9634 -1.0228
 2837TIP3    H229927   3.701   3.893  12.181 -0.0710 -0.0226  0.1115
 2838TIP3   OH229928   6.586   3.664   5.445 -0.3372  0.1758 -0.1829
 2838TIP3    H129929   6.646   3.592   5.463  0.0746  0.9963  2.0202
 2838TIP3    H229930   6.499   3.626   5.456 -0.1283  0.3210  2.8340
 2839TIP3   OH229931   0.225   5.889  14.832  0.0856  0.5442  0.0922
 2839TIP3    H129932   0.243   5.814  14.890 -1.0774  0.7999  0.8204
 2839TIP3    H229933   0.211   5.962  14.892  1.5833  1.4662 -0.6221
 2840TIP3   OH229934   4.909   3.517   5.605  0.4196 -0.4188  0.6078
 2840TIP3    H129935   4.893   3.610   5.619  0.3412 -0.3793  0.2739
 2840TIP3    H229936   4.978   3.514   5.538 -1.3146 -0.5887 -1.2763
 2841TIP3   OH229937   5.356   5.946   1.435  0.0465  0.0505 -0.4546
 2841TIP3    H129938   5.328   6.016   1.376 -0.2333 -0.5141 -0.9979
 2841TIP3    H229939   5.402   5.883   1.379  0.5510 -0.0657  0.0776
 2842TIP3   OH229940   6.695   4.265  13.891  0.7185 -0.3004  0.6255
 2842TIP3    H129941   6.746   4.343  13.869 -0.8033  0.3941 -0.7029
 2842TIP3    H229942   6.604   4.294  13.885  0.0663 -1.2143  3.9015
 2843TIP3   OH229943   6.183   0.988   2.411  0.1965 -0.3322  0.4600
 2843TIP3    H129944   6.262   1.022   2.453  1.2408 -2.0613 -0.0066
 2843TIP3    H229945   6.204   0.988   2.318 -1.3685  1.6281  0.0598
 2844TIP3   OH229946   5.340   1.554   0.493 -0.4056  0.7831  0.2727
 2844TIP3    H129947   5.340   1.463   0.522  0.3326  0.8316  0.4430
 2844TIP3    H229948   5.432   1.575   0.480 -0.5833  1.4551  0.0665
 2845TIP3   OH229949   6.135   3.310  16.158  0.1814 -0.6716 -0.2857
 2845TIP3    H129950   6.051   3.280  16.122  1.2763 -2.8846 -1.2150
 2845TIP3    H229951   6.174   3.362  16.088 -1.3918  2.6233  1.0606
 2846TIP3   OH229952   5.587   6.614  11.233  0.0739  0.0080  0.2920
 2846TIP3    H129953   5.523   6.552  11.268 -0.2411  0.1305 -0.0648
 2846TIP3    H229954   5.587   6.686  11.296  1.7991 -1.1534  1.7208
 2847TIP3   OH229955   1.010   2.153   2.792 -0.1177  0.1767 -0.1361
 2847TIP3    H129956   0.918   2.177   2.805 -1.0976 -2.6251 -1.1626
 2847TIP3    H229957   1.025   2.082   2.854  1.0701 -0.0646 -0.6705
 2848TIP3   OH229958   2.885   4.873  16.844 -0.1615  0.2342 -0.8430
 2848TIP3    H129959   2.857   4.909  16.929 -1.3141  0.6929 -1.3968
 2848TIP3    H229960   2.954   4.810  16.867 -0.4058  0.3933  0.4307
 2849TIP3   OH229961   6.660   6.398  11.297  0.2045  0.2189 -0.0686
 2849TIP3    H129962   6.711   6.318  11.284  0.0429 -0.2882  2.0380
 2849TIP3    H229963   6.580   6.384  11.247  0.2447 -0.8896  0.1604
 2850TIP3   OH229964   5.184   5.643  15.145  0.3092 -0.7016 -0.2804
 2850TIP3    H129965   5.092   5.636  15.120  0.2448 -0.6020 -0.0686
 2850TIP3    H229966   5.183   5.648  15.240  0.4453  0.5972 -0.3290
 2851TIP3   OH229967   5.381   3.202   4.187 -1.0410  0.0274 -0.1332
 2851TIP3    H129968   5.313   3.249   4.139 -1.3219  1.6511  1.7529
 2851TIP3    H229969   5.334   3.135   4.237 -0.9383 -0.5137 -0.7442
 2852TIP3   OH229970   4.688   1.849   1.523 -0.1738  0.2103 -0.6207
 2852TIP3    H129971   4.679   1.754   1.523 -0.5999  0.2126  0.9968
 2852TIP3    H229972   4.762   1.866   1.582 -1.1427  0.9116  0.4451
 2853TIP3   OH229973   0.952   0.648   4.924 -0.2671  0.2911  0.0439
 2853TIP3    H129974   1.008   0.598   4.984 -0.4435  1.2967  1.0841
 2853TIP3    H229975   0.870   0.599   4.921  0.0129 -0.1839  0.0025
 2854TIP3   OH229976   2.336   1.002   3.720 -0.3704 -0.3600 -0.5674
 2854TIP3    H129977   2.416   0.968   3.762 -1.6321 -2.3927  0.3851
 2854TIP3    H229978   2.338   0.965   3.632 -0.8322 -1.4794 -0.1321
 2855TIP3   OH229979   3.972   1.954  16.042  0.6914  0.0904 -0.5827
 2855TIP3    H129980   3.893   1.980  15.995  1.2776  1.3936 -0.9075
 2855TIP3    H229981   4.043   1.990  15.989  1.4648 -0.4080  0.1034
 2856TIP3   OH229982   2.793   5.691   2.960 -0.1458 -0.0156 -0.2975
 2856TIP3    H129983   2.884   5.692   2.933  0.5901  0.1813  1.9815
 2856TIP3    H229984   2.786   5.763   3.024 -1.7618 -0.3564 -0.0445
 2857TIP3   OH229985   2.521   3.494  16.972  0.4083 -0.0162  0.2517
 2857TIP3    H129986   2.607   3.517  17.006 -0.0598  1.9768  0.2156
 2857TIP3    H229987   2.502   3.562  16.907 -2.2825  1.2199  2.1337
 2858TIP3   OH229988   5.076   5.883   5.590 -0.4952 -0.7821  0.5474
 2858TIP3    H129989   5.009   5.890   5.659  1.0994  0.3884  2.0853
 2858TIP3    H229990   5.159   5.880   5.638  0.8287  2.0633 -1.3236
 2859TIP3   OH229991   4.322   1.150  12.798 -0.0379  0.3525 -0.5891
 2859TIP3    H129992   4.370   1.219  12.843 -0.2735 -0.1087  0.4053
 2859TIP3    H229993   4.344   1.161  12.705 -1.0497  2.5336 -0.6301
 2860TIP3   OH229994   1.859   4.933  16.577  0.4772 -0.2881 -0.0634
 2860TIP3    H129995   1.953   4.930  16.558  0.9818  0.3013  2.0428
 2860TIP3    H229996   1.846   5.020  16.617 -1.4551  0.6519 -2.4620
 2861TIP3   OH229997   3.935   5.003   2.739 -0.5584 -0.1093 -0.7638
 2861TIP3    H129998   3.843   5.025   2.724 -0.3791 -0.4778 -2.6362
 2861TIP3    H229999   3.932   4.917   2.782 -1.1042  0.8889  1.3188
 2862TIP3   OH230000   4.093   4.387   4.228 -1.3338 -0.1802 -0.3709
 2862TIP3    H130001   4.129   4.338   4.302 -0.6736  1.5252  0.4880
 2862TIP3    H230002   4.052   4.320   4.173  0.6827 -1.8627  0.0428
 2863TIP3   OH230003   5.796   4.933   3.041 -0.3570  0.3931  0.3604
 2863TIP3    H130004   5.867   4.939   3.105 -2.1294  2.0779  2.3326
 2863TIP3    H230005   5.789   5.021   3.005 -0.6332 -0.0762 -0.7568
 2864TIP3   OH230006   5.259   0.547   4.863  0.2460  0.4362  0.4955
 2864TIP3    H130007   5.281   0.637   4.889  0.6950  1.0190 -1.6674
 2864TIP3    H230008   5.271   0.547   4.768 -3.7733 -0.7415 -0.1793
 2865TIP3   OH230009   4.361   2.168   1.919 -0.3284 -0.1210  0.1832
 2865TIP3    H130010   4.344   2.241   1.980 -0.2303  0.2312 -0.2072
 2865TIP3    H230011   4.421   2.111   1.967  1.5212  1.2559 -0.3786
 2866TIP3   OH230012   4.826   6.107   2.452  0.2308  0.0421 -0.1856
 2866TIP3    H130013   4.899   6.068   2.404  1.3410  1.7616  0.0305
 2866TIP3    H230014   4.800   6.183   2.399  0.1502  0.7957  0.9059
 2867TIP3   OH230015   1.933   4.975  10.723 -0.1803 -1.0153  0.5274
 2867TIP3    H130016   1.878   4.923  10.664 -0.6285 -1.2974  1.1737
 2867TIP3    H230017   2.022   4.961  10.691 -0.5348  0.2276 -1.1390
 2868TIP3   OH230018   2.438   2.850   0.003 -0.7492 -0.4991 -0.7222
 2868TIP3    H130019   2.465   2.932  -0.038 -0.4401  0.2373  0.8878
 2868TIP3    H230020   2.456   2.783  -0.063  0.1770  0.5832 -1.6019
 2869TIP3   OH230021   1.267   1.190   5.527 -0.1445  0.0421 -0.4189
 2869TIP3    H130022   1.298   1.201   5.617  0.0075 -1.1385 -0.3062
 2869TIP3    H230023   1.175   1.166   5.537 -0.0843 -0.2540 -0.5646
 2870TIP3   OH230024   3.534   3.064   4.213  0.4111  0.2308 -0.0658
 2870TIP3    H130025   3.440   3.047   4.223  0.9517 -2.4751  1.4460
 2870TIP3    H230026   3.550   3.142   4.265 -0.2860 -2.2555  4.4748
 2871TIP3   OH230027   3.546   1.624  15.060 -0.3161 -0.4465  0.2522
 2871TIP3    H130028   3.549   1.674  15.141 -1.7968 -0.8451  0.5868
 2871TIP3    H230029   3.455   1.595  15.053  0.3433 -2.5995 -0.2351
 2872TIP3   OH230030   2.989   3.788   0.802  0.0246 -0.0603  0.2393
 2872TIP3    H130031   2.920   3.851   0.823  0.8677  0.8985  0.2682
 2872TIP3    H230032   3.051   3.797   0.875  0.2719 -0.7696  0.1221
 2873TIP3   OH230033   1.683   3.315  14.887  0.1155 -0.1063 -0.0566
 2873TIP3    H130034   1.660   3.245  14.825 -1.8798 -0.1760  0.6760
 2873TIP3    H230035   1.717   3.386  14.832 -0.5552 -0.5810 -1.1181
 2874TIP3   OH230036   3.823   3.125  13.457 -0.5512 -0.5328  0.1415
 2874TIP3    H130037   3.744   3.165  13.421 -0.1609 -0.4447 -0.6291
 2874TIP3    H230038   3.892   3.190  13.444 -0.4434 -0.3847  1.3039
 2875TIP3   OH230039   5.879   3.451  11.541  0.4072  0.4218  0.4806
 2875TIP3    H130040   5.942   3.430  11.610  2.1956 -1.4015 -1.5440
 2875TIP3    H230041   5.842   3.366  11.516  0.5943  0.8637 -1.4761
 2876TIP3   OH230042   5.240   0.319   3.623 -0.6239  0.2169 -0.5444
 2876TIP3    H130043   5.227   0.293   3.532 -0.2690  1.5057 -0.9795
 2876TIP3    H230044   5.326   0.360   3.624  0.1317 -1.2956  0.7330
 2877TIP3   OH230045   6.378   3.529  15.356 -0.0458  0.1981 -0.1198
 2877TIP3    H130046   6.465   3.494  15.336  0.4043  1.2298  0.0178
 2877TIP3    H230047   6.345   3.561  15.272  0.1935  0.8693  0.0363
 2878TIP3   OH230048   1.803   1.473   6.711 -0.0862  0.1472  0.2477
 2878TIP3    H130049   1.821   1.554   6.758 -1.0820 -0.2111  1.2902
 2878TIP3    H230050   1.749   1.422   6.771 -1.4957 -0.2932 -1.3239
 2879TIP3   OH230051   0.699   6.674  13.779 -0.1939 -0.0475 -0.3960
 2879TIP3    H130052   0.767   6.615  13.812  0.6005  1.3443  0.6269
 2879TIP3    H230053   0.747   6.739  13.727 -0.7643  0.7361  0.0258
 2880TIP3   OH230054   0.760   5.424   3.049  0.0039  0.6865  0.0485
 2880TIP3    H130055   0.787   5.391   3.135  1.8053 -0.4764 -0.9210
 2880TIP3    H230056   0.674   5.464   3.066  0.1591  0.2371  2.3199
 2881TIP3   OH230057   0.929   2.828  15.246 -0.4981  0.4023  0.0385
 2881TIP3    H130058   0.951   2.877  15.166  3.1955  0.1866  0.7383
 2881TIP3    H230059   0.848   2.783  15.224 -0.6707  1.8582 -2.9089
 2882TIP3   OH230060   4.415   5.823  10.788  0.4702 -0.2439 -0.0239
 2882TIP3    H130061   4.407   5.787  10.699 -2.3329 -0.3042  0.1629
 2882TIP3    H230062   4.426   5.917  10.774 -0.3120 -0.2096 -0.4397
 2883TIP3   OH230063   2.219   3.373  13.531 -0.0039 -0.3796 -0.3738
 2883TIP3    H130064   2.189   3.415  13.450 -0.9103 -0.3252 -0.0130
 2883TIP3    H230065   2.198   3.437  13.600 -1.5103 -1.4458  0.2027
 2884TIP3   OH230066   4.152   4.379   2.286  0.3301  0.7168  0.0459
 2884TIP3    H130067   4.108   4.387   2.201  0.2968  1.0958  0.0972
 2884TIP3    H230068   4.106   4.308   2.330  1.1245 -0.3145 -0.7292
 2885TIP3   OH230069   3.547   2.048  14.896  0.1239 -0.5604  0.8667
 2885TIP3    H130070   3.623   2.070  14.842 -0.9054  1.5967  0.1750
 2885TIP3    H230071   3.508   1.972  14.853 -1.2047  1.6293 -2.1522
 2886TIP3   OH230072   2.990   6.398   4.707  0.4973  0.0404  0.0479
 2886TIP3    H130073   2.956   6.438   4.787  0.6814  0.1334  0.0796
 2886TIP3    H230074   2.967   6.460   4.638  1.4845  0.5964  0.2006
 2887TIP3   OH230075   1.846   0.249   1.775 -0.0669 -0.4415  0.5213
 2887TIP3    H130076   1.861   0.172   1.722 -0.3946  0.4236 -0.8696
 2887TIP3    H230077   1.933   0.279   1.801  0.0910 -0.9119  0.5249
 2888TIP3   OH230078   5.674   2.710   2.947  0.0021 -0.0164 -0.5243
 2888TIP3    H130079   5.749   2.730   3.004 -0.3685 -0.8330  0.2706
 2888TIP3    H230080   5.611   2.779   2.966  0.1565  0.1079 -0.4584
 2889TIP3   OH230081   4.631   1.904   5.910  0.3254 -0.6538 -0.0797
 2889TIP3    H130082   4.709   1.849   5.911  0.1602 -0.8956 -0.4410
 2889TIP3    H230083   4.603   1.905   5.819 -0.4013 -1.0135  0.1270
 2890TIP3   OH230084   6.127   5.952   3.678  0.0543 -0.1643  0.1796
 2890TIP3    H130085   6.053   5.891   3.685 -0.1555  0.1200  0.4921
 2890TIP3    H230086   6.097   6.030   3.725  0.5158 -0.0102  0.2153
 2891TIP3   OH230087   0.694   1.473   1.299 -0.1272  0.5259 -0.5574
 2891TIP3    H130088   0.606   1.497   1.271 -1.9222 -0.6665  3.3348
 2891TIP3    H230089   0.738   1.556   1.318 -0.4918  1.1170 -2.2086
 2892TIP3   OH230090   6.601   4.946  11.811  0.0229  0.8355 -0.2334
 2892TIP3    H130091   6.696   4.931  11.821  0.3340  0.0012 -3.4242
 2892TIP3    H230092   6.576   4.891  11.737 -1.8559  5.0503 -3.0776
 2893TIP3   OH230093   4.825   6.161  14.183  0.1001 -0.1455  0.2704
 2893TIP3    H130094   4.769   6.148  14.260 -0.7541  0.5058 -0.2292
 2893TIP3    H230095   4.774   6.217  14.125 -0.0904 -2.1634 -1.6413
 2894TIP3   OH230096   6.318   4.273  15.799  0.4065 -0.4298  0.4071
 2894TIP3    H130097   6.241   4.307  15.754 -0.6429 -1.0721  1.6471
 2894TIP3    H230098   6.293   4.270  15.891  1.5487 -1.6014  0.7176
 2895TIP3   OH230099   0.185   2.488  14.282  0.0692 -0.2881  0.2610
 2895TIP3    H130100   0.247   2.419  14.305 -0.0467 -0.9345 -1.2656
 2895TIP3    H230101   0.239   2.566  14.270  0.5165 -0.6924 -0.4051
 2896TIP3   OH230102   4.257   4.615  13.018 -0.1532  0.3619 -0.0925
 2896TIP3    H130103   4.232   4.554  12.949 -0.2776  2.8019 -2.3284
 2896TIP3    H230104   4.174   4.636  13.063 -0.6011  1.0668 -1.2117
 2897TIP3   OH230105   1.679   3.423  15.642 -0.3801  0.4212  0.0939
 2897TIP3    H130106   1.622   3.359  15.599  0.0496  0.2267 -0.1945
 2897TIP3    H230107   1.734   3.457  15.572 -0.0529  0.5074  0.3898
 2898TIP3   OH230108   5.984   4.517  16.975  0.0629  0.3393 -0.5034
 2898TIP3    H130109   6.041   4.478  16.909  2.8384  0.2821  1.7473
 2898TIP3    H230110   6.044   4.552  17.041 -2.5202  1.0126  1.6674
 2899TIP3   OH230111   2.383   5.001  15.409 -0.7544  0.2682 -0.0356
 2899TIP3    H130112   2.472   5.036  15.402 -0.8312  0.3467 -0.6904
 2899TIP3    H230113   2.355   5.023  15.498  0.2287 -0.5974  0.5126
 2900TIP3   OH230114   3.320   6.269   0.123  0.1131  0.1707  0.2231
 2900TIP3    H130115   3.387   6.255   0.056 -0.5851  0.8765 -0.6631
 2900TIP3    H230116   3.369   6.301   0.199  0.8517  0.0990 -0.2065
 2901TIP3   OH230117   1.127   3.190   1.003 -0.3934  0.2876  0.5486
 2901TIP3    H130118   1.077   3.131   0.947  0.2671  0.1000  0.1398
 2901TIP3    H230119   1.196   3.136   1.041 -0.4259  0.5646  1.0095
 2902TIP3   OH230120   1.415   6.638  14.809  0.2327 -0.7845  0.6830
 2902TIP3    H130121   1.320   6.642  14.813  0.1250 -1.0545 -1.0117
 2902TIP3    H230122   1.436   6.545  14.816  0.3313 -0.7785  0.4826
 2903TIP3   OH230123   3.816   2.267  15.782 -0.6371 -0.2697  0.0759
 2903TIP3    H130124   3.745   2.332  15.788  0.6117  0.9943  2.6009
 2903TIP3    H230125   3.889   2.307  15.830  1.1666 -2.3521 -0.7859
 2904TIP3   OH230126   2.932   2.341  14.799  0.7542  0.2367 -0.4885
 2904TIP3    H130127   2.956   2.255  14.835 -0.1069  0.2823  0.2290
 2904TIP3    H230128   2.842   2.331  14.770 -0.9446  1.9512  3.4154
 2905TIP3   OH230129   6.324   5.854  16.748 -0.1223  0.0548 -0.2493
 2905TIP3    H130130   6.346   5.947  16.749  0.3658 -0.0340 -1.5321
 2905TIP3    H230131   6.281   5.840  16.664 -1.0380 -0.7015  0.3242
 2906TIP3   OH230132   6.651   3.170   1.722 -0.0146  0.1781  0.3006
 2906TIP3    H130133   6.590   3.184   1.650 -1.5183  0.7165  1.6169
 2906TIP3    H230134   6.639   3.246   1.779  2.6675  0.8461  0.1278
 2907TIP3   OH230135   5.594   6.024  15.477  0.2540  0.1968  0.2619
 2907TIP3    H130136   5.561   6.092  15.418  0.4043 -0.6585 -0.8641
 2907TIP3    H230137   5.681   6.002  15.442 -0.3631 -1.5607 -0.3111
 2908TIP3   OH230138   4.491   5.015  13.364  0.2951 -0.0761 -0.0293
 2908TIP3    H130139   4.499   5.063  13.282 -0.6109 -0.1819 -0.1961
 2908TIP3    H230140   4.562   4.952  13.363  0.0372 -0.3668 -0.9338
 2909TIP3   OH230141   5.779   2.518   3.620  0.0809  0.3629  1.0100
 2909TIP3    H130142   5.791   2.497   3.713 -1.7915 -1.2498  0.9627
 2909TIP3    H230143   5.747   2.436   3.581  2.7945  0.3421 -1.5362
 2910TIP3   OH230144   0.458   4.263   5.342  0.6750  0.4438 -0.5328
 2910TIP3    H130145   0.509   4.311   5.407 -0.9165 -0.7939  1.8077
 2910TIP3    H230146   0.483   4.171   5.356 -0.0309  0.1100 -1.3890
 2911TIP3   OH230147   3.781   4.177  14.506 -0.1275  0.2876  0.0266
 2911TIP3    H130148   3.852   4.205  14.449 -1.0296  1.0089 -0.7836
 2911TIP3    H230149   3.732   4.258  14.524 -0.8489 -0.2242  0.4182
 2912TIP3   OH230150   6.769   1.905  15.949 -0.6991  0.7474  0.4016
 2912TIP3    H130151   6.833   1.866  15.889 -0.9633  2.1838 -0.8477
 2912TIP3    H230152   6.817   1.976  15.991 -0.7166  0.1589  1.4496
 2913TIP3   OH230153   6.554   5.620   1.427 -0.2736  0.0141 -0.6144
 2913TIP3    H130154   6.574   5.657   1.341 -1.6334 -1.5320 -1.6569
 2913TIP3    H230155   6.506   5.690   1.472 -0.0321  0.6487 -1.3184
 2914TIP3   OH230156   1.860   2.152   4.578  0.0345 -0.1634  0.7840
 2914TIP3    H130157   1.898   2.071   4.544 -0.4858  0.4171 -1.3414
 2914TIP3    H230158   1.917   2.177   4.651  0.9762 -1.7257  0.6217
 2915TIP3   OH230159   0.700   0.642   1.278  0.1131  0.0007  0.0502
 2915TIP3    H130160   0.740   0.689   1.352  1.0652 -2.1959  1.0184
 2915TIP3    H230161   0.728   0.551   1.289 -0.8732 -0.6636 -2.2633
 2916TIP3   OH230162   3.964   5.775  16.045 -0.2488 -0.3167 -0.4906
 2916TIP3    H130163   3.885   5.738  16.083 -0.2690  0.1977 -0.0229
 2916TIP3    H230164   3.970   5.734  15.958  1.1333 -3.3646  0.9157
 2917TIP3   OH230165   6.618   2.587   5.340 -0.3501  0.4169  0.1672
 2917TIP3    H130166   6.612   2.669   5.389  0.2009  0.5273  0.0652
 2917TIP3    H230167   6.712   2.567   5.341  0.3222  2.4122 -4.0609
 2918TIP3   OH230168   5.247   6.489  11.686 -0.0383 -0.2978  0.0357
 2918TIP3    H130169   5.246   6.534  11.601 -1.2086  0.4394  0.4154
 2918TIP3    H230170   5.327   6.519  11.728  0.5462 -0.6566 -0.7948
 2919TIP3   OH230171   3.334   5.699   2.269 -0.6599  1.0771  0.5538
 2919TIP3    H130172   3.398   5.651   2.217 -0.1522 -0.4340  2.4250
 2919TIP3    H230173   3.372   5.785   2.283  1.6284 -0.1481  2.5972
 2920TIP3   OH230174   5.721   6.745  16.635 -0.4897  0.7645  0.3322
 2920TIP3    H130175   5.629   6.719  16.635 -0.1308 -0.8964 -2.2472
 2920TIP3    H230176   5.732   6.794  16.553  0.8661  1.1851  0.7394
 2921TIP3   OH230177   5.542   3.905   4.428 -0.2412  0.6524  0.5207
 2921TIP3    H130178   5.455   3.865   4.433  0.0939 -1.0038 -3.3206
 2921TIP3    H230179   5.595   3.854   4.489 -1.4987  0.3585  1.4198
 2922TIP3   OH230180   5.845   3.940   4.963  0.2830 -0.2991 -0.3623
 2922TIP3    H130181   5.757   3.961   4.996  0.2831  1.2192 -1.2664
 2922TIP3    H230182   5.895   4.020   4.976  1.2933 -0.8641 -0.7105
 2923TIP3   OH230183   0.861   1.483   6.129  0.5928  0.0724  0.0041
 2923TIP3    H130184   0.806   1.412   6.160  0.2982 -0.8756 -2.4638
 2923TIP3    H230185   0.801   1.556   6.115  0.4869  0.0368  0.2804
 2924TIP3   OH230186   5.087   3.596  13.616  0.7743  0.3052 -0.6212
 2924TIP3    H130187   5.047   3.644  13.544 -0.2981 -0.9648 -0.8983
 2924TIP3    H230188   5.111   3.511  13.578 -1.2345 -1.0034  0.8364
 2925TIP3   OH230189   4.460   5.680  12.251 -0.3330 -0.1619  0.4679
 2925TIP3    H130190   4.422   5.766  12.235  0.4439  0.1309  0.1570
 2925TIP3    H230191   4.505   5.657  12.169 -1.5213 -1.3984  0.1220
 2926TIP3   OH230192   5.986   3.439   0.993  0.2785  0.1680  0.0968
 2926TIP3    H130193   5.988   3.457   1.087  2.6887 -0.7973  0.3134
 2926TIP3    H230194   5.903   3.395   0.979  0.2274 -0.4148  1.9685
 2927TIP3   OH230195   6.454   4.216   0.121 -0.1286  0.1854 -0.2220
 2927TIP3    H130196   6.374   4.226   0.174  1.2225  0.9112  1.8305
 2927TIP3    H230197   6.501   4.144   0.163  1.2205  1.1201 -0.0700
 2928TIP3   OH230198   2.337   0.730   3.428  0.5971  0.3623  0.1371
 2928TIP3    H130199   2.340   0.823   3.453  1.6853  1.3983 -3.3152
 2928TIP3    H230200   2.270   0.725   3.360  2.1213 -0.8526 -1.3640
 2929TIP3   OH230201   3.919   4.286   5.266 -0.0463 -0.2981 -0.0408
 2929TIP3    H130202   3.937   4.322   5.179  3.0846 -1.0051  0.1769
 2929TIP3    H230203   3.863   4.210   5.250  0.7004 -0.5715 -1.5019
 2930TIP3   OH230204   4.140   5.760  15.609  0.2912  0.2055 -0.1332
 2930TIP3    H130205   4.169   5.682  15.563 -0.4503  0.6160 -1.3406
 2930TIP3    H230206   4.216   5.818  15.608  0.2225  0.2867 -1.0167
 2931TIP3   OH230207   6.597   5.742  16.784  0.6902  0.2720 -0.1683
 2931TIP3    H130208   6.505   5.748  16.760  0.8233 -0.6469 -0.9970
 2931TIP3    H230209   6.602   5.783  16.870 -0.5981 -0.1749  0.1463
 2932TIP3   OH230210   6.135   2.118   3.662 -0.0709  0.5633  0.1936
 2932TIP3    H130211   6.215   2.068   3.680 -1.0950 -0.7319  1.4553
 2932TIP3    H230212   6.108   2.151   3.748 -1.0480  0.7373 -0.1707
 2933TIP3   OH230213   0.086   5.462   1.719 -0.1663 -0.2569 -0.0656
 2933TIP3    H130214   0.095   5.512   1.638  0.7304 -1.2913 -0.6368
 2933TIP3    H230215  -0.004   5.479   1.748 -0.9997 -0.9540 -2.0382
 2934TIP3   OH230216   5.576   6.282   3.153 -0.1088 -0.1751 -0.4125
 2934TIP3    H130217   5.511   6.329   3.205  0.4760  1.0172 -0.7134
 2934TIP3    H230218   5.658   6.329   3.170  0.2345 -0.2334 -1.7926
 2935TIP3   OH230219   4.280   2.344  17.244  0.0201  0.5021 -0.1678
 2935TIP3    H130220   4.310   2.320  17.157  0.7941 -1.7465  0.6384
 2935TIP3    H230221   4.357   2.379  17.288  0.2028 -0.4380  0.2831
 2936TIP3   OH230222   0.763   2.262  15.418  0.4366 -0.2340 -0.4830
 2936TIP3    H130223   0.740   2.355  15.411  1.3318  0.0046 -0.3815
 2936TIP3    H230224   0.767   2.245  15.512  0.5746 -0.2944 -0.5000
 2937TIP3   OH230225   5.603   1.185  13.019 -0.1572  0.1834 -0.6376
 2937TIP3    H130226   5.666   1.140  12.962 -0.4098  0.2257 -0.9545
 2937TIP3    H230227   5.655   1.219  13.091  0.2307  0.5103 -1.0716
 2938TIP3   OH230228   1.752   6.611   2.484  0.0783 -0.4519  0.2842
 2938TIP3    H130229   1.783   6.587   2.397  1.3292 -0.3463  0.6755
 2938TIP3    H230230   1.662   6.580   2.488  0.0954 -0.6807 -0.9519
 2939TIP3   OH230231   6.095   3.056  15.082 -0.4630  0.1824 -0.3998
 2939TIP3    H130232   6.056   3.031  14.998 -0.8293 -3.1928  0.6301
 2939TIP3    H230233   6.042   3.010  15.148  1.9495 -0.2189  1.4013
 2940TIP3   OH230234   1.066   2.138  16.365 -0.2804 -0.1038  0.5568
 2940TIP3    H130235   1.007   2.105  16.433  0.7539  1.9782  2.5947
 2940TIP3    H230236   1.148   2.090  16.380 -0.4449 -0.6103 -0.1279
 2941TIP3   OH230237   4.973   2.033   5.887 -0.2422  0.0109  0.0045
 2941TIP3    H130238   4.963   2.110   5.943  0.7539 -0.1393  0.4061
 2941TIP3    H230239   4.963   1.958   5.947  1.9062 -0.1547  0.2371
 2942TIP3   OH230240   3.917   4.908   4.043  0.7387  1.0455  0.1008
 2942TIP3    H130241   3.987   4.871   4.096  0.4875  0.4491  0.0341
 2942TIP3    H230242   3.857   4.948   4.107 -0.0904 -0.5594  0.4000
 2943TIP3   OH230243   4.069   5.340  12.421 -0.8866  0.7142 -0.7951
 2943TIP3    H130244   4.032   5.400  12.486 -0.2296  0.6260 -0.3293
 2943TIP3    H230245   4.148   5.384  12.390 -0.9805  0.5717 -1.2476
 2944TIP3   OH230246   4.933   0.179   2.500 -0.4819 -0.0701  0.1783
 2944TIP3    H130247   4.981   0.163   2.582 -0.5387  0.9403  0.4221
 2944TIP3    H230248   4.842   0.189   2.528 -0.7094 -1.0634 -0.1763
 2945TIP3   OH230249   3.402   5.513  14.089 -0.1152  0.5547  0.4164
 2945TIP3    H130250   3.367   5.472  14.010  0.7964  0.2322  0.1755
 2945TIP3    H230251   3.328   5.510  14.151 -0.3144 -0.7739  0.1636
 2946TIP3   OH230252   3.117   5.968   0.217  0.0928  0.2601 -0.2026
 2946TIP3    H130253   3.164   6.050   0.232  1.0368 -0.5981  1.8595
 2946TIP3    H230254   3.026   5.988   0.237 -0.2258  1.4738 -2.4903
 2947TIP3   OH230255   0.733   2.907   2.328 -0.4012  0.1834 -0.3949
 2947TIP3    H130256   0.717   2.932   2.237 -0.3425 -0.0148 -0.4597
 2947TIP3    H230257   0.825   2.930   2.344 -0.9521  2.2001  0.2605
 2948TIP3   OH230258   3.922   3.992  15.025  0.2828 -0.5221 -0.1808
 2948TIP3    H130259   3.936   3.901  15.053 -0.3082 -0.2724  0.9990
 2948TIP3    H230260   3.985   4.005  14.954  0.9678 -1.5955  0.2015
 2949TIP3   OH230261   3.016   2.723  13.541  0.4414  0.0540  0.5017
 2949TIP3    H130262   3.028   2.740  13.635  1.0844 -1.2035  0.6687
 2949TIP3    H230263   3.101   2.744  13.503  0.2497  0.3347  0.2251
 2950TIP3   OH230264   4.063   6.334   2.275 -0.2797  0.2348  0.1596
 2950TIP3    H130265   4.105   6.313   2.191  0.1061  0.6389  0.2444
 2950TIP3    H230266   4.082   6.427   2.288 -0.9281  0.3408  0.3635
 2951TIP3   OH230267   6.075   4.600  11.670  0.1972 -0.0359 -0.3043
 2951TIP3    H130268   5.998   4.653  11.691 -1.8406 -3.6699  2.6615
 2951TIP3    H230269   6.149   4.661  11.678 -2.0960  3.0270 -0.5973
 2952TIP3   OH230270   2.107   0.681   0.934  0.2852 -0.2510 -0.4057
 2952TIP3    H130271   2.172   0.611   0.943 -0.9486 -1.9012 -3.1347
 2952TIP3    H230272   2.041   0.662   1.001  1.5686  0.3018  1.0734
 2953TIP3   OH230273   1.721   6.506  14.766  0.0918  0.6671  0.2290
 2953TIP3    H130274   1.803   6.481  14.809  0.7533 -0.6448 -1.6455
 2953TIP3    H230275   1.659   6.438  14.793  0.3557  0.1572 -0.4355
 2954TIP3   OH230276   6.731   0.950  16.863 -0.6794  0.5169 -0.2310
 2954TIP3    H130277   6.727   0.942  16.959 -1.1559 -1.2819 -0.3672
 2954TIP3    H230278   6.820   0.980  16.846 -0.7473  1.3661  0.7970
 2955TIP3   OH230279   3.565   6.744   2.626 -0.5695  0.7165  0.1897
 2955TIP3    H130280   3.618   6.690   2.568 -0.9572  1.2859 -0.7092
 2955TIP3    H230281   3.601   6.728   2.713 -1.5583 -2.0626  0.1773
 2956TIP3   OH230282   0.096   4.523  14.923 -0.9627  0.0580 -0.0763
 2956TIP3    H130283   0.175   4.476  14.897 -2.0881 -1.9444 -0.0617
 2956TIP3    H230284   0.127   4.610  14.949  1.2246 -0.6841 -0.0249
 2957TIP3   OH230285   1.275   6.517  11.440 -0.2622  0.6509  0.6829
 2957TIP3    H130286   1.231   6.482  11.518  0.7498  0.6587  1.2762
 2957TIP3    H230287   1.338   6.580  11.475  1.1221 -0.2965 -0.0308
 2958TIP3   OH230288   4.745   2.611  11.554  0.0374  0.0917  0.3317
 2958TIP3    H130289   4.833   2.606  11.591 -0.3644 -0.9257  1.2096
 2958TIP3    H230290   4.690   2.638  11.627 -0.4917 -0.0250 -0.0173
 2959TIP3   OH230291   1.325   2.157   0.322  0.6592 -0.0281 -0.1032
 2959TIP3    H130292   1.326   2.249   0.293  0.8835 -0.5477 -1.9083
 2959TIP3    H230293   1.385   2.155   0.397  0.3880  1.3560  0.1786
 2960TIP3   OH230294   4.767   6.613   2.198 -0.0477  0.2899 -0.2309
 2960TIP3    H130295   4.773   6.658   2.113  1.0054  0.8327  0.1071
 2960TIP3    H230296   4.826   6.663   2.255  0.3037 -0.8800  0.4533
 2961TIP3   OH230297   0.981   0.742   4.585 -0.4150 -0.2929  1.0308
 2961TIP3    H130298   0.930   0.663   4.600 -0.4143  0.0431  3.1135
 2961TIP3    H230299   0.928   0.813   4.621 -0.4065  0.7044 -0.7599
 2962TIP3   OH230300   6.209   0.236  16.399 -0.1886 -0.5046 -0.0199
 2962TIP3    H130301   6.121   0.214  16.368  0.2223 -1.5377 -0.4755
 2962TIP3    H230302   6.200   0.243  16.494 -0.6135 -1.3411  0.0103
 2963TIP3   OH230303   2.341   5.539   0.922 -0.1224 -0.5431 -0.1821
 2963TIP3    H130304   2.420   5.535   0.977 -0.3992 -0.5347  0.2215
 2963TIP3    H230305   2.269   5.525   0.984 -0.5954  1.7468 -0.1513
 2964TIP3   OH230306   4.889   0.772  16.880  0.2358  0.1300  0.6510
 2964TIP3    H130307   4.869   0.862  16.856  1.0592  0.3620  0.7836
 2964TIP3    H230308   4.925   0.778  16.969 -0.3301 -0.4069  0.9231
 2965TIP3   OH230309   0.110   3.217   6.749 -0.2513 -0.0705  0.5765
 2965TIP3    H130310   0.106   3.189   6.658 -0.6362  0.5716  0.3910
 2965TIP3    H230311   0.043   3.165   6.793 -0.8366  0.4110  0.2697
 2966TIP3   OH230312   1.770   3.359   1.863 -0.2956  0.5759  0.0047
 2966TIP3    H130313   1.815   3.354   1.778  1.0636  0.3887  0.7084
 2966TIP3    H230314   1.840   3.352   1.927 -1.4982 -1.4876  1.1894
 2967TIP3   OH230315   4.894   2.134  16.737  0.6436 -0.0966 -0.1320
 2967TIP3    H130316   4.935   2.196  16.797 -0.3154 -0.1412  0.5924
 2967TIP3    H230317   4.957   2.062  16.730  0.4637 -0.4526  1.4375
 2968TIP3   OH230318   4.114   4.185   0.968 -0.1311  0.2451 -0.3417
 2968TIP3    H130319   4.063   4.138   0.902 -0.1047 -0.1482 -0.0840
 2968TIP3    H230320   4.178   4.235   0.917  1.5251 -1.9329 -0.5690
 2969TIP3   OH230321   5.836   6.356   1.295 -0.1296 -0.3347 -0.1872
 2969TIP3    H130322   5.881   6.371   1.379 -1.2175 -0.3599  0.4222
 2969TIP3    H230323   5.868   6.272   1.265  1.0257  0.1259 -0.3062
 2970TIP3   OH230324   5.330   1.718   1.852  0.6369 -0.5599 -0.1056
 2970TIP3    H130325   5.389   1.725   1.927  1.7577  1.0786 -1.0952
 2970TIP3    H230326   5.265   1.788   1.867 -0.2514 -1.4317  0.2457
 2971TIP3   OH230327   3.282   2.462   4.882 -0.1158 -1.1283  0.2500
 2971TIP3    H130328   3.237   2.535   4.925 -0.2328 -1.2570  0.3498
 2971TIP3    H230329   3.320   2.500   4.803  0.2757 -0.8433  0.5696
 2972TIP3   OH230330   3.860   3.920  12.419  0.3690  0.3337  0.6052
 2972TIP3    H130331   3.818   4.004  12.400  2.2028  1.3532  0.8486
 2972TIP3    H230332   3.939   3.920  12.366 -0.2332 -1.8767 -0.4404
 2973TIP3   OH230333   4.501   0.603  16.493 -0.1926  0.3939  0.1875
 2973TIP3    H130334   4.426   0.583  16.548 -1.0731 -0.6965 -1.3443
 2973TIP3    H230335   4.463   0.632  16.410  1.0803  0.6732 -0.3249
 2974TIP3   OH230336   2.847   5.501  16.032  0.4575 -0.1539 -0.1166
 2974TIP3    H130337   2.860   5.595  16.022 -0.6160  0.1522  1.1005
 2974TIP3    H230338   2.831   5.469  15.943 -4.9602  1.7813 -0.1872
 2975TIP3   OH230339   2.030   5.853   2.123  0.6768  0.2146  0.3440
 2975TIP3    H130340   1.962   5.844   2.057  0.2290  0.4279  0.7677
 2975TIP3    H230341   1.990   5.905   2.193  1.9230  2.1950 -0.3191
 2976TIP3   OH230342   5.121   3.360  13.449 -0.0505 -0.0166  0.2017
 2976TIP3    H130343   5.088   3.379  13.361 -1.6805 -1.8648  0.3442
 2976TIP3    H230344   5.051   3.310  13.490  1.3733 -0.6405  1.9802
 2977TIP3   OH230345   1.782   5.272  16.903 -0.3792  0.4097  0.2667
 2977TIP3    H130346   1.813   5.237  16.819 -0.7423 -0.2838  0.4164
 2977TIP3    H230347   1.709   5.215  16.927 -0.2052  0.5344  1.1126
 2978TIP3   OH230348   3.348   0.734   3.960  0.6106  0.3610 -0.3144
 2978TIP3    H130349   3.402   0.655   3.956  1.1872  0.6547  1.0815
 2978TIP3    H230350   3.298   0.725   4.041 -0.2985  0.8270 -0.8076
 2979TIP3   OH230351   6.767   2.959  10.825 -0.0688 -0.7265 -0.2986
 2979TIP3    H130352   6.827   2.904  10.776  0.5125 -0.7587  0.4369
 2979TIP3    H230353   6.785   3.048  10.793 -0.4195 -0.8550 -0.8765
 2980TIP3   OH230354   0.328   0.997  14.386 -0.2918  0.3023  0.0113
 2980TIP3    H130355   0.373   0.996  14.302  0.4068  0.3494  0.3747
 2980TIP3    H230356   0.255   1.059  14.374 -0.0379  0.5135 -0.4750
 2981TIP3   OH230357   1.427   1.151   6.670  0.2774 -0.3228 -0.2974
 2981TIP3    H130358   1.343   1.110   6.688  0.0286  0.9611  1.8662
 2981TIP3    H230359   1.491   1.090   6.706  0.3238 -1.2266 -1.8079
 2982TIP3   OH230360   2.361   0.638  11.477  0.1385 -0.0876  0.0725
 2982TIP3    H130361   2.364   0.715  11.421 -2.0013 -0.4874 -0.7057
 2982TIP3    H230362   2.298   0.580  11.434 -0.5792 -0.9796  2.1740
 2983TIP3   OH230363   4.622   2.769   1.505  0.3340 -0.3818 -0.3959
 2983TIP3    H130364   4.701   2.818   1.527 -0.0044 -0.1112  0.2506
 2983TIP3    H230365   4.654   2.692   1.458  1.1714 -1.2133  1.4023
 2984TIP3   OH230366   3.431   5.342   4.571 -0.5173 -0.1639 -0.4842
 2984TIP3    H130367   3.395   5.264   4.613 -0.6233  0.2214  0.1652
 2984TIP3    H230368   3.526   5.332   4.580 -0.5136 -0.3953 -0.7448
 2985TIP3   OH230369   2.875   1.297  10.678  0.4896  0.0533  0.3354
 2985TIP3    H130370   2.905   1.373  10.727 -2.7538  1.1754  0.8377
 2985TIP3    H230371   2.829   1.334  10.602 -0.0668 -1.4328 -0.0865
 2986TIP3   OH230372   3.380   5.704   3.373  0.1461  0.0253  0.0887
 2986TIP3    H130373   3.304   5.660   3.410  0.1783  1.9612  2.7754
 2986TIP3    H230374   3.446   5.636   3.365 -1.1377 -1.2380 -0.1234
 2987TIP3   OH230375   6.120   5.839  11.560  0.0562  0.2318  0.0278
 2987TIP3    H130376   6.084   5.754  11.584  0.0671  0.1934 -0.0907
 2987TIP3    H230377   6.055   5.902  11.593  1.4918  0.3755  2.8855
 2988TIP3   OH230378   0.042   1.133  12.356  0.7485 -0.2650  0.3971
 2988TIP3    H130379   0.014   1.086  12.434  1.6306 -0.9877  0.2931
 2988TIP3    H230380  -0.033   1.187  12.332  0.1575 -0.7024  1.2267
 2989TIP3   OH230381   0.830   1.602  14.492  0.0065 -0.0403  0.5583
 2989TIP3    H130382   0.891   1.658  14.442  0.8564 -1.1306  0.3326
 2989TIP3    H230383   0.841   1.515  14.453 -0.9752 -0.4551  1.1914
 2990TIP3   OH230384   4.722   3.070   3.960  0.7908  0.2965 -0.0336
 2990TIP3    H130385   4.671   3.067   4.041 -0.4197  0.2741 -0.7687
 2990TIP3    H230386   4.748   3.162   3.952 -0.6126  0.6903 -0.4947
 2991TIP3   OH230387   5.981   0.025  14.169  0.3836 -0.2088  0.0263
 2991TIP3    H130388   5.997   0.054  14.259  1.2869  1.4911 -0.6510
 2991TIP3    H230389   6.046  -0.044  14.154  0.9361  0.2388  0.3356
 2992TIP3   OH230390   3.218   2.627   1.834 -0.7675 -0.6411  0.6076
 2992TIP3    H130391   3.146   2.611   1.773 -0.8795  1.9969 -0.1026
 2992TIP3    H230392   3.289   2.660   1.779 -0.1050 -0.3190  1.6369
 2993TIP3   OH230393   2.537   4.047  12.098 -0.3539 -0.3772  0.1830
 2993TIP3    H130394   2.487   4.059  12.179 -0.8530  2.6441 -0.4674
 2993TIP3    H230395   2.470   4.033  12.031 -0.2134  1.0728 -0.2844
 2994TIP3   OH230396   4.900   0.485   1.786  0.0689  0.6385 -0.5460
 2994TIP3    H130397   4.971   0.443   1.738  0.6453  0.7375  0.2002
 2994TIP3    H230398   4.935   0.572   1.808 -0.0671  0.4877  0.2951
 2995TIP3   OH230399   1.857   2.277   5.555  0.4755 -0.2329  0.0923
 2995TIP3    H130400   1.941   2.297   5.513 -0.1595 -0.9411 -1.6273
 2995TIP3    H230401   1.855   2.332   5.633  1.2748  1.9981 -1.3726
 2996TIP3   OH230402   2.463   0.479   2.384 -0.3671 -0.4147  0.6357
 2996TIP3    H130403   2.421   0.462   2.468 -1.3474  0.8934  0.4313
 2996TIP3    H230404   2.438   0.568   2.362 -0.3540 -0.8196 -1.1828
 2997TIP3   OH230405   6.231   0.674  12.927  0.0578 -0.5432 -0.2148
 2997TIP3    H130406   6.175   0.659  13.003  1.0177 -3.8198  0.0047
 2997TIP3    H230407   6.257   0.766  12.934  0.2583 -0.7410  3.5597
 2998TIP3   OH230408   6.198   4.326  12.246  0.3456 -0.1205 -0.4036
 2998TIP3    H130409   6.149   4.270  12.187 -0.6527  0.9731 -0.6600
 2998TIP3    H230410   6.135   4.393  12.273  1.4318  0.7533  0.0490
 2999TIP3   OH230411   4.015   5.914  12.670 -0.1874  0.2041 -0.2473
 2999TIP3    H130412   4.012   5.968  12.749  2.7789 -0.6299  0.5598
 2999TIP3    H230413   3.941   5.945  12.617 -0.4851  2.8578  1.5239
 3000TIP3   OH230414   6.569   6.553  12.605 -0.2818 -0.7897  0.2459
 3000TIP3    H130415   6.639   6.575  12.544 -0.6070  3.2618  1.0625
 3000TIP3    H230416   6.490   6.554  12.551 -0.4257  1.5648  0.4226
 3001TIP3   OH230417   5.788   4.400  15.692  0.0865  0.4621 -0.0835
 3001TIP3    H130418   5.749   4.320  15.658  0.2895  1.0477 -1.7841
 3001TIP3    H230419   5.875   4.375  15.721 -0.1421 -0.0830  0.1457
 3002TIP3   OH230420   6.243   4.793   2.611  0.3335 -0.3697 -0.2850
 3002TIP3    H130421   6.290   4.745   2.680  0.3675  1.9441  1.4090
 3002TIP3    H230422   6.154   4.800   2.644 -0.2246 -1.1191 -1.5584
 3003TIP3   OH230423   3.123   1.255   4.663  0.5670  0.1027  0.4009
 3003TIP3    H130424   3.077   1.337   4.683 -1.9844 -0.8198 -1.1525
 3003TIP3    H230425   3.176   1.276   4.587  1.0219  0.6425  0.8569
 3004TIP3   OH230426   1.353   2.561   5.105 -0.1862  0.0753 -0.1414
 3004TIP3    H130427   1.324   2.562   5.013 -0.7178  1.5657  0.0283
 3004TIP3    H230428   1.398   2.644   5.117 -2.6609  1.2348  1.7267
 3005TIP3   OH230429   1.945   3.202   2.537 -0.0432  0.2139 -0.0969
 3005TIP3    H130430   1.872   3.258   2.511  0.2397  0.0373 -1.3014
 3005TIP3    H230431   1.992   3.184   2.456  1.0052 -0.1612  0.5758
 3006TIP3   OH230432   4.137   6.246   1.717 -0.1679  0.6858  0.5820
 3006TIP3    H130433   4.099   6.215   1.799  0.0986  0.8111  0.7529
 3006TIP3    H230434   4.188   6.171   1.685  0.2603  0.8545  0.8617
 3007TIP3   OH230435   0.371   3.685  13.881 -0.0406  0.2129  0.0929
 3007TIP3    H130436   0.388   3.740  13.805  0.5451 -1.1491 -0.7940
 3007TIP3    H230437   0.312   3.737  13.935 -0.4718  1.2158 -1.2861
 3008TIP3   OH230438   0.371   5.444   4.690 -0.0068 -0.1733 -0.1084
 3008TIP3    H130439   0.376   5.539   4.683 -1.5738 -0.1049 -0.7246
 3008TIP3    H230440   0.320   5.429   4.770  0.6441 -0.5128  0.2478
 3009TIP3   OH230441   0.187   6.530  12.271 -0.4991  0.1067 -0.6801
 3009TIP3    H130442   0.120   6.465  12.254 -0.9911  0.0522  1.2009
 3009TIP3    H230443   0.268   6.480  12.280 -0.4484  0.0223 -1.5857
 3010TIP3   OH230444   1.737   0.954   3.781 -0.2227  0.3721  0.8061
 3010TIP3    H130445   1.791   0.976   3.857 -0.9371 -2.2893  2.2130
 3010TIP3    H230446   1.736   0.858   3.779 -3.3237  0.3004 -0.2740
 3011TIP3   OH230447   0.712   6.152   5.504  0.0645 -0.0829 -0.4040
 3011TIP3    H130448   0.705   6.211   5.429  0.4231 -1.7813 -1.8216
 3011TIP3    H230449   0.725   6.066   5.466 -0.2227 -1.0755  1.6199
 3012TIP3   OH230450   5.580   3.827   2.191  0.0391 -0.2107 -0.1032
 3012TIP3    H130451   5.536   3.852   2.110  1.5670 -0.6783 -1.1064
 3012TIP3    H230452   5.624   3.745   2.170 -2.2492 -2.2342  2.1784
 3013TIP3   OH230453   4.102   5.472  16.403 -0.1005  0.1984 -0.5081
 3013TIP3    H130454   4.186   5.437  16.372 -1.3538 -1.8075 -1.8652
 3013TIP3    H230455   4.042   5.398  16.398 -2.0401  1.6399  0.1963
 3014TIP3   OH230456   5.426   3.599  17.131  0.0340 -0.1829 -0.3360
 3014TIP3    H130457   5.408   3.505  17.139  2.4954 -0.5894  1.8447
 3014TIP3    H230458   5.394   3.635  17.214 -0.9144  0.9572 -1.1717
 3015TIP3   OH230459   3.046   1.959   2.658 -0.1739 -0.4370  0.1121
 3015TIP3    H130460   3.024   1.904   2.733 -1.5451 -1.1943 -0.8048
 3015TIP3    H230461   2.989   2.035   2.666 -0.2574 -0.4754 -0.0905
 3016TIP3   OH230462   0.309   5.444   2.388  0.7938  0.7297 -0.1623
 3016TIP3    H130463   0.215   5.427   2.392  0.6612  0.9959 -1.8597
 3016TIP3    H230464   0.340   5.388   2.317  1.6835  1.7044 -0.5524
 3017TIP3   OH230465   2.797   0.938  12.079  0.5084  0.3358 -0.1164
 3017TIP3    H130466   2.861   0.867  12.090  0.9738  0.6518 -0.7284
 3017TIP3    H230467   2.817   0.998  12.151  1.1931  0.6487 -0.5606
 3018TIP3   OH230468   1.357   6.637  11.713  0.0815 -0.0817  0.7037
 3018TIP3    H130469   1.442   6.666  11.747 -0.1483 -0.4475  1.5999
 3018TIP3    H230470   1.369   6.544  11.695  0.1365  0.0612 -0.0351
 3019TIP3   OH230471   0.984   5.574   4.129 -0.0640 -0.4998 -0.2585
 3019TIP3    H130472   1.041   5.651   4.126 -0.3421 -0.2632  0.4041
 3019TIP3    H230473   1.039   5.502   4.097  0.2878 -0.0828 -0.5995
 3020TIP3   OH230474   4.576   2.850  13.310  0.0135  0.0725  0.1529
 3020TIP3    H130475   4.632   2.811  13.243 -1.3588  0.5574 -1.3401
 3020TIP3    H230476   4.489   2.815  13.293 -0.2046 -0.7164  2.4650
 3021TIP3   OH230477   0.056   4.845  12.524 -0.4104  0.3994  0.0065
 3021TIP3    H130478   0.112   4.889  12.460  2.4954 -1.1326  1.3281
 3021TIP3    H230479   0.029   4.764  12.481  0.1875  0.1339  0.1258
 3022TIP3   OH230480   3.519   0.148  15.498  0.0233 -0.3460 -0.4527
 3022TIP3    H130481   3.572   0.107  15.431  0.4635 -0.5505  0.0182
 3022TIP3    H230482   3.440   0.094  15.503  0.2940 -0.7294 -0.3207
 3023TIP3   OH230483   0.319   2.633  15.512 -0.1613  0.0417  0.1322
 3023TIP3    H130484   0.410   2.652  15.492 -0.1893 -1.0395 -1.1697
 3023TIP3    H230485   0.272   2.655  15.432 -0.9480 -0.1135  0.5398
 3024TIP3   OH230486   4.229   4.429  16.423 -0.2350 -0.1493 -0.0233
 3024TIP3    H130487   4.135   4.423  16.411 -0.1677  1.1486 -1.5296
 3024TIP3    H230488   4.243   4.507  16.477  0.0513  1.0649 -1.7833
 3025TIP3   OH230489   0.612   6.309   2.171 -1.0731  0.8320  0.0695
 3025TIP3    H130490   0.575   6.226   2.139 -0.2286  0.3195  0.3890
 3025TIP3    H230491   0.691   6.283   2.218 -0.8328  1.8227  0.2278
 3026TIP3   OH230492   3.543   4.160   2.078  0.4360  0.3486 -0.2521
 3026TIP3    H130493   3.551   4.125   2.167  0.1193 -0.9939 -0.7251
 3026TIP3    H230494   3.623   4.131   2.034  1.1763  2.0404 -0.1075
 3027TIP3   OH230495   4.028   2.049  12.829  0.4736  0.3792 -0.6304
 3027TIP3    H130496   4.120   2.031  12.847 -0.1009 -1.4877  0.7578
 3027TIP3    H230497   3.984   2.035  12.913 -1.1546  0.7855 -1.3673
 3028TIP3   OH230498   0.677   3.693  14.570 -0.0751 -0.3275 -0.1362
 3028TIP3    H130499   0.733   3.623  14.602 -0.9804 -0.2225  1.7857
 3028TIP3    H230500   0.697   3.698  14.476  2.2503 -1.0662  0.2443
 3029TIP3   OH230501   2.596   6.552  11.517 -0.6623 -0.7020 -0.8421
 3029TIP3    H130502   2.658   6.484  11.541 -0.9870 -0.9222 -0.6076
 3029TIP3    H230503   2.559   6.522  11.434 -0.9633 -0.9283 -0.6310
 3030TIP3   OH230504   5.184   2.976  16.601 -0.0478  0.0756  0.2574
 3030TIP3    H130505   5.269   2.993  16.561 -0.4960  0.5791 -0.5049
 3030TIP3    H230506   5.169   3.052  16.658  0.6396 -0.6926  1.5124
 3031TIP3   OH230507   6.168   5.378  13.710 -0.5175  0.3056  0.1179
 3031TIP3    H130508   6.087   5.329  13.699 -0.9870  1.4449 -2.0300
 3031TIP3    H230509   6.150   5.440  13.781 -1.3001  0.1625  0.0444
 3032TIP3   OH230510   6.364   6.365   5.305  0.2785  0.1315  0.1393
 3032TIP3    H130511   6.268   6.362   5.302  0.3188 -0.9922 -1.4756
 3032TIP3    H230512   6.385   6.458   5.309 -0.8854  0.4092  0.1036
 3033TIP3   OH230513   0.771   6.082  16.776  0.1249 -0.1940  0.6252
 3033TIP3    H130514   0.855   6.113  16.741 -0.4106  0.2559 -0.3024
 3033TIP3    H230515   0.732   6.159  16.815 -0.2480 -0.2005  0.2654
 3034TIP3   OH230516   6.224   3.706   0.650 -0.3462 -0.3263  0.4835
 3034TIP3    H130517   6.227   3.761   0.728  0.3793  1.1166 -0.5120
 3034TIP3    H230518   6.155   3.744   0.596  0.2134 -0.3335 -0.2548
 3035TIP3   OH230519   3.351   0.774   0.221  0.7874  0.2078 -0.3997
 3035TIP3    H130520   3.435   0.736   0.194  2.9928  3.0683  1.7479
 3035TIP3    H230521   3.358   0.867   0.198 -0.8359  0.9744  1.8224
 3036TIP3   OH230522   0.021   5.944   4.471  0.3552  0.1125 -0.1220
 3036TIP3    H130523  -0.006   6.003   4.542  0.1182  0.0591 -0.1656
 3036TIP3    H230524   0.037   6.002   4.396 -1.3080  0.0185 -0.6011
 3037TIP3   OH230525   3.201   5.001   1.160  0.8045  0.4971 -0.2380
 3037TIP3    H130526   3.284   4.960   1.182  1.9951  3.2678  0.9274
 3037TIP3    H230527   3.225   5.079   1.110 -0.8935  2.2707  1.5228
 3038TIP3   OH230528   2.156   2.495  14.754 -0.2426 -0.3116  0.4160
 3038TIP3    H130529   2.203   2.577  14.766 -0.2784 -0.3288  0.6760
 3038TIP3    H230530   2.069   2.512  14.789  0.1473 -0.8696  1.7182
 3039TIP3   OH230531   0.974   6.645  13.314  0.1536 -0.2089  0.0267
 3039TIP3    H130532   0.961   6.573  13.375  0.9314  1.6869  2.5746
 3039TIP3    H230533   0.886   6.665  13.282 -0.1756 -1.6778 -0.0694
 3040TIP3   OH230534   3.447   3.633   5.531  0.2541 -0.1832  0.2840
 3040TIP3    H130535   3.361   3.665   5.504  0.9916  3.5697  1.7449
 3040TIP3    H230536   3.505   3.655   5.458  0.4950  0.3429  0.6266
 3041TIP3   OH230537   0.391   3.238  14.152  0.3448 -0.3524  0.6115
 3041TIP3    H130538   0.434   3.322  14.133 -1.3654  0.5153  0.4195
 3041TIP3    H230539   0.370   3.202  14.066  1.1383 -1.0375  0.6928
 3042TIP3   OH230540   2.512   2.293   3.836  0.6522 -0.0669  0.2035
 3042TIP3    H130541   2.594   2.315   3.880  0.5830  0.7231 -0.0499
 3042TIP3    H230542   2.514   2.343   3.754  0.9635 -1.8117 -0.9131
 3043TIP3   OH230543   1.307   0.292  16.304  0.2524  0.1065  0.5421
 3043TIP3    H130544   1.212   0.278  16.312  0.3020 -0.0015  1.0095
 3043TIP3    H230545   1.316   0.363  16.242 -0.1491  0.2502  0.6461
 3044TIP3   OH230546   0.294   6.620  15.956 -0.2941 -0.0627 -0.1487
 3044TIP3    H130547   0.346   6.552  15.913 -0.2371 -0.5078  0.5955
 3044TIP3    H230548   0.349   6.650  16.028 -0.3833  0.6734 -0.3778
 3045TIP3   OH230549   2.757   0.703   3.698 -0.2283 -0.3571  0.1219
 3045TIP3    H130550   2.824   0.645   3.663  1.0201  0.5619  0.9023
 3045TIP3    H230551   2.718   0.654   3.771  0.5335 -0.3899  0.5186
 3046TIP3   OH230552   3.941   3.870  14.385 -0.4415  0.3751 -0.2076
 3046TIP3    H130553   3.959   3.917  14.303  0.4393  2.2273  0.9898
 3046TIP3    H230554   3.846   3.855  14.384 -0.3218 -0.5919 -2.0092
 3047TIP3   OH230555   1.708   0.418   0.084 -0.3677 -0.2423 -0.7194
 3047TIP3    H130556   1.657   0.483   0.036  0.5789 -0.4797 -2.1059
 3047TIP3    H230557   1.666   0.413   0.170 -1.5280  0.8998 -1.1898
 3048TIP3   OH230558   3.145   6.354  10.925  0.4529 -0.4156 -0.3168
 3048TIP3    H130559   3.061   6.363  10.970  1.1830 -0.2367  1.0843
 3048TIP3    H230560   3.185   6.441  10.931  0.7687 -0.5113 -0.9204
 3049TIP3   OH230561   3.347   3.079  11.985  0.0932 -0.0479 -0.1625
 3049TIP3    H130562   3.356   2.988  11.958 -1.2270 -0.1515 -0.3255
 3049TIP3    H230563   3.274   3.112  11.933 -3.1907 -0.5001  3.6198
 3050TIP3   OH230564   5.469   1.063  15.747 -0.6326 -0.0392  0.3556
 3050TIP3    H130565   5.504   1.152  15.759  1.5737 -0.9226  0.9197
 3050TIP3    H230566   5.444   1.036  15.835 -0.8360 -0.1567  0.2613
 3051TIP3   OH230567   3.888   0.242  11.268 -0.0566  0.0154 -0.2264
 3051TIP3    H130568   3.893   0.190  11.188 -0.5556 -1.1610  0.4683
 3051TIP3    H230569   3.819   0.199  11.320  0.7737  0.2670  1.1420
 3052TIP3   OH230570   4.138   0.224   5.568  0.2927  0.3538 -0.3040
 3052TIP3    H130571   4.089   0.280   5.508  0.0632 -0.2072 -0.6494
 3052TIP3    H230572   4.180   0.159   5.511 -0.1853 -0.3766  0.1658
 3053TIP3   OH230573   4.544   6.734   5.338 -0.5837  0.0168  0.7400
 3053TIP3    H130574   4.502   6.649   5.352 -0.6282  0.2808  2.3832
 3053TIP3    H230575   4.635   6.720   5.364 -0.4553  0.3267  0.4673
 3054TIP3   OH230576   5.780   3.054   1.874 -0.0975  0.4566  0.1435
 3054TIP3    H130577   5.836   3.021   1.944 -1.7052  0.4536  1.4851
 3054TIP3    H230578   5.756   3.142   1.902  1.0713  1.3742 -1.5592
 3055TIP3   OH230579   1.776   6.631   0.827 -0.0901  0.0356 -0.0549
 3055TIP3    H130580   1.792   6.602   0.917 -0.2964 -0.2100 -0.0953
 3055TIP3    H230581   1.791   6.553   0.773 -3.8802 -1.0554  0.1214
 3056TIP3   OH230582   0.442   5.079  13.008 -0.0656  0.4922  0.1927
 3056TIP3    H130583   0.511   5.066  13.074 -2.6107  1.4833  3.3016
 3056TIP3    H230584   0.454   5.170  12.980  0.9679  0.0981 -0.7134
 3057TIP3   OH230585   1.684   1.394   1.702  0.0118  0.4980 -0.1656
 3057TIP3    H130586   1.724   1.313   1.673  0.8844  0.7321  0.3568
 3057TIP3    H230587   1.650   1.434   1.622  2.3533  1.1363 -0.9054
 3058TIP3   OH230588   4.978   6.553  11.678  0.0906  0.2341 -0.4185
 3058TIP3    H130589   5.068   6.526  11.696  1.2428  2.6253 -2.0340
 3058TIP3    H230590   4.926   6.511  11.747  2.4467 -1.0684  0.6880
 3059TIP3   OH230591   4.834   6.007   1.052  0.2325  0.4205 -0.3548
 3059TIP3    H130592   4.805   6.098   1.063  2.5634  1.1400  0.4064
 3059TIP3    H230593   4.888   6.009   0.973  1.5778  0.0804  0.5238
 3060TIP3   OH230594   3.321   6.390  14.505  0.2367 -0.4003 -0.6629
 3060TIP3    H130595   3.386   6.460  14.496  0.3771 -0.3670  0.4329
 3060TIP3    H230596   3.265   6.399  14.428  1.5456 -0.4586 -1.6473
 3061TIP3   OH230597   1.901   1.421   1.506 -0.8333 -0.4130  0.6655
 3061TIP3    H130598   1.902   1.476   1.584  0.5376  0.1046  0.3082
 3061TIP3    H230599   1.951   1.343   1.531 -1.1973 -0.6775  0.5861
 3062TIP3   OH230600   6.318   3.688  14.442 -0.1545  0.5461  0.4985
 3062TIP3    H130601   6.254   3.617  14.451  0.7558 -0.6986 -2.0377
 3062TIP3    H230602   6.308   3.719  14.352 -1.2849  4.5288  1.7690
 3063TIP3   OH230603   5.586   6.578  15.702  0.2493  0.4720  0.7350
 3063TIP3    H130604   5.621   6.587  15.614  0.2848 -0.4422  0.6523
 3063TIP3    H230605   5.597   6.665  15.741 -1.2330  1.3403 -0.6679
 3064TIP3   OH230606   6.231   5.568  16.210 -0.4410 -0.1581  0.3017
 3064TIP3    H130607   6.195   5.511  16.278  1.4059 -0.3942  1.1260
 3064TIP3    H230608   6.178   5.647  16.216 -0.4946 -0.2754  1.8556
 3065TIP3   OH230609   0.993   4.403  16.083 -0.0374 -0.1696  0.6506
 3065TIP3    H130610   0.997   4.442  15.996 -0.5917  0.6264  0.9699
 3065TIP3    H230611   0.914   4.348  16.080  0.1869 -0.4855  0.5159
 3066TIP3   OH230612   0.092   2.341   3.337  0.2957 -0.5769  0.1139
 3066TIP3    H130613   0.131   2.339   3.250  1.0520 -1.3459  0.4524
 3066TIP3    H230614   0.156   2.296   3.393 -0.2021 -0.1429  1.0530
 3067TIP3   OH230615   5.952   6.041  14.257 -0.2150 -0.5454  0.0434
 3067TIP3    H130616   5.880   6.057  14.195  1.5655  2.0739 -1.5329
 3067TIP3    H230617   5.990   5.957  14.229 -1.2718 -0.8638 -0.4906
 3068TIP3   OH230618   6.346   1.699   4.487  0.4899 -0.8133 -0.0111
 3068TIP3    H130619   6.319   1.747   4.565 -1.7260  0.3553 -1.3634
 3068TIP3    H230620   6.430   1.737   4.463 -0.4924  1.4415 -0.1681
 3069TIP3   OH230621   4.396   3.534  16.702  0.1179 -0.1994 -0.5311
 3069TIP3    H130622   4.366   3.611  16.653 -0.9124 -0.2026  0.0651
 3069TIP3    H230623   4.483   3.558  16.735 -0.9241  1.4364  1.1758
 3070TIP3   OH230624   1.977   3.853  13.527 -0.1926 -0.3888  0.0624
 3070TIP3    H130625   1.897   3.890  13.564  0.0291 -1.5407  1.8520
 3070TIP3    H230626   2.048   3.890  13.580  0.7524  2.0693 -2.6496
 3071TIP3   OH230627   6.163   4.898  16.133  0.0091  0.3780  0.2032
 3071TIP3    H130628   6.258   4.883  16.129  0.0886  0.6796  0.9103
 3071TIP3    H230629   6.126   4.828  16.079  0.5467 -0.6642  1.1468
 3072TIP3   OH230630   4.678   1.421   3.752 -0.2288  0.0501 -0.6350
 3072TIP3    H130631   4.760   1.408   3.800 -0.0559 -2.0310 -1.3940
 3072TIP3    H230632   4.695   1.497   3.697  0.7454  0.4024  0.1195
 3073TIP3   OH230633   1.967   1.712   3.566 -0.6731  0.6016 -0.6541
 3073TIP3    H130634   2.016   1.794   3.572 -1.0802  0.8655 -0.9134
 3073TIP3    H230635   2.033   1.644   3.579 -0.1951  0.9430 -1.2403
 3074TIP3   OH230636   6.094   6.567   4.051 -0.3488  0.1859  0.2751
 3074TIP3    H130637   6.176   6.585   4.005  0.1230  0.5763  1.2505
 3074TIP3    H230638   6.030   6.625   4.009 -0.0978 -0.0226 -0.3995
 3075TIP3   OH230639   3.364   4.598   4.938  0.7621  0.4078  0.0912
 3075TIP3    H130640   3.395   4.640   5.018  0.5763 -0.7568  0.7830
 3075TIP3    H230641   3.270   4.589   4.951  0.8587 -0.5965  0.1262
 3076TIP3   OH230642   6.533   4.591   2.632 -0.3438 -0.3612 -0.6093
 3076TIP3    H130643   6.539   4.682   2.603  1.3192 -0.8636 -2.0412
 3076TIP3    H230644   6.469   4.551   2.574 -0.8336 -0.1971 -0.1906
 3077TIP3   OH230645   4.518   3.347  13.303  0.2940  0.0699 -0.3715
 3077TIP3    H130646   4.465   3.328  13.381  0.6154  0.0093 -0.1659
 3077TIP3    H230647   4.607   3.320  13.327  0.2889 -0.5001 -0.9638
 3078TIP3   OH230648   2.937   0.869   1.733 -0.4587  0.0550  0.5753
 3078TIP3    H130649   3.011   0.846   1.678 -0.1968  1.2024  0.4235
 3078TIP3    H230650   2.911   0.786   1.774  0.3769 -0.5077  0.0047
 3079TIP3   OH230651   6.173   4.650  15.587 -0.2413  0.1179  0.7086
 3079TIP3    H130652   6.102   4.714  15.592  0.0385  0.4391  0.5768
 3079TIP3    H230653   6.145   4.588  15.519 -1.7570 -1.4429  2.6237
 3080TIP3   OH230654   3.196   2.732  15.111  0.3017  0.2902  0.2399
 3080TIP3    H130655   3.278   2.710  15.067  0.3820  1.6515 -0.3383
 3080TIP3    H230656   3.206   2.696  15.199  1.1150 -0.4056 -0.1152
 3081TIP3   OH230657   4.914   5.945   3.705 -0.1104  0.0262 -0.1292
 3081TIP3    H130658   4.940   6.031   3.672  0.0002 -0.4053 -1.2215
 3081TIP3    H230659   4.821   5.938   3.684 -0.2633  0.1059  0.4920
 3082TIP3   OH230660   2.545   5.946  14.482  0.0248 -0.0938 -0.4046
 3082TIP3    H130661   2.611   5.917  14.545  1.4291  0.1687 -1.6914
 3082TIP3    H230662   2.592   6.004  14.423 -1.7585  1.4690 -0.3997
 3083TIP3   OH230663   3.909   1.229  14.767 -0.5351 -0.7470  0.5443
 3083TIP3    H130664   3.876   1.172  14.697 -1.8091 -1.3336  1.5964
 3083TIP3    H230665   3.847   1.301  14.770  0.9443  0.6490 -0.6266
 3084TIP3   OH230666   3.521   4.633  13.181  0.6760  0.1941 -0.0138
 3084TIP3    H130667   3.508   4.676  13.266  1.4312  0.2081  0.1026
 3084TIP3    H230668   3.529   4.540  13.202  1.1075  0.2224 -0.0344
 3085TIP3   OH230669   3.149   3.599  10.783 -0.1961  0.4620 -0.2784
 3085TIP3    H130670   3.099   3.590  10.865 -0.0548  1.6231 -0.0497
 3085TIP3    H230671   3.139   3.691  10.759 -0.1458  0.1561 -1.5226
 3086TIP3   OH230672   6.254   5.124  10.699 -0.0838 -0.0217 -0.1883
 3086TIP3    H130673   6.175   5.071  10.710 -0.6320  0.6081 -0.9419
 3086TIP3    H230674   6.272   5.159  10.786 -1.7069  1.2797 -0.3297
 3087TIP3   OH230675   2.371   1.224   1.768  0.5394 -0.5059  0.5018
 3087TIP3    H130676   2.378   1.131   1.787 -0.0792 -0.5188  0.6937
 3087TIP3    H230677   2.277   1.243   1.773  0.2935 -0.4609 -2.3650
 3088TIP3   OH230678   3.395   0.585   0.955  0.3139 -0.6002  0.1958
 3088TIP3    H130679   3.457   0.655   0.936 -0.0436 -0.5586 -0.8513
 3088TIP3    H230680   3.313   0.630   0.976  0.0655 -0.6953 -0.5438
 3089TIP3   OH230681   0.490   3.104  13.869  0.0492  0.2594  0.0321
 3089TIP3    H130682   0.404   3.062  13.862  1.0766 -2.3517  1.5376
 3089TIP3    H230683   0.552   3.036  13.845  1.8165  1.0402  2.0292
 3090TIP3   OH230684   4.790   5.401   3.237  0.0710  0.6385  0.1786
 3090TIP3    H130685   4.872   5.364   3.268  0.3417  1.4033  0.3889
 3090TIP3    H230686   4.757   5.453   3.310 -0.0289  1.2579 -0.2920
 3091TIP3   OH230687   4.102   3.030   1.686 -0.4458 -0.0645 -0.3686
 3091TIP3    H130688   4.181   2.982   1.708 -1.0175 -0.9268 -0.1481
 3091TIP3    H230689   4.080   3.078   1.767 -0.7549 -0.6983 -0.0686
 3092TIP3   OH230690   3.888   6.513   0.401 -0.5382 -0.2054  0.0160
 3092TIP3    H130691   3.870   6.602   0.369  1.5917  0.0165 -0.7525
 3092TIP3    H230692   3.938   6.527   0.482  1.4143 -0.5975 -1.0529
 3093TIP3   OH230693   6.667   3.726   0.757  0.2851 -0.1011  0.3262
 3093TIP3    H130694   6.698   3.794   0.697  0.4378 -2.2518 -2.2248
 3093TIP3    H230695   6.602   3.678   0.707 -0.0902 -1.6271  2.1595
 3094TIP3   OH230696   2.849   4.337  15.536  0.3768  0.7270  0.2337
 3094TIP3    H130697   2.898   4.347  15.617  0.7315  1.3282 -0.0542
 3094TIP3    H230698   2.873   4.413  15.483  0.3287  0.2211 -0.5333
 3095TIP3   OH230699   6.186   2.511   2.201  0.3702  0.0650 -0.3401
 3095TIP3    H130700   6.144   2.453   2.265  1.5269 -1.2972 -0.7514
 3095TIP3    H230701   6.237   2.452   2.145 -1.6110  1.0480 -3.4011
 3096TIP3   OH230702   6.180   2.200  17.077 -0.6687  0.1800  0.1319
 3096TIP3    H130703   6.181   2.121  17.131  0.9085 -0.2173 -0.4278
 3096TIP3    H230704   6.123   2.178  17.003 -0.2233 -0.4477 -0.0283
 3097TIP3   OH230705   5.046   4.280  14.418 -0.0093 -0.2525  0.0043
 3097TIP3    H130706   5.030   4.242  14.504  0.0992 -0.0630  0.1085
 3097TIP3    H230707   5.138   4.305  14.419 -0.0269 -0.1767 -0.1384
 3098TIP3   OH230708   0.093   0.128   1.508  0.3516 -0.0954  0.5007
 3098TIP3    H130709   0.037   0.169   1.442 -0.4636 -1.6027  0.1979
 3098TIP3    H230710   0.032   0.100   1.577  1.1023  0.7820  1.5461
 3099TIP3   OH230711   1.811   1.386  14.938 -0.3292 -0.1038  0.1090
 3099TIP3    H130712   1.758   1.463  14.956  0.2671  0.0222  1.4459
 3099TIP3    H230713   1.869   1.378  15.014 -0.8111 -2.2234  0.3294
 3100TIP3   OH230714   5.327   6.497   4.533 -0.0202  0.5722  0.2261
 3100TIP3    H130715   5.385   6.435   4.488 -0.0400 -0.3253  1.4003
 3100TIP3    H230716   5.300   6.451   4.613 -0.6192  1.8223  0.7638
 3101TIP3   OH230717   4.319   4.633  15.653  0.0098 -0.3372 -0.7569
 3101TIP3    H130718   4.285   4.574  15.720  1.6789 -0.4115  0.0705
 3101TIP3    H230719   4.366   4.701  15.701  1.1486 -0.3328 -1.8084
 3102TIP3   OH230720   1.573   5.194   3.920 -0.0810 -0.0534  0.0273
 3102TIP3    H130721   1.651   5.179   3.867  0.2437  0.5884  0.3044
 3102TIP3    H230722   1.551   5.286   3.905  0.5103  0.3943  1.5992
 3103TIP3   OH230723   1.027   5.445  15.622 -0.0789  0.1702  0.4384
 3103TIP3    H130724   1.023   5.368  15.679  1.6488 -0.4304 -0.1994
 3103TIP3    H230725   1.085   5.506  15.668 -2.0909  1.5182  1.3514
 3104TIP3   OH230726   3.741   3.024  12.470  0.0994 -0.1727  0.5250
 3104TIP3    H130727   3.693   3.039  12.551  1.1359  2.1353  0.7869
 3104TIP3    H230728   3.766   2.932  12.473 -0.4986 -0.3039  2.4928
 3105TIP3   OH230729   1.548   4.645   0.840 -0.3890 -0.6505  0.2003
 3105TIP3    H130730   1.601   4.724   0.849 -1.2067 -0.0594 -0.0864
 3105TIP3    H230731   1.473   4.672   0.788 -0.9650 -1.4805  0.5813
 3106TIP3   OH230732   3.222   1.619   5.900  0.5514  0.9665  0.5035
 3106TIP3    H130733   3.245   1.532   5.934 -0.9829  0.8180  1.2540
 3106TIP3    H230734   3.306   1.665   5.894  1.1619  0.1608  2.1915
 3107TIP3   OH230735   3.422   4.818  14.931 -0.4993 -0.4156 -0.5553
 3107TIP3    H130736   3.425   4.821  14.835 -1.3366  0.2236 -0.5730
 3107TIP3    H230737   3.486   4.751  14.955 -1.0272 -1.3252 -1.6116
 3108TIP3   OH230738   4.056   1.641   0.612 -0.0917 -0.3273 -0.2604
 3108TIP3    H130739   4.090   1.710   0.669 -1.9081  0.0526  0.4297
 3108TIP3    H230740   4.080   1.669   0.524 -0.6557  1.1193  0.0210
 3109TIP3   OH230741   1.725   4.224   4.618 -0.1094  0.7910 -0.4576
 3109TIP3    H130742   1.762   4.141   4.647 -0.4267  0.1911 -1.7224
 3109TIP3    H230743   1.798   4.286   4.621  0.0517  0.5637  0.7985
 3110TIP3   OH230744   6.215   0.648  13.816  0.7838  0.5161  0.2712
 3110TIP3    H130745   6.204   0.554  13.829  1.4080  0.0477 -2.1059
 3110TIP3    H230746   6.275   0.655  13.742  0.2087  2.7921 -0.0512
 3111TIP3   OH230747   3.723   6.772   4.186 -0.6741  0.2031  0.5571
 3111TIP3    H130748   3.740   6.682   4.215 -2.1066 -0.1976  0.2148
 3111TIP3    H230749   3.631   6.788   4.209 -1.4965  0.3510 -2.4988
 3112TIP3   OH230750   1.795   6.575  10.302  0.6230 -0.1681 -0.3157
 3112TIP3    H130751   1.731   6.521  10.348  0.3937  0.0033 -0.4343
 3112TIP3    H230752   1.774   6.665  10.327  0.8355 -0.1134 -0.3305
 3113TIP3   OH230753   0.865   3.907   0.601 -0.0164 -0.2801 -0.3661
 3113TIP3    H130754   0.916   3.987   0.594 -0.5743  0.0940 -0.2754
 3113TIP3    H230755   0.890   3.870   0.685 -0.0148 -0.0158 -0.2489
 3114TIP3   OH230756   4.791   5.443  15.273 -0.2853  0.2045 -0.1446
 3114TIP3    H130757   4.730   5.430  15.200 -1.1137  1.1291  0.3511
 3114TIP3    H230758   4.848   5.514  15.243 -1.5662  1.6287  0.6278
 3115TIP3   OH230759   0.357   2.629   0.662  0.4620 -0.3979  0.4007
 3115TIP3    H130760   0.316   2.709   0.695  0.8191  0.6612 -1.5885
 3115TIP3    H230761   0.298   2.597   0.595  2.0697  0.3108 -1.4465
 3116TIP3   OH230762   3.411   4.604  11.506 -0.4092  0.2146  0.1868
 3116TIP3    H130763   3.388   4.515  11.535  0.7650  0.5277  2.1886
 3116TIP3    H230764   3.506   4.606  11.507 -0.3592  1.0269 -1.5220
 3117TIP3   OH230765   0.612   0.001   2.107  0.0943 -0.5875  0.5811
 3117TIP3    H130766   0.626  -0.031   2.017  3.4759 -3.4490  1.8570
 3117TIP3    H230767   0.609   0.096   2.099 -0.6784 -0.7819 -2.6349
 3118TIP3   OH230768   1.579   6.509  12.025  0.0254 -0.6193  0.5885
 3118TIP3    H130769   1.603   6.418  12.045  0.6050 -0.6310 -0.1129
 3118TIP3    H230770   1.487   6.515  12.048 -0.4412 -1.8272 -0.7910
 3119TIP3   OH230771   3.878   2.052  11.017 -0.1651 -0.7599 -0.2946
 3119TIP3    H130772   3.973   2.061  11.026 -0.4878  2.7327  1.7215
 3119TIP3    H230773   3.852   2.123  10.958 -1.5864 -1.0529 -0.0717
 3120TIP3   OH230774   2.048   5.680  10.551 -0.6188 -0.0025 -0.1396
 3120TIP3    H130775   2.068   5.637  10.468 -0.4894  0.7065 -0.4852
 3120TIP3    H230776   1.965   5.642  10.578 -1.4766  0.8774 -1.4006
 3121TIP3   OH230777   4.638   0.362  15.052 -0.0513 -0.0281 -0.0091
 3121TIP3    H130778   4.611   0.442  15.098 -3.7252 -1.3672  0.5417
 3121TIP3    H230779   4.664   0.392  14.965  0.1494  1.8779  0.6544
 3122TIP3   OH230780   4.802   0.563  14.442  0.5162 -0.2583 -0.0616
 3122TIP3    H130781   4.713   0.587  14.467  0.8873  0.9613  0.1444
 3122TIP3    H230782   4.857   0.633  14.479  1.7321 -1.7759  1.1563
 3123TIP3   OH230783   5.767   4.364  10.906  0.3208  0.4127 -0.2460
 3123TIP3    H130784   5.754   4.359  10.811  1.7246  0.6298 -0.4665
 3123TIP3    H230785   5.701   4.305  10.942  0.1370 -0.1043 -1.3751
 3124TIP3   OH230786   4.358   2.145   4.719  0.2599  0.4226 -0.0605
 3124TIP3    H130787   4.427   2.211   4.722  0.1668  0.5637 -0.8696
 3124TIP3    H230788   4.375   2.088   4.794  1.2066  0.5060 -0.2093
 3125TIP3   OH230789   3.849   4.968   3.421  0.1917  0.2431  0.4057
 3125TIP3    H130790   3.824   4.936   3.335  0.7108 -0.8582  0.6352
 3125TIP3    H230791   3.768   4.964   3.473 -0.0597  0.6539  0.0475
 3126TIP3   OH230792   4.340   6.777   0.680 -0.1102 -0.3390  0.0002
 3126TIP3    H130793   4.400   6.819   0.741 -1.0613 -1.0592  1.5009
 3126TIP3    H230794   4.269   6.841   0.668 -1.4715 -1.3070  2.1508
 3127TIP3   OH230795   5.632   1.501   4.363 -0.1221  0.4448  0.2575
 3127TIP3    H130796   5.682   1.579   4.340  0.9278 -0.6437 -1.3147
 3127TIP3    H230797   5.692   1.450   4.418 -0.3144  0.1300  0.1732
 3128TIP3   OH230798   0.609   4.480  16.231 -0.3492 -0.0872 -0.4419
 3128TIP3    H130799   0.605   4.384  16.232 -0.0469 -0.1032  0.0247
 3128TIP3    H230800   0.568   4.506  16.149 -0.8494 -0.5983 -0.3554
 3129TIP3   OH230801   4.467   2.101   2.303 -0.0511 -0.3155  0.2466
 3129TIP3    H130802   4.468   2.082   2.396 -0.6962 -3.8442 -0.3374
 3129TIP3    H230803   4.374   2.094   2.278 -0.0762  1.8514 -0.5228
 3130TIP3   OH230804   5.272   3.743  14.478  0.4133  0.4098  0.1027
 3130TIP3    H130805   5.241   3.669  14.427  1.2898  0.8211 -1.0757
 3130TIP3    H230806   5.203   3.759  14.542 -0.7637 -0.0516 -1.0178
 3131TIP3   OH230807   4.420   0.851   2.866  0.1805  0.2617 -0.1103
 3131TIP3    H130808   4.371   0.929   2.842  1.1531  0.6034 -1.0883
 3131TIP3    H230809   4.467   0.876   2.946  1.8327  1.3112 -1.3473
 3132TIP3   OH230810   3.738   0.503   3.673 -0.0805  0.2642 -0.5491
 3132TIP3    H130811   3.697   0.537   3.752 -1.3393 -3.4034  0.5713
 3132TIP3    H230812   3.721   0.569   3.606 -2.8388  1.5034  1.2224
 3133TIP3   OH230813   3.463   4.120  16.406 -0.1012  0.3061  0.1410
 3133TIP3    H130814   3.419   4.084  16.329  0.2042  1.7221 -0.7386
 3133TIP3    H230815   3.392   4.150  16.463 -0.3413 -1.1945  0.6660
 3134TIP3   OH230816   1.612   5.102   1.113  0.1389 -0.1679 -0.2420
 3134TIP3    H130817   1.543   5.037   1.101 -0.5802  0.8716 -2.0466
 3134TIP3    H230818   1.680   5.077   1.051 -0.7330  1.4950 -1.9785
 3135TIP3   OH230819   6.059   5.622   1.516  0.0202 -0.4090  0.3121
 3135TIP3    H130820   5.979   5.663   1.549 -1.9923 -3.0351 -0.9804
 3135TIP3    H230821   6.045   5.529   1.529  1.7867 -1.1173 -2.2754
 3136TIP3   OH230822   0.017   4.827   0.105  0.1672  0.0174  0.3363
 3136TIP3    H130823   0.071   4.801   0.030 -0.8294  2.3665 -1.3388
 3136TIP3    H230824   0.074   4.881   0.159  1.5820 -3.4458  2.6696
 3137TIP3   OH230825   5.275   3.115  13.147  0.0714  0.3024  0.2048
 3137TIP3    H130826   5.195   3.066  13.128 -0.3339  0.7917  0.6263
 3137TIP3    H230827   5.345   3.049  13.142 -0.3088 -0.0580 -0.4984
 3138TIP3   OH230828   6.481   5.141  11.484 -0.2446 -0.2493 -0.0416
 3138TIP3    H130829   6.549   5.074  11.476  0.9710  0.7820  1.1673
 3138TIP3    H230830   6.403   5.092  11.510  0.6169 -1.2302  0.8538
 3139TIP3   OH230831   5.724   1.021  15.119 -0.0776 -0.4268 -0.4119
 3139TIP3    H130832   5.670   1.069  15.057 -1.2681 -1.0880  0.0715
 3139TIP3    H230833   5.751   0.942  15.071 -0.7240 -0.7785 -0.2061
 3140TIP3   OH230834   4.993   6.362   5.367 -0.2732  0.1195 -0.4637
 3140TIP3    H130835   4.950   6.300   5.308  0.7039 -0.5824 -0.4713
 3140TIP3    H230836   5.080   6.324   5.382  0.0920  1.1353  0.1005
 3141TIP3   OH230837   5.650   5.388   0.044 -0.2474  0.2317 -0.3245
 3141TIP3    H130838   5.654   5.317   0.108  4.9908  0.4573  0.0591
 3141TIP3    H230839   5.613   5.462   0.092 -0.8499 -0.8401  0.9277
 3142TIP3   OH230840   4.245   3.901  13.578  0.1753  0.2608 -0.1270
 3142TIP3    H130841   4.255   3.910  13.673 -0.2156  0.9759 -0.1491
 3142TIP3    H230842   4.244   3.806  13.564  1.8778  0.1316  0.3916
 3143TIP3   OH230843   1.202   6.533   4.942 -0.0599 -0.0550 -0.3227
 3143TIP3    H130844   1.142   6.523   5.016  0.7716 -0.1064  0.3592
 3143TIP3    H230845   1.279   6.577   4.979  0.9675 -1.3754 -0.8073
 3144TIP3   OH230846   5.695   4.991  15.237 -0.2445  0.1507 -0.6088
 3144TIP3    H130847   5.626   5.052  15.210  0.7205  0.8790 -1.5012
 3144TIP3    H230848   5.649   4.909  15.253 -1.1904  0.2854 -2.3357
 3145TIP3   OH230849   5.858   5.881   5.847  0.5924  0.6884 -0.4612
 3145TIP3    H130850   5.855   5.946   5.777 -0.9205  1.4385  0.2413
 3145TIP3    H230851   5.911   5.921   5.915 -1.5609  1.9139  0.5882
 3146TIP3   OH230852   5.466   5.144  15.732 -0.0379 -0.4936  0.0939
 3146TIP3    H130853   5.530   5.179  15.794  0.9342  0.5893 -1.4841
 3146TIP3    H230854   5.518   5.093  15.670 -1.1791 -2.9902  1.0272
 3147TIP3   OH230855   1.558   1.815   3.899  0.3911  0.4198 -0.8183
 3147TIP3    H130856   1.633   1.858   3.857  2.9109 -1.9497  0.8475
 3147TIP3    H230857   1.553   1.729   3.858  0.1274 -0.3235  0.6822
 3148TIP3   OH230858   5.289   6.626   1.092 -0.9636 -0.3481 -0.1491
 3148TIP3    H130859   5.199   6.657   1.101 -1.1870 -1.0362  0.0688
 3148TIP3    H230860   5.296   6.553   1.155 -0.2816 -0.3548 -0.2212
 3149TIP3   OH230861   5.608   4.470  16.307 -1.0272 -0.3651 -0.0527
 3149TIP3    H130862   5.638   4.548  16.353  0.2408 -1.3782  0.9021
 3149TIP3    H230863   5.686   4.416  16.298 -1.9651 -1.7063 -0.3549
 3150TIP3   OH230864   3.434   6.736   2.960  0.1677  0.2020 -0.5590
 3150TIP3    H130865   3.377   6.690   2.899 -0.1844  0.0138 -0.0998
 3150TIP3    H230866   3.493   6.667   2.993  1.3137  0.5809 -1.7566
 3151TIP3   OH230867   5.497   4.148   2.538  0.2871 -0.8756  0.1641
 3151TIP3    H130868   5.587   4.142   2.506  0.4263  0.5685  0.2403
 3151TIP3    H230869   5.452   4.205   2.475 -0.6157 -1.6572  0.0676
 3152TIP3   OH230870   5.521   4.797  16.797 -0.1149 -0.0775  0.6012
 3152TIP3    H130871   5.538   4.731  16.864  1.7909  0.9361  1.1870
 3152TIP3    H230872   5.488   4.873  16.845 -0.9654 -0.1021  0.0888
 3153TIP3   OH230873   6.560   4.163   0.515  0.3126 -0.2089  0.2562
 3153TIP3    H130874   6.527   4.252   0.509 -2.0166 -1.0277 -0.0649
 3153TIP3    H230875   6.531   4.133   0.601  0.5493 -0.8478  0.1160
 3154TIP3   OH230876   4.049   5.636  14.093  0.3404 -0.0328  0.3270
 3154TIP3    H130877   4.094   5.552  14.099  0.7194  0.2562  3.0517
 3154TIP3    H230878   3.973   5.619  14.039  1.9137 -1.3663 -1.6344
 3155TIP3   OH230879   3.517   6.495  14.139  0.1049  0.1513 -0.3097
 3155TIP3    H130880   3.574   6.550  14.085  0.6889  0.2316  0.3684
 3155TIP3    H230881   3.495   6.551  14.214 -0.2664 -0.1418 -0.1959
 3156TIP3   OH230882   5.168   4.115   2.536 -0.1256  0.4759  0.6997
 3156TIP3    H130883   5.240   4.178   2.536  0.7503 -0.4668 -0.2478
 3156TIP3    H230884   5.140   4.111   2.445 -0.3007 -0.3264  0.7752
 3157TIP3   OH230885   0.087   2.079  13.093  0.4463  0.8018  0.2151
 3157TIP3    H130886   0.145   2.128  13.034  0.5613 -0.4945 -0.8008
 3157TIP3    H230887   0.001   2.084  13.052  0.1150  1.5205  0.9755
 3158TIP3   OH230888   1.577   0.373   3.993 -0.1441  0.1655  0.1442
 3158TIP3    H130889   1.488   0.374   4.029  0.3496 -0.9362  1.4915
 3158TIP3    H230890   1.565   0.381   3.899 -1.6609  0.3019  0.3287
 3159TIP3   OH230891   1.300   4.228   4.893 -0.0662  0.0398  0.8655
 3159TIP3    H130892   1.393   4.249   4.894 -0.1523  0.4024  1.7617
 3159TIP3    H230893   1.296   4.134   4.913  0.2397 -0.6305 -1.8238
 3160TIP3   OH230894   5.250   4.240  10.648  0.0046 -0.4242  0.5059
 3160TIP3    H130895   5.303   4.184  10.591 -1.6196 -0.4369 -1.0892
 3160TIP3    H230896   5.197   4.293  10.588 -0.0874  1.2788  2.0015
 3161TIP3   OH230897   1.872   2.423  16.782 -0.2201 -0.5863  0.3657
 3161TIP3    H130898   1.811   2.398  16.713  2.5217 -2.5525 -1.5362
 3161TIP3    H230899   1.823   2.486  16.835 -2.7646  0.3828 -2.8178
 3162TIP3   OH230900   4.677   0.164   1.696  0.3167 -0.6694  0.0733
 3162TIP3    H130901   4.642   0.236   1.642  1.2991 -0.3408 -0.1517
 3162TIP3    H230902   4.633   0.173   1.780  1.1961  0.8788  0.4089
 3163TIP3   OH230903   6.535   6.406   4.673  0.3408 -0.0818  0.0659
 3163TIP3    H130904   6.510   6.361   4.754 -2.0509 -0.3863 -0.7560
 3163TIP3    H230905   6.630   6.398   4.669  0.7508  1.2577  3.5974
 3164TIP3   OH230906   4.412   2.893  14.235 -0.0779  0.2395  0.0930
 3164TIP3    H130907   4.364   2.957  14.183  2.0602  3.4153  1.7413
 3164TIP3    H230908   4.464   2.844  14.171  0.4842  2.2151 -1.0426
 3165TIP3   OH230909   3.881   5.988  11.561 -0.3519 -1.0368  0.2998
 3165TIP3    H130910   3.816   6.047  11.522  0.9533  0.2153 -0.0619
 3165TIP3    H230911   3.830   5.931  11.619 -2.1861 -1.9687 -2.0320
 3166TIP3   OH230912   6.150   4.790   4.435  0.3917  0.1707 -0.6978
 3166TIP3    H130913   6.150   4.694   4.442  1.1221 -0.1019 -3.4107
 3166TIP3    H230914   6.188   4.819   4.518 -1.0675 -1.7792  0.7540
 3167TIP3   OH230915   4.177   0.057   4.226 -0.1491 -0.1846  0.0856
 3167TIP3    H130916   4.246   0.003   4.266  0.6031 -0.2235 -1.2049
 3167TIP3    H230917   4.223   0.135   4.194 -0.8904  0.2850  0.1468
 3168TIP3   OH230918   6.767   3.807  11.105 -0.2865 -0.4187  0.0535
 3168TIP3    H130919   6.745   3.777  11.017 -0.3075  0.3217 -0.1991
 3168TIP3    H230920   6.682   3.822  11.147 -0.3115  1.4637 -0.5853
 3169TIP3   OH230921   5.371   4.991  16.952 -0.8020  0.2141  0.0043
 3169TIP3    H130922   5.296   4.932  16.956 -0.8698  0.2560 -0.5116
 3169TIP3    H230923   5.354   5.046  16.875 -0.3425  0.3573 -0.0010
 3170TIP3   OH230924   2.030   4.161   2.306 -0.0182  0.8629  0.7386
 3170TIP3    H130925   1.950   4.214   2.311 -0.1739  0.5636  3.5627
 3170TIP3    H230926   2.036   4.121   2.393  1.8239 -1.2009 -0.2606
 3171TIP3   OH230927   6.598   0.223   0.428  0.1086 -0.7341  0.2115
 3171TIP3    H130928   6.623   0.211   0.336  2.9971  0.3513  0.7666
 3171TIP3    H230929   6.657   0.165   0.476  1.8240  1.9845  1.6174
 3172TIP3   OH230930   4.604   5.876   0.255 -0.3990 -0.1277  0.4922
 3172TIP3    H130931   4.658   5.797   0.241  2.0832  1.4538  0.5583
 3172TIP3    H230932   4.557   5.887   0.172  0.3532 -0.8614 -0.0574
 3173TIP3   OH230933   2.290   1.120  11.187  0.2166  0.5689 -0.3609
 3173TIP3    H130934   2.208   1.158  11.219  1.0838  0.4068  2.2654
 3173TIP3    H230935   2.359   1.169  11.232  1.4477 -2.5419  1.4540
 3174TIP3   OH230936   2.945   2.027  15.771  0.7559  0.4033  0.1376
 3174TIP3    H130937   3.024   1.973  15.759  0.8418  0.6780 -0.5662
 3174TIP3    H230938   2.918   2.050  15.682 -0.2035  0.2018  0.3733
 3175TIP3   OH230939   5.788   4.466  11.506  0.0310  0.5592 -0.7207
 3175TIP3    H130940   5.807   4.479  11.413  1.8439 -1.6007 -0.7510
 3175TIP3    H230941   5.842   4.531  11.551 -0.0929  0.9591 -1.1426
 3176TIP3   OH230942   4.591   0.026  15.358  0.2219 -0.6216  0.0132
 3176TIP3    H130943   4.638   0.061  15.282 -0.1230  0.0606  0.1114
 3176TIP3    H230944   4.504   0.004  15.325 -0.3645  0.8852  0.4805
 3177TIP3   OH230945   1.556   4.237  16.489 -0.4718 -0.6057 -0.6384
 3177TIP3    H130946   1.614   4.314  16.489 -0.6157 -0.4602  0.8639
 3177TIP3    H230947   1.518   4.236  16.401 -0.3630  0.9788 -0.7448
 3178TIP3   OH230948   3.365   3.200  15.823 -0.6545 -0.6603 -0.1998
 3178TIP3    H130949   3.354   3.234  15.912 -0.6156  0.5623 -0.6457
 3178TIP3    H230950   3.382   3.107  15.835 -1.2171 -0.6233  1.0447
 3179TIP3   OH230951   2.407   2.844  16.474  0.0305 -0.0228  0.2526
 3179TIP3    H130952   2.355   2.881  16.403  0.7495  0.8204  0.1471
 3179TIP3    H230953   2.498   2.853  16.444  0.2956 -0.5991  0.8427
 3180TIP3   OH230954   0.428   4.792  16.639  0.2321 -0.2069 -0.4328
 3180TIP3    H130955   0.423   4.701  16.609  0.7294 -0.1437 -0.7122
 3180TIP3    H230956   0.456   4.841  16.563 -0.0815  0.1947 -0.2951
 3181TIP3   OH230957   3.167   6.760  16.059 -0.3358  0.0998 -0.1792
 3181TIP3    H130958   3.186   6.673  16.022 -0.0523 -0.6825  1.7006
 3181TIP3    H230959   3.240   6.815  16.030  0.1815 -0.6232 -0.2825
 3182TIP3   OH230960   1.257   2.290  14.459 -0.2582 -0.1487 -0.5876
 3182TIP3    H130961   1.178   2.322  14.415 -0.9308 -0.7237  0.1600
 3182TIP3    H230962   1.224   2.251  14.541  0.7243 -1.0512 -0.6068
 3183TIP3   OH230963   4.159   1.789   2.127  0.3190  0.3660 -0.8158
 3183TIP3    H130964   4.131   1.819   2.040  1.0834  2.2537 -0.4585
 3183TIP3    H230965   4.128   1.857   2.187 -0.3209 -0.9866  0.4281
 3184TIP3   OH230966   0.163   3.902   5.746  0.0640  0.2991  0.0625
 3184TIP3    H130967   0.162   3.947   5.830  1.4433  0.0861  0.2171
 3184TIP3    H230968   0.203   3.965   5.686  0.3146 -0.0296 -0.1228
 3185TIP3   OH230969   5.560   5.454  13.410  0.1234  0.1563 -0.4140
 3185TIP3    H130970   5.533   5.546  13.418  1.5245  0.5061  0.6243
 3185TIP3    H230971   5.596   5.446  13.322  1.3093  0.9762 -0.0131
 3186TIP3   OH230972   5.738   3.593  17.038 -0.3959  0.7659 -0.1037
 3186TIP3    H130973   5.649   3.558  17.041 -0.6745  1.4438  3.1544
 3186TIP3    H230974   5.726   3.685  17.014 -0.7821  1.1629  1.4574
 3187TIP3   OH230975   4.534   0.602  14.485  0.2591 -0.4388 -0.4439
 3187TIP3    H130976   4.508   0.595  14.577 -0.0956  1.9880 -0.2923
 3187TIP3    H230977   4.451   0.613  14.438  0.5854  0.8781 -0.7330
 3188TIP3   OH230978   0.320   0.065   1.702  0.6300  0.2462  0.7468
 3188TIP3    H130979   0.244   0.008   1.712  0.0322  0.6843 -0.9793
 3188TIP3    H230980   0.304   0.114   1.621  3.0348 -0.1501 -0.0743
 3189TIP3   OH230981   6.613   1.112   0.187 -0.0192  0.3050  0.0719
 3189TIP3    H130982   6.696   1.130   0.231  0.7982 -0.6610 -1.0168
 3189TIP3    H230983   6.582   1.198   0.159  0.7819  0.6554  0.2255
 3190TIP3   OH230984   2.497   1.262  11.301 -0.0926  0.6381 -0.2804
 3190TIP3    H130985   2.536   1.339  11.260  0.4489  0.6735  0.2869
 3190TIP3    H230986   2.560   1.236  11.368 -0.1311 -0.4610 -0.6427
 3191TIP3   OH230987   5.853   1.771  12.251  0.1887  0.2624  0.0687
 3191TIP3    H130988   5.799   1.844  12.219  1.8309  1.7475  0.5275
 3191TIP3    H230989   5.915   1.754  12.180  0.0963 -0.4183  0.1447
 3192TIP3   OH230990   2.872   0.481  15.390 -0.0909  0.2369  0.1878
 3192TIP3    H130991   2.882   0.547  15.322  0.3454 -0.1500 -0.1376
 3192TIP3    H230992   2.891   0.527  15.472  0.6774  0.4154 -0.0782
 3193TIP3   OH230993   1.761   2.030   3.857  0.0127 -0.1110 -0.1733
 3193TIP3    H130994   1.721   2.108   3.895 -1.1993 -2.3517  3.7153
 3193TIP3    H230995   1.833   2.009   3.916 -0.3879 -2.5055 -0.4314
 3194TIP3   OH230996   3.581   5.561   4.003  0.9238  0.0914  0.6358
 3194TIP3    H130997   3.509   5.619   4.027  0.8380  0.2386  0.0582
 3194TIP3    H230998   3.601   5.586   3.913  0.1921 -1.4749  0.0013
 3195TIP3   OH230999   1.086   5.779  10.651 -0.1930  0.2867 -0.0590
 3195TIP3    H131000   1.006   5.742  10.688  0.2827 -1.0230 -0.2963
 3195TIP3    H231001   1.079   5.762  10.557  1.7240 -2.6759  0.2190
 3196TIP3   OH231002   2.774   3.777  16.454  0.0439 -0.0870 -0.1273
 3196TIP3    H131003   2.709   3.828  16.502  1.5112  1.1336  0.6494
 3196TIP3    H231004   2.842   3.840  16.431  0.9402 -1.3029 -0.9440
 3197TIP3   OH231005   4.573   0.005   4.108 -0.1649 -0.4939  0.2427
 3197TIP3    H131006   4.519  -0.023   4.034 -2.1487  2.0189  0.6072
 3197TIP3    H231007   4.610   0.089   4.081  0.1799 -0.1851  1.6081
 3198TIP3   OH231008   3.856   3.668   4.042  0.0838 -0.2413 -0.6066
 3198TIP3    H131009   3.865   3.631   3.955 -1.2968 -0.2977 -0.7464
 3198TIP3    H231010   3.790   3.737   4.033 -0.2182 -0.3695  0.4210
 3199TIP3   OH231011   0.823   4.584   1.784  0.2609 -0.0055 -0.2874
 3199TIP3    H131012   0.802   4.541   1.701  0.0235 -1.5970  0.5528
 3199TIP3    H231013   0.916   4.606   1.777  0.1144  0.3346 -1.1709
 3200TIP3   OH231014   1.893   1.651   5.525  0.2044  0.1931 -0.4173
 3200TIP3    H131015   1.885   1.668   5.619  2.7164 -0.1245 -0.0712
 3200TIP3    H231016   1.820   1.594   5.505  2.1989 -3.9318  2.4953
 3201TIP3   OH231017   3.265   4.123  13.993 -0.2181  0.2155  0.2313
 3201TIP3    H131018   3.282   4.127  13.899 -1.0182 -2.3186 -0.0886
 3201TIP3    H231019   3.334   4.177  14.032  1.7902 -0.8225 -1.6622
 3202TIP3   OH231020   1.041   4.290  17.244 -0.1713 -0.0552 -0.1026
 3202TIP3    H131021   0.967   4.235  17.215  0.4298 -1.6518  1.2594
 3202TIP3    H231022   1.094   4.232  17.298  1.5064  1.3909 -0.1287
 3203TIP3   OH231023   4.495   5.978  14.965  0.2560 -0.2696 -0.0866
 3203TIP3    H131024   4.585   5.995  14.936  0.4159  1.7297  1.3635
 3203TIP3    H231025   4.497   5.994  15.059 -2.0530  1.9589 -0.3087
 3204TIP3   OH231026   6.697   0.819   6.477  0.0806 -0.2241  0.3550
 3204TIP3    H131027   6.659   0.895   6.521 -0.7406  0.1636 -0.9411
 3204TIP3    H231028   6.637   0.747   6.497  0.2016 -0.2547  0.6059
 3205TIP3   OH231029   6.407   4.497   4.444  0.2017  0.1805  0.1319
 3205TIP3    H131030   6.414   4.406   4.470  0.5289  0.2530  0.2983
 3205TIP3    H231031   6.313   4.510   4.428  0.2164 -0.3128 -0.3805
 3206TIP3   OH231032   4.426   0.708  15.931  0.2811  0.2197  0.3758
 3206TIP3    H131033   4.519   0.697  15.948  0.5328  0.1490 -0.9260
 3206TIP3    H231034   4.395   0.620  15.909  0.2116  0.4656 -0.5425
 3207TIP3   OH231035   4.349   1.274   6.102 -0.1596 -0.8707  0.2955
 3207TIP3    H131036   4.381   1.348   6.154 -0.8515 -1.9578  2.3811
 3207TIP3    H231037   4.381   1.197   6.149 -2.5525 -1.9325  0.3298
 3208TIP3   OH231038   0.642   3.187   3.868 -0.4219  0.6871 -0.1814
 3208TIP3    H131039   0.702   3.230   3.929 -0.0766  0.3894 -0.3091
 3208TIP3    H231040   0.678   3.206   3.781 -0.8489  1.0130 -0.2921
 3209TIP3   OH231041   3.972   3.359   3.212  0.5044  0.0445  0.5840
 3209TIP3    H131042   4.014   3.275   3.196  2.2674  0.8544  0.6305
 3209TIP3    H231043   3.888   3.338   3.252 -0.5109 -1.7880 -2.2322
 3210TIP3   OH231044   3.554   3.259   4.398  0.2096  0.4311  0.7646
 3210TIP3    H131045   3.481   3.320   4.390 -0.0683  0.0907  0.6676
 3210TIP3    H231046   3.623   3.298   4.345 -0.2921  0.1929 -0.0941
 3211TIP3   OH231047   5.700   4.788   5.482  0.2133  0.1950  0.2222
 3211TIP3    H131048   5.711   4.745   5.398 -1.6027  0.1626 -0.0303
 3211TIP3    H231049   5.667   4.875   5.460  1.4677  0.8608  0.8407
 3212TIP3   OH231050   0.910   3.240  13.092 -0.3950  0.7446  0.2656
 3212TIP3    H131051   0.823   3.206  13.110  0.2850 -3.1929 -2.4813
 3212TIP3    H231052   0.900   3.293  13.013 -0.2683 -0.0938 -0.3211
 3213TIP3   OH231053   6.321   2.403  11.225 -0.8199  1.0148  0.1808
 3213TIP3    H131054   6.373   2.470  11.180  0.4283  1.0329  1.6024
 3213TIP3    H231055   6.305   2.440  11.312 -0.5938 -0.2944  0.7898
 3214TIP3   OH231056   4.508   2.789  16.791  0.2742 -0.0702  0.7405
 3214TIP3    H131057   4.538   2.698  16.790  1.3449  0.2698  0.7620
 3214TIP3    H231058   4.433   2.788  16.852 -1.2261 -1.3507 -1.0122
 3215TIP3   OH231059   2.790   5.139  11.114 -0.5970  0.2772 -0.3210
 3215TIP3    H131060   2.819   5.225  11.084 -0.6713  0.2393 -0.5037
 3215TIP3    H231061   2.712   5.120  11.061 -0.8955  0.3312  0.0872
 3216TIP3   OH231062   5.963   0.786  15.949  0.5022 -0.1234  0.3972
 3216TIP3    H131063   6.004   0.766  15.864  0.5197 -2.0371  0.8126
 3216TIP3    H231064   5.887   0.839  15.926  0.7056 -0.3040 -0.7869
 3217TIP3   OH231065   4.110   5.039  15.370 -0.3935 -0.5398  0.0837
 3217TIP3    H131066   4.110   5.068  15.278 -0.4726  0.9294  0.5188
 3217TIP3    H231067   4.043   4.971  15.373 -1.0898  0.0818 -0.7662
 3218TIP3   OH231068   0.782   3.846   2.205  0.3723 -0.4686 -0.6074
 3218TIP3    H131069   0.858   3.897   2.176 -0.3972  1.2530  0.2397
 3218TIP3    H231070   0.707   3.888   2.162 -0.2328 -1.4195 -0.5212
 3219TIP3   OH231071   3.371   5.694  12.675 -0.7771  0.1320  0.0561
 3219TIP3    H131072   3.366   5.656  12.762  0.3348  1.5091  0.7641
 3219TIP3    H231073   3.457   5.667  12.643 -0.9944  0.0202 -0.4476
 3220TIP3   OH231074   5.859   6.481  12.982 -0.0565 -0.7811 -0.0021
 3220TIP3    H131075   5.844   6.433  12.900  2.5165  0.2379 -1.1547
 3220TIP3    H231076   5.834   6.571  12.962  2.7328 -0.0413 -0.4873
 3221TIP3   OH231077   0.553   1.275   4.527  0.2455  0.0156  0.0941
 3221TIP3    H131078   0.550   1.293   4.621  2.8405  0.8789  0.0906
 3221TIP3    H231079   0.643   1.245   4.510 -0.6857 -2.0180 -1.8346
 3222TIP3   OH231080   1.680   3.979   1.127 -0.3277  0.2426 -0.2157
 3222TIP3    H131081   1.680   4.050   1.063 -0.6551 -0.3071 -0.8370
 3222TIP3    H231082   1.721   4.017   1.205 -0.0329  0.9569 -0.7065
 3223TIP3   OH231083   1.369   6.465   3.085 -0.0091  0.5694 -0.5757
 3223TIP3    H131084   1.343   6.532   3.148  0.9194  0.6133 -0.2118
 3223TIP3    H231085   1.382   6.513   3.003  2.9106  1.3452  0.1954
 3224TIP3   OH231086   6.645   0.603  15.962  0.0444  0.2970 -0.1296
 3224TIP3    H131087   6.658   0.632  16.052 -0.0434 -1.4725  0.4932
 3224TIP3    H231088   6.633   0.684  15.912 -1.5140  1.2722  1.6851
 3225TIP3   OH231089   2.175   3.327  11.678 -0.0468  0.1782 -0.1280
 3225TIP3    H131090   2.235   3.402  11.674  1.0294 -0.6198  0.5886
 3225TIP3    H231091   2.090   3.364  11.653  0.5934  1.4829 -0.5038
 3226TIP3   OH231092   6.454   0.428   6.036 -0.0026  0.4435 -0.4931
 3226TIP3    H131093   6.431   0.408   6.126  0.7276  0.0313 -0.3877
 3226TIP3    H231094   6.430   0.349   5.987  0.3563  0.3479 -0.5211
 3227TIP3   OH231095   1.978   4.917   1.263  0.1274 -0.2058  0.6377
 3227TIP3    H131096   1.914   4.863   1.216  0.3275 -0.6335  0.8490
 3227TIP3    H231097   1.991   4.871   1.346 -0.5577  0.7715  1.3072
 3228TIP3   OH231098   3.103   3.023  15.879 -0.0666 -0.1258 -0.1730
 3228TIP3    H131099   3.135   3.069  15.801 -1.2190 -0.0932 -0.6488
 3228TIP3    H231100   3.121   2.931  15.861  0.2416 -0.0605 -0.2020
 3229TIP3   OH231101   6.012   6.465  14.800 -0.1115  0.0214 -0.0225
 3229TIP3    H131102   5.996   6.559  14.792 -0.1542 -0.0992 -1.8603
 3229TIP3    H231103   5.928   6.425  14.780 -0.0566 -0.4090  0.6044
 3230TIP3   OH231104   4.818   5.932  11.228 -0.7219  0.4004  0.1565
 3230TIP3    H131105   4.834   5.933  11.323  1.5658 -2.2469 -0.0899
 3230TIP3    H231106   4.818   5.839  11.205  1.8904  0.9958 -2.8747
 3231TIP3   OH231107   1.547   6.523  14.545 -0.2016  0.5574  0.2611
 3231TIP3    H131108   1.479   6.462  14.574  1.3343 -0.9586  0.8076
 3231TIP3    H231109   1.618   6.512  14.608  0.7782  1.6964 -0.5964
 3232TIP3   OH231110   0.365   4.118   2.808  0.1932  0.0274  0.7482
 3232TIP3    H131111   0.295   4.074   2.761  0.0993 -1.9781  2.5801
 3232TIP3    H231112   0.445   4.073   2.779  0.4118  0.4196  0.7312
 3233TIP3   OH231113   6.022   6.110   1.614 -0.6291 -0.2622 -0.6302
 3233TIP3    H131114   5.941   6.065   1.590 -0.6358 -0.9389  0.5915
 3233TIP3    H231115   6.087   6.040   1.625 -0.1080  0.1966 -0.7298
 3234TIP3   OH231116   1.261   4.538   3.656  0.2650  0.0862  0.4397
 3234TIP3    H131117   1.273   4.494   3.572 -0.2651  3.8772 -1.8485
 3234TIP3    H231118   1.196   4.484   3.702  1.2691 -2.6095 -1.1071
 3235TIP3   OH231119   4.847   0.213   4.094  0.1394  0.3191  0.2290
 3235TIP3    H131120   4.801   0.295   4.076 -0.2707 -0.3520 -2.0327
 3235TIP3    H231121   4.831   0.197   4.187 -1.0216  2.0279  0.3726
 3236TIP3   OH231122   2.384   0.377  11.852  0.3826  0.4010  0.2103
 3236TIP3    H131123   2.471   0.415  11.842 -0.0115  1.2009 -0.3956
 3236TIP3    H231124   2.327   0.437  11.803 -0.1323 -1.5594 -1.7354
 3237TIP3   OH231125   4.486   0.716   6.948  0.2451 -0.0540 -0.0656
 3237TIP3    H131126   4.411   0.705   7.007 -0.1903 -1.7319 -0.8533
 3237TIP3    H231127   4.472   0.802   6.907 -1.8284 -0.7211 -0.9085
 3238TIP3   OH231128   2.152   1.144  14.161 -0.0608 -0.3409  0.2631
 3238TIP3    H131129   2.209   1.076  14.197 -0.8374 -1.4757 -0.5515
 3238TIP3    H231130   2.171   1.144  14.067 -1.5573 -0.9385 -0.0706
 3239TIP3   OH231131   6.509   0.134   5.430  0.1847 -0.2894  0.6033
 3239TIP3    H131132   6.431   0.174   5.392  0.7306  0.1581 -0.0876
 3239TIP3    H231133   6.565   0.114   5.354  1.7057  1.4864  1.1892
 3240TIP3   OH231134   2.339   5.014  12.642  0.0547 -0.2634 -0.4158
 3240TIP3    H131135   2.387   5.084  12.686 -0.7524  0.7193 -1.0713
 3240TIP3    H231136   2.334   5.041  12.551 -2.0501 -0.1492 -0.3048
 3241TIP3   OH231137   6.381   5.087  17.185 -0.2297 -0.3790  0.5600
 3241TIP3    H131138   6.443   5.135  17.131 -2.4803  0.4640 -1.4903
 3241TIP3    H231139   6.296   5.105  17.145 -1.6819 -2.5025  2.4203
 3242TIP3   OH231140   1.152   5.394   4.012  0.2987  0.0796  0.2611
 3242TIP3    H131141   1.242   5.393   4.042  0.7438  0.1129 -1.0068
 3242TIP3    H231142   1.158   5.387   3.916 -1.0059  0.6954  0.1032
 3243TIP3   OH231143   4.956   4.598  14.015 -0.3053  0.1167  0.3285
 3243TIP3    H131144   5.020   4.666  13.999 -2.3356  2.2368  0.6765
 3243TIP3    H231145   4.873   4.645  14.029 -1.7368 -2.3920  1.0070
 3244TIP3   OH231146   3.645   4.101  12.457 -0.3977 -0.0828  0.5516
 3244TIP3    H131147   3.677   4.105  12.547 -0.5137 -1.3458  0.6685
 3244TIP3    H231148   3.647   4.191  12.426 -0.7976  0.4267  1.9700
 3245TIP3   OH231149   3.764   5.313  11.178 -0.3689 -0.4749  0.1947
 3245TIP3    H131150   3.701   5.293  11.109 -0.2603 -1.8918  0.4945
 3245TIP3    H231151   3.781   5.407  11.167 -0.1669 -0.7003 -1.8601
 3246TIP3   OH231152   0.798   2.939   3.566  0.3214 -0.0229 -0.2157
 3246TIP3    H131153   0.861   2.970   3.630  1.4534  0.9619 -1.7396
 3246TIP3    H231154   0.844   2.942   3.482 -0.8774 -1.9084 -1.0235
 3247TIP3   OH231155   5.237   5.423   6.236 -0.3501 -0.0215 -0.6877
 3247TIP3    H131156   5.311   5.410   6.295  0.3541  0.2755 -1.4763
 3247TIP3    H231157   5.171   5.469   6.288 -0.4982 -1.4109  0.3962
 3248TIP3   OH231158   4.273   2.881  13.215 -0.0284 -0.1222 -0.2702
 3248TIP3    H131159   4.255   2.952  13.153 -1.8380 -0.0835  0.2279
 3248TIP3    H231160   4.186   2.849  13.240  0.5207  0.6866  3.1838
 3249TIP3   OH231161   5.617   1.913  15.986 -0.2153  0.0039  0.6020
 3249TIP3    H131162   5.608   1.820  16.009 -0.0271  0.1852  1.4355
 3249TIP3    H231163   5.709   1.933  16.002  0.3038 -0.2229 -1.7698
 3250TIP3   OH231164   0.422   2.165  11.815  0.1287  0.1414 -0.2064
 3250TIP3    H131165   0.492   2.215  11.859  1.5482 -0.3704 -1.7647
 3250TIP3    H231166   0.376   2.121  11.886  0.3603  1.7670  1.0124
 3251TIP3   OH231167   0.058   1.490  12.387  0.3892  0.0859 -0.1977
 3251TIP3    H131168   0.009   1.444  12.456 -0.5254 -1.2718 -1.6974
 3251TIP3    H231169   0.023   1.456  12.305  0.8979  2.2467 -1.3890
 3252TIP3   OH231170   1.125   1.406   6.116  0.2952 -0.8261  0.3024
 3252TIP3    H131171   1.040   1.446   6.097  1.1069  0.8092 -0.1101
 3252TIP3    H231172   1.114   1.364   6.201 -0.4060  1.0124  1.1703
 3253TIP3   OH231173   6.034   0.095   1.030 -0.4740 -0.0145  0.3567
 3253TIP3    H131174   6.030   0.014   1.080  0.3326 -0.6803 -0.5868
 3253TIP3    H231175   6.011   0.164   1.092  0.4162 -0.8033  1.6133
 3254TIP3   OH231176   4.590   2.415   4.243  0.3295  0.1984 -0.4651
 3254TIP3    H131177   4.678   2.377   4.242 -0.0408 -0.6924 -0.2511
 3254TIP3    H231178   4.594   2.488   4.181  1.8175  1.5854  1.1586
 3255TIP3   OH231179   2.631   2.525  13.212 -0.5028  0.0012 -0.0205
 3255TIP3    H131180   2.581   2.540  13.292 -0.6993 -1.3577  0.1321
 3255TIP3    H231181   2.619   2.432  13.193  2.1340 -0.4746  0.1653
 3256TIP3   OH231182   0.074   2.042   2.079  0.0076 -0.0602  0.1750
 3256TIP3    H131183   0.126   2.113   2.115 -1.6983  1.5142 -0.3028
 3256TIP3    H231184   0.089   2.047   1.984 -2.3677  1.6939 -0.2069
 3257TIP3   OH231185   0.527   5.384   6.137  0.0401 -0.6330  0.0382
 3257TIP3    H131186   0.607   5.336   6.113 -0.3415 -0.8226 -0.9003
 3257TIP3    H231187   0.457   5.337   6.093 -0.7424 -1.0830  1.6852
 3258TIP3   OH231188   0.001   2.588   4.836  0.1740  0.1670 -0.0286
 3258TIP3    H131189  -0.023   2.503   4.799  0.8757  0.6809 -1.7664
 3258TIP3    H231190  -0.054   2.596   4.914 -0.2642 -1.6504 -0.0960
 3259TIP3   OH231191   5.011   3.478  10.882 -0.1104 -0.4986  0.2187
 3259TIP3    H131192   5.105   3.468  10.897 -0.0083  2.2008  1.9808
 3259TIP3    H231193   4.971   3.446  10.963 -0.3832  1.9974  1.1615
 3260TIP3   OH231194   6.291   0.354   1.124  0.3587  0.4903  0.3886
 3260TIP3    H131195   6.199   0.327   1.118 -0.1270  2.1261  0.0834
 3260TIP3    H231196   6.301   0.418   1.054  1.2596  1.6336  1.5425
 3261TIP3   OH231197   1.469   0.411  14.023  0.0411  0.5673  0.4864
 3261TIP3    H131198   1.495   0.492  14.068 -2.1273  1.2933  0.5281
 3261TIP3    H231199   1.406   0.439  13.958  0.9072 -0.8572 -1.0456
 3262TIP3   OH231200   0.057   3.225  17.012  0.0361 -0.0701 -0.3185
 3262TIP3    H131201   0.065   3.130  17.004  1.3887  0.0775 -1.0302
 3262TIP3    H231202  -0.026   3.245  16.969 -0.5185 -0.9770  0.3060
 3263TIP3   OH231203   4.305   1.659  12.381 -0.3504 -0.3356 -0.6595
 3263TIP3    H131204   4.341   1.744  12.408  2.2439 -1.3843 -0.5270
 3263TIP3    H231205   4.252   1.631  12.456  1.8533 -0.4795  0.9586
 3264TIP3   OH231206   6.379   3.478   5.529  0.1093 -0.3103 -0.4453
 3264TIP3    H131207   6.359   3.461   5.621 -0.1222 -2.6183 -0.8602
 3264TIP3    H231208   6.413   3.395   5.496 -0.3165  0.2947 -2.5703
 3265TIP3   OH231209   6.415   5.610   1.924 -0.3673 -0.3530 -0.1447
 3265TIP3    H131210   6.383   5.524   1.950 -0.2769 -0.4131 -0.2307
 3265TIP3    H231211   6.343   5.650   1.876 -0.8627  0.1128  0.9529
 3266TIP3   OH231212   2.974   2.722   3.482 -0.2517  0.1093  0.0101
 3266TIP3    H131213   2.960   2.813   3.457  0.5805  0.2089 -0.0931
 3266TIP3    H231214   3.013   2.680   3.405 -0.7824 -0.3810 -0.0043
 3267TIP3   OH231215   3.981   0.727   0.030 -0.2406 -0.0881 -0.1165
 3267TIP3    H131216   3.978   0.815   0.065 -1.4660 -0.0693 -0.2417
 3267TIP3    H231217   4.056   0.686   0.074  1.0163  1.3201 -0.8398
 3268TIP3   OH231218   5.541   5.565   0.199  0.1420 -0.6008 -0.5246
 3268TIP3    H131219   5.590   5.645   0.187 -0.2604 -0.1849  0.4456
 3268TIP3    H231220   5.449   5.593   0.202  0.0158 -1.0419  0.1187
 3269TIP3   OH231221   4.836   3.611   4.374  0.0216  0.2871 -0.8150
 3269TIP3    H131222   4.908   3.643   4.319  0.3671 -0.3380 -0.7342
 3269TIP3    H231223   4.758   3.619   4.319 -0.0487  2.0019 -0.5339
 3270TIP3   OH231224   0.552   5.868  17.009 -0.2510 -0.1756  0.5395
 3270TIP3    H131225   0.570   5.838  17.098 -1.8506 -3.0575  0.0376
 3270TIP3    H231226   0.637   5.872  16.967  0.4858  0.7547  2.0321
 3271TIP3   OH231227   4.007   2.210  13.232  0.1465 -0.3433  0.1273
 3271TIP3    H131228   3.961   2.202  13.316  0.2101  1.4199  0.3585
 3271TIP3    H231229   3.936   2.219  13.167  0.0519 -2.8767 -0.2129
 3272TIP3   OH231230   5.184   5.655  12.237  0.3831  0.7868  0.5844
 3272TIP3    H131231   5.172   5.633  12.330  0.8413 -1.4749  0.1407
 3272TIP3    H231232   5.261   5.606  12.210 -0.8697 -0.1692 -1.4717
 3273TIP3   OH231233   3.337   2.459   3.091 -1.0226 -0.2267 -0.0989
 3273TIP3    H131234   3.365   2.373   3.058  0.3542  0.2298 -0.2079
 3273TIP3    H231235   3.400   2.478   3.161 -0.9915  0.9256 -0.4328
 3274TIP3   OH231236   2.781   2.280   0.932 -0.7868  0.0659  0.2385
 3274TIP3    H131237   2.690   2.297   0.910 -1.0979 -1.4242  0.2680
 3274TIP3    H231238   2.807   2.207   0.876  0.3955  0.4607  0.2318
 3275TIP3   OH231239   5.067   2.601  12.271 -0.0296  0.2623 -0.1823
 3275TIP3    H131240   5.113   2.640  12.345 -0.3985  0.2374  0.0607
 3275TIP3    H231241   5.011   2.671  12.238 -0.5066  0.0177  0.0985
 3276TIP3   OH231242   2.540   2.592  15.182  0.5451  0.2131  0.3099
 3276TIP3    H131243   2.454   2.626  15.207  1.0933  1.5446  0.4861
 3276TIP3    H231244   2.550   2.512  15.234 -0.4538  0.1931  0.5007
 3277TIP3   OH231245   4.765   3.336   0.271  0.0373 -0.3021  0.3224
 3277TIP3    H131246   4.808   3.313   0.189 -0.5182  0.0172 -0.0630
 3277TIP3    H231247   4.674   3.351   0.247 -0.4304 -1.5087  1.2159
 3278TIP3   OH231248   0.806   1.932  16.272  0.3200  0.2799 -0.2070
 3278TIP3    H131249   0.784   1.867  16.205  1.8440 -0.3308 -0.1415
 3278TIP3    H231250   0.861   1.995  16.226 -0.3196  0.9862 -0.0152
 3279TIP3   OH231251   5.716   2.170  11.691  0.1146  0.1482 -0.3566
 3279TIP3    H131252   5.707   2.228  11.615  0.4838  1.0532  0.2720
 3279TIP3    H231253   5.804   2.133  11.683 -0.9411 -2.3059 -2.0777
 3280TIP3   OH231254   2.399   4.558   3.840 -0.1485  0.1939 -0.2412
 3280TIP3    H131255   2.342   4.533   3.913 -1.1636  2.8286  0.0122
 3280TIP3    H231256   2.487   4.560   3.877 -0.5410  0.6524  0.7046
 3281TIP3   OH231257   0.044   6.557  15.416  0.1400 -0.3996 -0.2768
 3281TIP3    H131258  -0.014   6.629  15.394  0.7145  0.4704  0.9210
 3281TIP3    H231259   0.009   6.482  15.369 -1.8284  0.1478  0.2474
 3282TIP3   OH231260   0.629   3.740   5.511 -0.2379  0.4742  0.0902
 3282TIP3    H131261   0.570   3.770   5.441  0.0583  1.3036  0.1750
 3282TIP3    H231262   0.586   3.769   5.591 -0.1348  0.3254  0.1977
 3283TIP3   OH231263   0.428   3.628   3.028  0.3451 -0.3689  0.2723
 3283TIP3    H131264   0.409   3.721   3.040  0.0720 -0.3321 -0.3770
 3283TIP3    H231265   0.499   3.626   2.963 -0.0352 -0.6275 -0.1410
 3284TIP3   OH231266   3.851   3.444   5.565  0.0692 -0.1388  0.3263
 3284TIP3    H131267   3.940   3.478   5.573 -0.1334  0.7563 -0.9907
 3284TIP3    H231268   3.852   3.390   5.486 -1.5828  3.6734 -2.6620
 3285TIP3   OH231269   5.251   6.153   4.021  0.4480 -0.2862 -0.1664
 3285TIP3    H131270   5.295   6.142   3.937  0.2641 -0.2094 -0.2741
 3285TIP3    H231271   5.163   6.116   4.008 -0.3331  1.5992 -0.6651
 3286TIP3   OH231272   2.852   0.180   4.670  0.5517  0.4711  0.6143
 3286TIP3    H131273   2.864   0.123   4.746 -0.1662  1.7944  1.7893
 3286TIP3    H231274   2.934   0.228   4.663  0.2826  1.0364  1.1887
 3287TIP3   OH231275   0.975   3.665  13.530 -0.4007 -0.0718 -0.1779
 3287TIP3    H131276   0.935   3.601  13.589  2.1720 -0.2948  1.4771
 3287TIP3    H231277   1.033   3.613  13.474  2.0012  0.7097  1.4273
 3288TIP3   OH231278   4.964   2.330  16.911  0.0441 -0.2141 -0.7884
 3288TIP3    H131279   4.974   2.364  16.999 -0.0657 -0.7590 -0.5597
 3288TIP3    H231280   4.957   2.407  16.855 -0.2945  0.1279 -0.2740
 3289TIP3   OH231281   1.533   0.804   5.031 -0.0590  0.3825 -0.2130
 3289TIP3    H131282   1.513   0.897   5.025  0.5277  0.5229 -0.0163
 3289TIP3    H231283   1.447   0.761   5.033 -0.3345  0.9472  0.2188
 3290TIP3   OH231284   6.240   0.561   2.972  0.3391  0.1621 -0.6494
 3290TIP3    H131285   6.314   0.566   2.912  0.5905  1.1160 -0.2765
 3290TIP3    H231286   6.268   0.613   3.048 -0.6246  0.3418 -0.4115
 3291TIP3   OH231287   3.537   4.923   5.942 -0.1497  0.4062  0.2234
 3291TIP3    H131288   3.525   4.841   5.894  0.0146 -0.2063  1.1998
 3291TIP3    H231289   3.597   4.901   6.014  0.7508  1.6257 -0.1055
 3292TIP3   OH231290   0.507   2.761  16.507  0.1301  0.4911  0.3655
 3292TIP3    H131291   0.518   2.679  16.459 -1.7574  1.6111 -2.1964
 3292TIP3    H231292   0.560   2.824  16.458 -1.6647  1.6212 -0.2077
 3293TIP3   OH231293   1.391   3.296   3.016  0.2673 -0.0740  0.2681
 3293TIP3    H131294   1.332   3.303   2.940  0.4427  0.8455  0.2048
 3293TIP3    H231295   1.352   3.353   3.082  0.8640  0.2191  0.3733
 3294TIP3   OH231296   3.998   3.362  13.869 -0.5476  0.0341 -0.0454
 3294TIP3    H131297   3.957   3.329  13.789  1.7334 -0.2277 -1.1783
 3294TIP3    H231298   3.987   3.290  13.932  0.3041 -1.0492 -1.0798
 3295TIP3   OH231299   3.270   6.734   1.992  0.4773  0.3174  0.3870
 3295TIP3    H131300   3.301   6.815   1.952 -0.4723  0.3620 -0.2762
 3295TIP3    H231301   3.208   6.698   1.929  0.0409 -0.3500  1.1817
 3296TIP3   OH231302   5.341   3.279  14.209 -0.2144 -0.0519 -0.4759
 3296TIP3    H131303   5.376   3.300  14.296  0.9332 -0.2213 -0.8893
 3296TIP3    H231304   5.380   3.344  14.151 -1.6391  0.5921 -0.7525
 3297TIP3   OH231305   6.279   3.104  13.107 -0.0639  0.0254 -0.7395
 3297TIP3    H131306   6.196   3.075  13.144  0.4088  1.0116  1.2345
 3297TIP3    H231307   6.333   3.025  13.100 -0.9240 -0.5142 -1.4467
 3298TIP3   OH231308   2.385   3.774   0.209 -0.1001 -0.2828  0.3771
 3298TIP3    H131309   2.406   3.708   0.275 -1.4042 -2.6518 -1.4090
 3298TIP3    H231310   2.384   3.726   0.126 -1.5752  1.8857 -0.9795
 3299TIP3   OH231311   1.459   3.439   3.785  0.6191  0.4015 -0.0000
 3299TIP3    H131312   1.489   3.490   3.860 -0.3262  1.5613 -0.3829
 3299TIP3    H231313   1.464   3.499   3.710 -0.3885 -0.0865 -0.4860
 3300TIP3   OH231314   0.778   0.242   2.919 -0.0012 -0.2827 -0.4560
 3300TIP3    H131315   0.760   0.326   2.877 -0.2404  0.6575  1.4373
 3300TIP3    H231316   0.874   0.239   2.924 -0.0130  0.4013  0.4332
 3301TIP3   OH231317   4.101   4.785  12.710 -0.0374  0.0039 -0.2988
 3301TIP3    H131318   4.023   4.762  12.660 -0.2341 -1.3947  0.5860
 3301TIP3    H231319   4.069   4.844  12.778  0.0529  1.0703 -1.1559
 3302TIP3   OH231320   2.508   4.376   2.898 -1.2867 -0.0168  0.5745
 3302TIP3    H131321   2.452   4.418   2.832 -0.2503 -1.0478 -1.0511
 3302TIP3    H231322   2.515   4.285   2.868  1.9768  0.2846  0.1580
 3303TIP3   OH231323   0.699   5.314   3.620 -0.6445 -0.6675  0.0874
 3303TIP3    H131324   0.651   5.372   3.679  0.1989  0.7135 -0.5413
 3303TIP3    H231325   0.758   5.265   3.678 -1.5721 -1.1486  0.6563
 3304TIP3   OH231326   1.908   4.432   4.611  0.6076 -0.1114  0.4572
 3304TIP3    H131327   1.931   4.462   4.699 -0.1456 -0.0976  0.6552
 3304TIP3    H231328   1.890   4.512   4.563 -0.1834 -0.1818  0.6356
 3305TIP3   OH231329   5.118   5.425  16.879 -0.4927  0.0491  0.3640
 3305TIP3    H131330   5.142   5.376  16.801 -2.1247 -0.2510  0.0047
 3305TIP3    H231331   5.197   5.424  16.934  0.8407  0.6966 -1.4566
 3306TIP3   OH231332   1.416   1.164  14.285 -0.3141 -0.1463 -0.0840
 3306TIP3    H131333   1.487   1.140  14.344 -0.4136  0.4759  0.2985
 3306TIP3    H231334   1.351   1.095  14.296  0.4197 -0.9776 -0.7883
 3307TIP3   OH231335   3.579   1.172  15.012 -0.7699  0.6026 -0.5131
 3307TIP3    H131336   3.644   1.242  15.014  0.6156 -0.6586  0.1582
 3307TIP3    H231337   3.592   1.130  14.926 -0.1828 -0.0742 -0.1124
 3308TIP3   OH231338   1.746   4.948   3.106 -0.7541  0.1552  0.0810
 3308TIP3    H131339   1.657   4.935   3.139 -0.3350  0.1828  1.2736
 3308TIP3    H231340   1.752   5.043   3.090 -0.3499  0.4578  1.8465
 3309TIP3   OH231341   3.308   6.091   2.449 -0.4563 -0.2084  0.6685
 3309TIP3    H131342   3.245   6.163   2.445  1.5579  1.6983  1.1501
 3309TIP3    H231343   3.353   6.103   2.533  1.4408 -0.6768 -0.2169
 3310TIP3   OH231344   6.399   2.237  14.127 -0.5242  0.0319  0.1543
 3310TIP3    H131345   6.478   2.288  14.109 -0.2695 -0.2440  0.4791
 3310TIP3    H231346   6.405   2.162  14.067 -0.8494  0.3255 -0.2546
 3311TIP3   OH231347   2.708   2.392   0.094 -0.2547 -0.2568  0.0020
 3311TIP3    H131348   2.799   2.417   0.109 -0.4275 -0.5540  1.8508
 3311TIP3    H231349   2.682   2.440   0.016  1.7134 -0.7828 -1.0569
 3312TIP3   OH231350   6.119   2.592  12.659  0.1584 -0.4625  0.6690
 3312TIP3    H131351   6.073   2.544  12.728 -0.1382 -1.5414 -0.2456
 3312TIP3    H231352   6.066   2.576  12.580  1.0120 -0.0611 -0.0011
 3313TIP3   OH231353   2.635   2.854   3.445 -0.0734  0.1381 -0.4858
 3313TIP3    H131354   2.606   2.807   3.523  0.2995 -0.4274 -0.6804
 3313TIP3    H231355   2.687   2.927   3.479  0.7888 -0.5879 -0.2209
 3314TIP3   OH231356   4.380   5.541  14.963  0.3461 -0.0308 -0.4644
 3314TIP3    H131357   4.371   5.636  14.961  3.2256  0.3691  0.5432
 3314TIP3    H231358   4.407   5.517  14.875 -0.4490  0.0493 -0.7376
 3315TIP3   OH231359   4.055   4.070  15.777 -0.1226  0.1382  0.2012
 3315TIP3    H131360   3.977   4.108  15.818 -0.5727 -1.1368  0.5752
 3315TIP3    H231361   4.043   4.086  15.683 -0.1245  1.2045  0.3757
 3316TIP3   OH231362   0.527   6.121   2.865 -0.0320 -0.1603  0.0133
 3316TIP3    H131363   0.529   6.047   2.925 -3.2767 -1.4265 -1.2100
 3316TIP3    H231364   0.509   6.083   2.780  1.9441  1.8091 -1.4068
 3317TIP3   OH231365   1.185   4.010  14.046  0.3424  0.7961 -0.1283
 3317TIP3    H131366   1.117   4.050  13.992  0.4676  1.5566  0.2484
 3317TIP3    H231367   1.174   3.916  14.034  1.1330  0.9475 -2.3890
 3318TIP3   OH231368   0.876   0.180   0.996 -0.1285 -0.4061 -0.0663
 3318TIP3    H131369   0.871   0.189   1.091 -1.0394 -0.5501 -0.0939
 3318TIP3    H231370   0.865   0.087   0.980  0.4368 -0.4382 -0.2968
 3319TIP3   OH231371   1.563   2.373  15.136  0.1099 -0.0248  0.8130
 3319TIP3    H131372   1.576   2.440  15.069 -0.4127  1.0957  1.7876
 3319TIP3    H231373   1.617   2.402  15.209  0.6299 -1.1986  0.9211
 3320TIP3   OH231374   4.982   1.281  16.488 -0.3596  0.2668  0.0292
 3320TIP3    H131375   4.995   1.197  16.533 -0.3589  0.8641  1.1729
 3320TIP3    H231376   4.995   1.260  16.396  2.6862 -0.4580  0.4945
 3321TIP3   OH231377   3.404   0.587  15.632 -0.0770  0.2055  0.1941
 3321TIP3    H131378   3.449   0.663  15.596  0.7358 -0.2534  0.2227
 3321TIP3    H231379   3.330   0.572  15.572 -0.6089  1.3647  0.5227
 3322TIP3   OH231380   1.751   5.690   2.064  0.0945  0.2621 -0.0961
 3322TIP3    H131381   1.670   5.664   2.110  0.0299  1.8582  0.7837
 3322TIP3    H231382   1.750   5.785   2.067  0.6134  0.4122 -2.6052
 3323TIP3   OH231383   1.725   1.903  12.508 -0.2757 -0.1309  0.1917
 3323TIP3    H131384   1.642   1.874  12.544  0.3972 -0.2538  1.7305
 3323TIP3    H231385   1.717   1.998  12.500 -0.1950 -0.0062  1.4044
 3324TIP3   OH231386   3.218   3.664   4.634  0.7135  0.1802  0.7404
 3324TIP3    H131387   3.283   3.712   4.685 -1.5069  0.9050  3.1187
 3324TIP3    H231388   3.143   3.724   4.629 -0.2329 -1.0656 -0.8310
 3325TIP3   OH231389   1.519   1.809  10.949  0.0509 -0.3649 -0.3518
 3325TIP3    H131390   1.597   1.844  10.906  0.5244  1.3926  1.7326
 3325TIP3    H231391   1.492   1.736  10.894  2.1359  0.0632 -2.0964
 3326TIP3   OH231392   5.317   6.728  15.585  0.0863 -0.2495  0.0090
 3326TIP3    H131393   5.401   6.693  15.613  0.7909  0.1774 -1.4750
 3326TIP3    H231394   5.279   6.766  15.664  0.5057 -1.9434  1.0635
 3327TIP3   OH231395   3.512   5.161   4.348  0.8181 -0.0620 -0.1504
 3327TIP3    H131396   3.524   5.144   4.441 -2.2051 -0.8224  0.2159
 3327TIP3    H231397   3.525   5.256   4.339 -0.8295  0.3817  1.4891
 3328TIP3   OH231398   3.330   2.475  13.846 -0.3837 -0.1382 -0.3171
 3328TIP3    H131399   3.272   2.543  13.881  0.0380 -0.4440  1.0429
 3328TIP3    H231400   3.369   2.514  13.768  0.5251  1.5251  0.9184
 3329TIP3   OH231401   4.484   5.452   3.835 -0.2971 -0.4025  0.2430
 3329TIP3    H131402   4.391   5.469   3.818 -0.6186  0.3957  2.4677
 3329TIP3    H231403   4.485   5.412   3.922  1.3166 -2.3947 -0.6303
 3330TIP3   OH231404   4.492   6.166  17.156  0.2197  0.0360  0.5115
 3330TIP3    H131405   4.491   6.249  17.107 -1.2473 -0.5559 -0.5168
 3330TIP3    H231406   4.410   6.166  17.205 -0.0598 -1.0505  0.0678
 3331TIP3   OH231407   3.287   4.483  17.265  0.6797  0.0436 -0.8650
 3331TIP3    H131408   3.282   4.389  17.282  0.7729  0.1461 -0.2753
 3331TIP3    H231409   3.367   4.512  17.308  2.3722 -0.1342 -3.6110
 3332TIP3   OH231410   1.854   0.291  14.793  0.5411 -0.0340  0.0803
 3332TIP3    H131411   1.917   0.219  14.789  0.0145 -0.4578 -2.3942
 3332TIP3    H231412   1.897   0.364  14.749 -0.8279 -0.5430 -2.3128
 3333TIP3   OH231413   1.986   2.215  16.915 -0.6475 -0.2457 -0.2802
 3333TIP3    H131414   1.970   2.141  16.855 -1.4752 -0.9435  0.7703
 3333TIP3    H231415   1.965   2.292  16.863  1.7243 -0.5679 -1.9293
 3334TIP3   OH231416   4.604   0.856  13.642  0.0306  0.2235  0.1404
 3334TIP3    H131417   4.525   0.872  13.589 -0.4830 -0.9716  0.5012
 3334TIP3    H231418   4.673   0.906  13.598 -0.0090 -1.9113 -2.6679
 3335TIP3   OH231419   4.884   1.527  16.600  0.4331 -0.4639  0.3602
 3335TIP3    H131420   4.949   1.468  16.562  1.2708  0.6745 -0.0421
 3335TIP3    H231421   4.861   1.586  16.528  0.1517  0.1516  0.9402
 3336TIP3   OH231422   5.388   5.203  14.196 -0.1055 -0.3166  0.4166
 3336TIP3    H131423   5.316   5.142  14.181 -1.4553  1.2405  0.2637
 3336TIP3    H231424   5.404   5.243  14.110  2.3178 -1.9974 -0.0134
 3337TIP3   OH231425   4.984   1.844  12.570  0.4356  0.4756  0.0541
 3337TIP3    H131426   5.030   1.881  12.494 -0.9398  0.9960 -0.5611
 3337TIP3    H231427   5.032   1.764  12.590  1.9384  1.2612 -0.2001
 3338TIP3   OH231428   0.040   3.140   5.488  0.3824  0.7249  0.4165
 3338TIP3    H131429  -0.050   3.166   5.507  0.0053 -0.9352  1.1446
 3338TIP3    H231430   0.045   3.138   5.393 -1.1866 -1.5638  0.2866
 3339TIP3   OH231431   1.812   0.931   5.205  0.1961  0.0850  0.4557
 3339TIP3    H131432   1.820   1.026   5.203  0.8820  0.0320  0.4535
 3339TIP3    H231433   1.891   0.901   5.251 -0.3647 -0.4436  1.0910
 3340TIP3   OH231434   4.282   5.023  14.684  0.3559 -0.1596 -0.2261
 3340TIP3    H131435   4.279   5.094  14.748 -0.1476  1.0741 -1.5671
 3340TIP3    H231436   4.341   4.958  14.723 -2.3192 -0.9622  2.9144
 3341TIP3   OH231437   5.743   6.007  12.926  0.6164  0.9869 -0.3516
 3341TIP3    H131438   5.805   5.941  12.956  0.0486 -0.5630 -2.3878
 3341TIP3    H231439   5.741   6.072  12.997  1.5081 -0.9433  1.5593
 3342TIP3   OH231440   3.969   0.508   1.523  0.0518 -0.1007  0.3594
 3342TIP3    H131441   3.994   0.449   1.451 -0.0437 -1.0192  1.0591
 3342TIP3    H231442   4.050   0.553   1.545  0.0179  0.4043 -0.5156
 3343TIP3   OH231443   1.447   2.479  14.033 -0.7299 -0.0866 -0.1332
 3343TIP3    H131444   1.532   2.478  13.989 -0.9514  0.2274 -0.5799
 3343TIP3    H231445   1.457   2.419  14.107  0.5695  1.6036  1.1388
 3344TIP3   OH231446   4.708   1.827  13.492 -0.1126 -0.5165  0.1216
 3344TIP3    H131447   4.703   1.829  13.588  1.4394  0.8343  0.2202
 3344TIP3    H231448   4.769   1.898  13.470  1.1374 -2.0934 -1.7488
 3345TIP3   OH231449   0.587   2.140   3.844  0.4336  0.0646  0.7170
 3345TIP3    H131450   0.639   2.146   3.764 -0.3353  1.1819  0.2703
 3345TIP3    H231451   0.638   2.083   3.902  1.1878 -0.4502 -0.4195
 3346TIP3   OH231452   3.242   3.917   1.098  0.8686  0.3116 -0.5807
 3346TIP3    H131453   3.194   3.855   1.152  1.0647 -0.2167 -1.0049
 3346TIP3    H231454   3.224   4.002   1.137 -0.4551  0.1323 -0.7759
 3347TIP3   OH231455   5.630   5.628   1.407 -0.3646 -1.0084 -0.0025
 3347TIP3    H131456   5.546   5.613   1.363 -1.1332  0.2563  0.9527
 3347TIP3    H231457   5.610   5.616   1.500  0.0912  0.8878  0.3869
 3348TIP3   OH231458   4.219   5.211  11.227 -0.5392 -0.2653  0.1772
 3348TIP3    H131459   4.128   5.184  11.243 -0.9284  0.7008 -0.3403
 3348TIP3    H231460   4.219   5.244  11.137  0.4226 -0.6370  0.0291
 3349TIP3   OH231461   4.269   2.785  16.936  0.0687 -0.6734 -0.5104
 3349TIP3    H131462   4.205   2.782  17.008  1.1305  0.9437  0.5956
 3349TIP3    H231463   4.280   2.879  16.919  0.0005 -1.0129 -2.7031
 3350TIP3   OH231464   4.687   4.269  14.933 -0.0050 -0.4248  0.1625
 3350TIP3    H131465   4.623   4.212  14.891 -2.0584  1.3897  0.6528
 3350TIP3    H231466   4.673   4.355  14.894  1.0946  0.3500  1.3756
 3351TIP3   OH231467   5.594   6.326   5.719  0.2685 -0.3584 -0.2490
 3351TIP3    H131468   5.595   6.372   5.636  0.0732 -0.5851 -0.3779
 3351TIP3    H231469   5.512   6.278   5.719 -0.7585  1.2963  0.9833
 3352TIP3   OH231470   6.727   3.473  15.531  0.4862  0.1337 -0.5081
 3352TIP3    H131471   6.677   3.554  15.532 -1.3589 -0.9374 -0.3583
 3352TIP3    H231472   6.701   3.429  15.450  2.4102  0.2095 -1.2232
 3353TIP3   OH231473   1.998   4.993  15.236 -0.4696 -0.2256 -0.1485
 3353TIP3    H131474   1.976   5.075  15.279 -1.8797 -0.7250  0.1541
 3353TIP3    H231475   1.921   4.972  15.183  0.3623 -0.7333 -1.2041
 3354TIP3   OH231476   4.003   6.173   3.783  0.0659 -0.2942 -0.8026
 3354TIP3    H131477   3.993   6.191   3.689  1.3709 -0.0787 -0.9134
 3354TIP3    H231478   4.076   6.228   3.810 -0.6870  0.0989  0.4891
 3355TIP3   OH231479   0.645   2.659   5.831  0.1123 -0.3069 -0.3409
 3355TIP3    H131480   0.631   2.593   5.898 -1.0932  0.1682 -0.1058
 3355TIP3    H231481   0.650   2.742   5.879 -0.3592 -0.0060 -0.7905
 3356TIP3   OH231482   2.205   1.821   2.044 -0.0956  0.7927  0.4769
 3356TIP3    H131483   2.202   1.917   2.049  1.3541  1.1186 -2.5409
 3356TIP3    H231484   2.159   1.800   1.963  0.0594 -1.0186  0.8241
 3357TIP3   OH231485   2.349   3.927   5.018 -0.2910  0.0467  0.2781
 3357TIP3    H131486   2.368   3.874   4.941  1.8858  1.3726 -0.1723
 3357TIP3    H231487   2.424   3.912   5.076 -1.4099 -0.1541  1.7540
 3358TIP3   OH231488   4.661   1.649   4.404  0.3502  0.1673 -0.0070
 3358TIP3    H131489   4.588   1.707   4.426 -1.8951 -2.7403  0.9978
 3358TIP3    H231490   4.725   1.661   4.474 -1.7831 -1.1251  2.3250
 3359TIP3   OH231491   3.987   0.367   2.918 -0.9232 -0.2279  0.0636
 3359TIP3    H131492   4.008   0.298   2.981  1.1317  0.4426  0.1726
 3359TIP3    H231493   3.996   0.326   2.832 -1.2234 -0.4776  0.1498
 3360TIP3   OH231494   0.070   1.807  16.277  1.1062 -0.0932  0.5036
 3360TIP3    H131495  -0.006   1.759  16.245  0.7570  0.4523  0.4927
 3360TIP3    H231496   0.035   1.862  16.347  1.2966  0.8658 -0.1384
 3361TIP3   OH231497   2.287   3.807  16.970 -0.0337 -0.5601 -0.5824
 3361TIP3    H131498   2.263   3.819  17.062 -1.9565  2.2100 -1.3198
 3361TIP3    H231499   2.379   3.833  16.965 -0.5853  1.7882  0.2168
 3362TIP3   OH231500   2.839   5.900  15.237  0.1954  0.6152  0.0189
 3362TIP3    H131501   2.915   5.953  15.213  1.6882 -1.9325 -1.2956
 3362TIP3    H231502   2.868   5.850  15.313 -0.3844  0.0600 -0.1204
 3363TIP3   OH231503   0.302   2.440   2.507 -0.1986 -0.1388  0.1258
 3363TIP3    H131504   0.352   2.504   2.455 -0.9812 -0.3773 -0.9572
 3363TIP3    H231505   0.294   2.364   2.449 -1.0316 -0.4398  0.6268
 3364TIP3   OH231506   5.991   2.574   1.584  0.4402 -0.2371 -0.1224
 3364TIP3    H131507   6.010   2.654   1.534  2.0314 -1.2206 -1.1832
 3364TIP3    H231508   5.988   2.505   1.518  1.8164 -1.4692  1.0416
 3365TIP3   OH231509   4.037   3.603   2.558 -0.2140 -0.1853 -0.0030
 3365TIP3    H131510   4.013   3.695   2.573 -0.5141 -0.4853  1.5680
 3365TIP3    H231511   3.954   3.561   2.535  0.0600  0.0672 -1.5320
 3366TIP3   OH231512   4.855   5.201  12.412  0.0336 -0.2835  0.2371
 3366TIP3    H131513   4.867   5.117  12.368 -0.8940 -1.1247  1.5266
 3366TIP3    H231514   4.777   5.238  12.370 -0.6915 -0.9607  0.9686
 3367TIP3   OH231515   5.546   6.567   6.477  0.0630 -0.1304 -0.2926
 3367TIP3    H131516   5.462   6.579   6.522 -0.7667  0.5248 -1.9562
 3367TIP3    H231517   5.563   6.473   6.484  0.6342  0.0948  2.4832
 3368TIP3   OH231518   4.123   2.878  15.367  0.3608 -0.2138  0.6869
 3368TIP3    H131519   4.056   2.838  15.311  2.1141  0.5612 -2.1540
 3368TIP3    H231520   4.143   2.810  15.432 -1.8517 -1.1017  0.5504
 3369TIP3   OH231521   5.742   6.589   2.779  0.2979 -0.2911  0.0410
 3369TIP3    H131522   5.744   6.514   2.839  3.0204  0.1975  0.7449
 3369TIP3    H231523   5.758   6.552   2.693  0.5242 -0.6471  0.2333
 3370TIP3   OH231524   0.094   5.715   6.277 -0.5220 -0.6351 -0.2040
 3370TIP3    H131525   0.036   5.789   6.260 -0.2176 -0.5125 -0.7305
 3370TIP3    H231526   0.179   5.744   6.244 -0.8295 -1.9946 -2.4023
 3371TIP3   OH231527   2.787   6.704  16.966  0.7846  0.4408 -0.1903
 3371TIP3    H131528   2.734   6.754  16.904  0.3595  2.0341  1.3846
 3371TIP3    H231529   2.730   6.632  16.994  0.9965 -0.3288 -1.6185
 3372TIP3   OH231530   4.209   1.142  12.332  0.2761  0.2086  0.8082
 3372TIP3    H131531   4.293   1.186  12.339 -0.1984  1.1656  0.6574
 3372TIP3    H231532   4.213   1.095  12.249  0.7985 -0.0695  0.9871
 3373TIP3   OH231533   2.153   3.500  13.241 -0.1488  0.0775  0.3289
 3373TIP3    H131534   2.067   3.539  13.255 -0.4844 -0.5302 -0.0233
 3373TIP3    H231535   2.157   3.484  13.147  1.2496  2.1945 -0.0461
 3374TIP3   OH231536   4.626   1.232   5.109  0.2785  0.0720  0.3075
 3374TIP3    H131537   4.568   1.165   5.073 -0.4108  1.7212 -1.8742
 3374TIP3    H231538   4.580   1.263   5.187  0.0661 -1.1713  0.7013
 3375TIP3   OH231539   2.337   5.695   4.237 -0.5272  0.0294 -0.1434
 3375TIP3    H131540   2.315   5.760   4.170  2.0916  1.6881  0.4639
 3375TIP3    H231541   2.311   5.735   4.320  0.4833  0.0248  0.1862
 3376TIP3   OH231542   3.969   5.876  10.976  0.5299  0.2571 -0.1644
 3376TIP3    H131543   3.897   5.933  11.002 -0.0751  0.0724 -1.3855
 3376TIP3    H231544   4.035   5.888  11.044  0.0454  1.7247  0.0747
 3377TIP3   OH231545   4.917   0.683   6.079 -0.3322  0.3589  0.2751
 3377TIP3    H131546   4.953   0.674   6.167 -0.5033  0.2093  0.3310
 3377TIP3    H231547   4.869   0.766   6.082  0.8784  1.0862 -0.1106
 3378TIP3   OH231548   3.969   2.803   3.340  0.0911  0.0678 -0.2265
 3378TIP3    H131549   4.038   2.830   3.399 -1.0633 -0.7633  1.5893
 3378TIP3    H231550   3.888   2.817   3.389 -0.8522 -1.6574 -1.1812
 3379TIP3   OH231551   0.691   1.591   2.456 -0.1422  0.0610 -0.5933
 3379TIP3    H131552   0.756   1.616   2.391  1.1732 -0.1598  0.5708
 3379TIP3    H231553   0.673   1.672   2.504 -0.9577  0.1809 -1.0800
 3380TIP3   OH231554   4.392   6.215   3.633  0.0728 -0.6381 -0.4925
 3380TIP3    H131555   4.360   6.292   3.587 -0.5645 -0.2138  0.6105
 3380TIP3    H231556   4.474   6.193   3.589 -0.7343 -0.5518 -2.0970
 3381TIP3   OH231557   1.782   1.313   0.339  0.3888  0.2831  0.1858
 3381TIP3    H131558   1.863   1.264   0.355  1.8945  1.9295 -1.9080
 3381TIP3    H231559   1.796   1.357   0.255 -2.1805  1.7022  0.3907
 3382TIP3   OH231560   3.968   0.093  16.073 -0.4671  0.1070 -0.1336
 3382TIP3    H131561   4.052   0.137  16.064 -0.4301  0.1717  0.5182
 3382TIP3    H231562   3.917   0.125  15.998 -0.1997  0.7082 -0.0687
 3383TIP3   OH231563   6.442   0.349  12.024  0.6909  0.5543  0.1717
 3383TIP3    H131564   6.440   0.352  11.928 -1.6166  0.3771  0.1523
 3383TIP3    H231565   6.444   0.441  12.051  1.4223  0.6044 -0.0256
 3384TIP3   OH231566   1.292   1.163   5.149  0.5247 -0.0732 -0.1998
 3384TIP3    H131567   1.330   1.076   5.160  1.1167  0.2795  0.7270
 3384TIP3    H231568   1.200   1.153   5.173  0.6410 -0.4013  0.1096
 3385TIP3   OH231569   2.282   6.708   4.016 -0.2208  0.1153 -0.3742
 3385TIP3    H131570   2.352   6.652   4.049 -0.9819  0.5915  2.2128
 3385TIP3    H231571   2.329   6.781   3.974  0.8107 -0.2303  0.1406
 3386TIP3   OH231572   1.067   6.264  14.405 -0.2395 -0.2026 -0.3478
 3386TIP3    H131573   1.026   6.338  14.360  0.9915  0.3158 -0.6314
 3386TIP3    H231574   1.092   6.203  14.336 -0.4170 -0.4683 -0.1826
 3387TIP3   OH231575   2.274   6.308  11.331 -0.1704 -0.0866  0.4707
 3387TIP3    H131576   2.360   6.338  11.302 -1.3990  2.4432 -0.8177
 3387TIP3    H231577   2.254   6.235  11.271  1.2358 -1.1014  1.1531
 3388TIP3   OH231578   1.701   5.801   1.107  0.6233  0.3157 -0.0123
 3388TIP3    H131579   1.772   5.737   1.093  0.3428 -0.5863  2.2999
 3388TIP3    H231580   1.744   5.886   1.099  2.1348 -0.2085  1.8050
 3389TIP3   OH231581   3.461   1.020  13.840 -0.2828  0.2897 -0.0541
 3389TIP3    H131582   3.513   1.061  13.909  0.2622  0.2344 -0.4260
 3389TIP3    H231583   3.403   0.958  13.886 -0.8302  1.1720  0.4692
 3390TIP3   OH231584   2.468   1.341  14.879 -0.3463  0.1927  0.8027
 3390TIP3    H131585   2.489   1.405  14.810  1.1583  0.4503  1.4645
 3390TIP3    H231586   2.383   1.304  14.852  0.8158 -0.7738 -2.0001
 3391TIP3   OH231587   2.924   4.703   5.867  0.3313  0.0640 -0.2195
 3391TIP3    H131588   2.943   4.700   5.961 -0.3567  0.7954 -0.0505
 3391TIP3    H231589   2.900   4.613   5.845 -0.5362  0.0998  0.5296
 3392TIP3   OH231590   4.062   5.366   0.304  0.3272  0.5964  0.1177
 3392TIP3    H131591   4.054   5.453   0.264 -1.8132 -0.6223 -2.3886
 3392TIP3    H231592   4.109   5.314   0.239 -1.0552 -0.8314  0.2053
 3393TIP3   OH231593   4.198   4.917   3.308 -0.0301  0.0817  0.4907
 3393TIP3    H131594   4.209   4.884   3.219 -0.4116  0.5824  0.2490
 3393TIP3    H231595   4.178   5.010   3.296  1.2182  0.4561  1.1566
 3394TIP3   OH231596   2.201   6.771  14.141  0.4640 -0.2858 -0.2712
 3394TIP3    H131597   2.192   6.866  14.132  3.1674  0.0223 -0.6568
 3394TIP3    H231598   2.236   6.742  14.057 -1.5335 -1.8701 -0.6150
 3395TIP3   OH231599   2.199   1.623  14.272 -0.1856  0.2122  0.0419
 3395TIP3    H131600   2.164   1.540  14.307  1.2097  0.5288  2.4344
 3395TIP3    H231601   2.180   1.687  14.340 -0.0665  1.6061 -1.2004
 3396TIP3   OH231602   3.048   1.649   1.859  0.5070 -0.0286  0.1614
 3396TIP3    H131603   3.062   1.743   1.871 -0.2930  0.1877 -0.4792
 3396TIP3    H231604   2.970   1.630   1.911  1.2052 -0.5521  1.0638
 3397TIP3   OH231605   1.797   1.350   2.927 -0.4898  0.0602  0.0567
 3397TIP3    H131606   1.723   1.357   2.987 -0.7276  0.9443 -0.3172
 3397TIP3    H231607   1.784   1.422   2.865  0.9922  0.6020  0.3320
 3398TIP3   OH231608   2.615   4.640  13.549 -0.0691  0.1444  0.0433
 3398TIP3    H131609   2.571   4.692  13.616  1.7161  2.4476 -0.4363
 3398TIP3    H231610   2.696   4.612  13.591  0.5353  0.6410 -0.7833
 3399TIP3   OH231611   1.006   6.028  17.076  0.6922  0.3465  0.8519
 3399TIP3    H131612   0.938   5.970  17.110  0.9228  0.9008  2.3494
 3399TIP3    H231613   0.965   6.115  17.076 -0.0704  0.1161 -2.5413
 3400TIP3   OH231614   1.438   1.576  12.186  0.6837 -0.0283  0.2459
 3400TIP3    H131615   1.508   1.619  12.137  0.5830  2.5194  2.0793
 3400TIP3    H231616   1.475   1.564  12.274  0.2379 -2.6839  0.1469
 3401TIP3   OH231617   3.839   2.062   2.179  0.4851  0.2714  0.7611
 3401TIP3    H131618   3.748   2.060   2.150  0.6300  2.0106  0.1061
 3401TIP3    H231619   3.858   1.971   2.202 -0.9045 -0.4345 -0.6772
 3402TIP3   OH231620   4.513   1.651  11.332  0.4194 -0.1006  0.3866
 3402TIP3    H131621   4.593   1.599  11.325  1.1153  0.8323  1.1817
 3402TIP3    H231622   4.473   1.622  11.415  0.8416  0.6446  0.8639
 3403TIP3   OH231623   3.961   1.851   1.610 -0.1682  0.5996  0.2843
 3403TIP3    H131624   3.954   1.897   1.527  0.2812  2.1772  1.0714
 3403TIP3    H231625   4.043   1.803   1.605 -0.8468 -0.5064 -0.7122
 3404TIP3   OH231626   2.224   3.405   2.174  0.6325  0.1627 -0.0319
 3404TIP3    H131627   2.276   3.478   2.208 -1.1182  1.7113 -0.4915
 3404TIP3    H231628   2.216   3.345   2.248  2.6026  0.0884  0.1873
 3405TIP3   OH231629   6.492   6.596  16.888 -0.1692 -0.0789 -0.9806
 3405TIP3    H131630   6.538   6.671  16.926 -1.9638  0.7841 -0.3882
 3405TIP3    H231631   6.545   6.572  16.811  1.5455  0.4636 -0.0285
 3406TIP3   OH231632   2.826   0.177  14.876  0.4344 -0.1736  0.4275
 3406TIP3    H131633   2.840   0.268  14.849  1.7460 -0.4235  0.1967
 3406TIP3    H231634   2.778   0.184  14.958 -0.4760  0.6869 -0.1446
 3407TIP3   OH231635   2.312   3.984   2.626  0.0380  0.0756  0.5450
 3407TIP3    H131636   2.310   3.903   2.576 -2.8404 -0.3859  1.1721
 3407TIP3    H231637   2.403   3.996   2.651  1.1279 -1.0830 -2.4478
 3408TIP3   OH231638   0.800   0.939  16.855 -0.4247 -0.2839  0.0367
 3408TIP3    H131639   0.766   0.972  16.771  1.0518  0.8275 -0.1591
 3408TIP3    H231640   0.852   1.011  16.890  0.6099 -1.4494  0.9788
 3409TIP3   OH231641   6.327   4.496  16.096  0.1171 -0.4376 -0.1083
 3409TIP3    H131642   6.366   4.410  16.109 -0.2140 -0.3769  1.5281
 3409TIP3    H231643   6.233   4.482  16.106  0.1229  0.2345  1.1317
 3410TIP3   OH231644   1.387   3.654  13.174  0.3366 -0.5373  0.0466
 3410TIP3    H131645   1.427   3.632  13.090 -0.5391  1.0871 -0.8604
 3410TIP3    H231646   1.388   3.573  13.224 -1.9491 -2.4556 -2.7075
 3411TIP3   OH231647   4.172   5.488   4.148 -0.0446  0.5155 -0.2040
 3411TIP3    H131648   4.096   5.536   4.181 -0.4915 -0.2424 -0.1013
 3411TIP3    H231649   4.138   5.401   4.126  0.1310  1.0731 -3.0684
 3412TIP3   OH231650   3.174   6.529   3.937 -0.1047 -0.5852 -0.6480
 3412TIP3    H131651   3.127   6.608   3.964 -0.5470 -0.7465 -0.9413
 3412TIP3    H231652   3.127   6.498   3.860 -0.8424 -1.9768  0.3280
 3413TIP3   OH231653   5.985   5.670  14.891  0.4094 -0.0621 -0.1559
 3413TIP3    H131654   5.975   5.607  14.962  1.4572  0.9416  0.9532
 3413TIP3    H231655   5.980   5.755  14.935  0.8618  0.5881 -1.3291
 3414TIP3   OH231656   6.083   5.976   3.337 -0.1430 -0.3052 -0.6355
 3414TIP3    H131657   6.020   5.947   3.403  0.8892  0.4081  0.7214
 3414TIP3    H231658   6.080   6.072   3.341  2.0919 -0.2145  0.6079
 3415TIP3   OH231659   3.618   1.517  13.971  0.4229  0.3174 -0.1583
 3415TIP3    H131660   3.523   1.530  13.971  0.2546 -0.6519  1.2999
 3415TIP3    H231661   3.651   1.577  14.038  0.6561 -0.4068  0.3857
 3416TIP3   OH231662   5.322   2.898   2.085  0.7558 -0.3523 -0.0009
 3416TIP3    H131663   5.362   2.911   2.171 -0.9975  0.8521  0.6826
 3416TIP3    H231664   5.391   2.920   2.023  1.0464  2.4070  1.1309
 3417TIP3   OH231665   5.914   3.017   1.198 -0.1344  0.5207 -0.2677
 3417TIP3    H131666   5.821   3.026   1.217  0.1373  2.1639  0.4951
 3417TIP3    H231667   5.920   3.026   1.103 -0.7386  0.4981 -0.3107
 3418TIP3   OH231668   5.365   1.854  13.726  0.0865 -0.2653 -0.2302
 3418TIP3    H131669   5.283   1.832  13.770  0.6229  0.1785  1.0130
 3418TIP3    H231670   5.430   1.798  13.768  0.1257 -2.2666 -2.6982
 3419TIP3   OH231671   1.965   6.440  14.922  0.9563  0.1114 -0.1055
 3419TIP3    H131672   1.991   6.355  14.958  0.0255  0.1903  0.7942
 3419TIP3    H231673   1.974   6.500  14.996 -1.3975  0.2054  0.1642
 3420TIP3   OH231674   2.433   6.050   6.202 -0.1063 -0.2834  0.4555
 3420TIP3    H131675   2.365   6.108   6.237 -0.4979 -1.1947  1.2274
 3420TIP3    H231676   2.416   5.965   6.242 -0.7290 -1.4847 -2.1077
 3421TIP3   OH231677   0.756   1.740  10.781  0.0268  0.1473  0.1877
 3421TIP3    H131678   0.797   1.823  10.756 -1.0841  0.3755 -1.0074
 3421TIP3    H231679   0.663   1.760  10.784 -0.2068 -0.9427  0.3955
 3422TIP3   OH231680   5.395   2.110  13.401 -0.1718 -0.0623  0.7141
 3422TIP3    H131681   5.357   2.195  13.420 -0.1909  0.9054 -2.9311
 3422TIP3    H231682   5.392   2.103  13.306  3.0557 -2.6496  0.6352
 3423TIP3   OH231683   4.444   3.542   5.105 -0.0908 -0.7142 -0.0066
 3423TIP3    H131684   4.411   3.544   5.015 -1.1895 -5.1687  0.0400
 3423TIP3    H231685   4.366   3.554   5.159  0.0143 -1.1716  0.2557
 3424TIP3   OH231686   3.626   0.147   3.517  0.4992  0.4680  0.7660
 3424TIP3    H131687   3.595   0.203   3.588 -0.1644 -1.2388  1.8877
 3424TIP3    H231688   3.709   0.113   3.549  0.1251 -0.4214  0.8068
 3425TIP3   OH231689   3.405   5.237  15.262  0.6131  0.5453  0.1490
 3425TIP3    H131690   3.365   5.322  15.243  0.1610  0.3720  0.3163
 3425TIP3    H231691   3.389   5.184  15.184 -1.0515 -0.0954  0.8897
 3426TIP3   OH231692   4.822   3.170   2.518  0.1930  0.5414  0.1154
 3426TIP3    H131693   4.882   3.100   2.544  1.4957  1.1260 -1.1300
 3426TIP3    H231694   4.827   3.171   2.422  0.2479  2.3309  0.0944
 3427TIP3   OH231695   4.297   2.105   3.168  0.4783 -0.2446 -0.2053
 3427TIP3    H131696   4.307   2.047   3.093 -0.1245 -1.6541  0.7553
 3427TIP3    H231697   4.343   2.061   3.239 -2.9169 -1.4267  1.4750
 3428TIP3   OH231698   5.064   0.934  15.375 -0.2160  0.6166 -0.1161
 3428TIP3    H131699   5.041   0.932  15.282  0.8827  0.4996 -0.4070
 3428TIP3    H231700   5.103   0.848  15.392 -0.1725  0.7323  0.3856
 3429TIP3   OH231701   6.000   5.896   4.975 -0.0565 -0.1445 -0.2736
 3429TIP3    H131702   5.919   5.934   4.942 -0.5924 -1.6648 -0.7516
 3429TIP3    H231703   6.069   5.937   4.922 -0.6928 -0.5139 -1.4158
 3430TIP3   OH231704   4.322   6.279   0.706 -0.0590 -0.1046  0.0065
 3430TIP3    H131705   4.251   6.216   0.716  1.0278 -1.2535  0.8422
 3430TIP3    H231706   4.287   6.361   0.741 -0.5292 -0.9890  1.7323
 3431TIP3   OH231707   2.224   1.305   4.259 -0.1015  0.6226 -0.0392
 3431TIP3    H131708   2.269   1.252   4.325 -1.2465  0.0876  0.3285
 3431TIP3    H231709   2.264   1.279   4.176 -0.1581 -0.3121  0.2127
 3432TIP3   OH231710   4.777   1.013   2.836  0.1029 -0.1274  0.6700
 3432TIP3    H131711   4.823   1.008   2.920 -1.7350  0.3057  1.7542
 3432TIP3    H231712   4.743   1.103   2.833 -1.6499 -0.7738  0.4712
 3433TIP3   OH231713   3.368   1.243   5.114 -0.0933 -0.0781 -0.3504
 3433TIP3    H131714   3.450   1.247   5.065 -0.2635  0.3576 -0.6002
 3433TIP3    H231715   3.336   1.154   5.100  0.6745 -0.4714  0.3063
 3434TIP3   OH231716   6.665   5.578  13.260  0.1786  0.3882  0.2612
 3434TIP3    H131717   6.585   5.550  13.306 -0.1344  0.3508 -0.3064
 3434TIP3    H231718   6.662   5.531  13.177  1.1230 -0.1181  0.5005
 3435TIP3   OH231719   2.440   2.266  16.394  0.3685  0.0603  0.1893
 3435TIP3    H131720   2.523   2.248  16.351 -0.0149  2.3063 -1.6130
 3435TIP3    H231721   2.455   2.346  16.444 -0.8341  0.7575 -0.5417
 3436TIP3   OH231722   0.425   6.143  14.123 -0.5495 -0.6677  0.0403
 3436TIP3    H131723   0.344   6.102  14.092 -0.4290 -0.5161 -0.4881
 3436TIP3    H231724   0.455   6.085  14.193  0.5025 -2.4434 -1.7642
 3437TIP3   OH231725   2.115   2.272   2.384 -0.5170 -0.6599  0.1541
 3437TIP3    H131726   2.137   2.324   2.460  0.0226  0.3114 -0.6459
 3437TIP3    H231727   2.132   2.329   2.309 -2.0759 -1.2002 -0.6749
 3438TIP3   OH231728   2.576   0.347   2.004  0.3056  0.4447 -0.1956
 3438TIP3    H131729   2.668   0.322   1.997 -0.2147 -2.1389  0.9592
 3438TIP3    H231730   2.547   0.311   2.088 -1.6736  1.5366 -0.3395
 3439TIP3   OH231731   4.882   6.148  15.728 -0.0915 -0.4028 -0.1346
 3439TIP3    H131732   4.821   6.127  15.799 -0.9368  0.2759 -0.6412
 3439TIP3    H231733   4.882   6.069  15.673 -0.8421 -0.2653 -0.3476
 3440TIP3   OH231734   1.648   4.073   4.225  0.4800 -0.0475 -0.2170
 3440TIP3    H131735   1.585   4.005   4.200  0.9623 -1.0057  1.0715
 3440TIP3    H231736   1.615   4.107   4.308  0.3649  1.1695 -0.7393
 3441TIP3   OH231737   6.350   1.937  17.270 -0.4682 -0.2122 -0.1734
 3441TIP3    H131738   6.275   1.929  17.210 -0.4711 -1.1134 -0.0611
 3441TIP3    H231739   6.324   1.887  17.347  0.5983 -1.2891 -0.4803
 3442TIP3   OH231740   1.586   0.259   0.540 -0.1020  0.2915 -0.2365
 3442TIP3    H131741   1.550   0.181   0.583  0.2868  0.4743  0.4433
 3442TIP3    H231742   1.665   0.227   0.495 -0.1664  0.2150 -0.2950
 3443TIP3   OH231743   1.841   3.151   0.969 -0.1046 -0.1045  0.2857
 3443TIP3    H131744   1.890   3.207   1.029  1.1345 -2.7014  1.8552
 3443TIP3    H231745   1.901   3.080   0.948 -2.2997 -2.0544  0.2133
 3444TIP3   OH231746   5.185   1.681   5.846 -0.2288  0.3120 -0.1442
 3444TIP3    H131747   5.120   1.632   5.897 -0.2789  1.7035  1.2131
 3444TIP3    H231748   5.269   1.646   5.874 -0.2819  0.6717  0.4945
 3445TIP3   OH231749   3.747   2.250   4.819  0.1070  0.6394  0.3846
 3445TIP3    H131750   3.784   2.308   4.886  0.3995  2.3928 -1.1860
 3445TIP3    H231751   3.654   2.271   4.818  0.1678  0.9189  0.0078
 3446TIP3   OH231752   4.027   2.688  15.131 -0.6283  0.4373 -0.3486
 3446TIP3    H131753   4.114   2.656  15.104 -0.5355 -0.0294  0.4768
 3446TIP3    H231754   3.989   2.724  15.051  0.5343  1.1164 -0.6175
 3447TIP3   OH231755   2.438   2.765   6.919  0.0906  0.4377  0.1317
 3447TIP3    H131756   2.504   2.835   6.910  1.4239 -0.7078  0.6518
 3447TIP3    H231757   2.488   2.688   6.945 -1.2644 -0.8938 -1.0092
 3448TIP3   OH231758   3.220   0.580  12.787  0.0914 -0.3803  0.3183
 3448TIP3    H131759   3.149   0.538  12.741 -1.5219  1.3600  1.0760
 3448TIP3    H231760   3.233   0.663  12.741  2.0850 -0.9058 -0.1766
 3449TIP3   OH231761   2.483   5.709  13.835  0.1386  0.8239  0.2243
 3449TIP3    H131762   2.509   5.618  13.849  0.5194  0.9262  0.2045
 3449TIP3    H231763   2.457   5.741  13.921  2.0195  1.3139  0.6573
 3450TIP3   OH231764   2.641   0.313  13.734 -0.0540  0.6152  0.1246
 3450TIP3    H131765   2.583   0.247  13.771 -1.2616  1.4509 -0.2080
 3450TIP3    H231766   2.596   0.341  13.654  1.7197 -0.0353 -1.1553
 3451TIP3   OH231767   5.576   2.985  12.472  0.5498 -0.5547 -0.4651
 3451TIP3    H131768   5.538   3.047  12.409  0.3576  0.4255  0.5970
 3451TIP3    H231769   5.639   3.036  12.522  0.8703 -1.3790 -0.0099
 3452TIP3   OH231770   5.563   4.491  14.972 -0.0901  0.1423 -0.3428
 3452TIP3    H131771   5.604   4.500  14.886  0.1576  0.1322 -0.2260
 3452TIP3    H231772   5.600   4.410  15.008  0.2098  0.4227 -0.0107
 3453TIP3   OH231773   4.831   5.337  11.845 -0.2446 -0.0566  0.2897
 3453TIP3    H131774   4.770   5.319  11.918  0.8435 -0.6928  1.0720
 3453TIP3    H231775   4.805   5.423  11.813 -1.7187 -0.4143  0.4375
 3454TIP3   OH231776   0.537   2.215  12.747 -0.3396 -0.5981 -0.0102
 3454TIP3    H131777   0.517   2.186  12.836 -1.6660  0.2664 -0.0067
 3454TIP3    H231778   0.550   2.310  12.754 -1.2794 -0.3911 -0.8549
 3455TIP3   OH231779   4.789   6.381   1.985  0.0624 -0.1451  1.0028
 3455TIP3    H131780   4.836   6.354   1.906  0.8022 -0.9185  1.6830
 3455TIP3    H231781   4.710   6.425   1.952  0.8709  0.4926 -0.1549
 3456TIP3   OH231782   1.141   3.537  16.275 -0.7380 -0.4343 -0.4134
 3456TIP3    H131783   1.221   3.518  16.325 -0.8037  0.8803  0.2170
 3456TIP3    H231784   1.172   3.544  16.184 -0.3123 -0.9095 -0.3163
 3457TIP3   OH231785   2.964   2.458  13.876  0.3884 -0.2982 -0.2710
 3457TIP3    H131786   3.008   2.469  13.792  0.4171  3.3594  0.0763
 3457TIP3    H231787   3.033   2.430  13.936  1.3363  1.0854 -0.6641
 3458TIP3   OH231788   2.480   3.573  15.596 -0.3645  0.4881 -0.1056
 3458TIP3    H131789   2.464   3.619  15.679 -0.0962 -1.0180  0.8246
 3458TIP3    H231790   2.575   3.566  15.590 -0.3550  1.1329 -0.8723
 3459TIP3   OH231791   5.804   2.654   2.270  0.2134  0.1601 -0.0072
 3459TIP3    H131792   5.887   2.677   2.311  0.1263 -1.5870  1.2347
 3459TIP3    H231793   5.738   2.702   2.320  0.4214  1.4394 -0.9069
 3460TIP3   OH231794   4.411   4.467  16.231  0.3375  0.0099 -0.1092
 3460TIP3    H131795   4.482   4.483  16.293  0.5013 -2.0179  0.2940
 3460TIP3    H231796   4.337   4.439  16.285  0.2013 -0.8898 -0.7310
 3461TIP3   OH231797   1.544   1.480  16.035 -0.2594  0.0299 -0.1633
 3461TIP3    H131798   1.513   1.466  15.945 -0.6271  1.1252 -0.2291
 3461TIP3    H231799   1.506   1.565  16.060  0.5972  0.1767  0.6875
 3462TIP3   OH231800   2.130   2.656   3.380 -0.1512 -0.1997  0.1265
 3462TIP3    H131801   2.123   2.617   3.467 -1.5109  0.8405  0.5129
 3462TIP3    H231802   2.072   2.731   3.382  1.6008  1.2884 -0.9220
 3463TIP3   OH231803   0.519   3.968  16.797 -0.2064  0.2606  0.0647
 3463TIP3    H131804   0.498   3.997  16.885 -0.8689  1.0193 -0.3282
 3463TIP3    H231805   0.506   3.874  16.798 -1.8560  0.4648  0.3495
 3464TIP3   OH231806   2.008   5.998  10.916 -0.2358  0.5276 -0.3063
 3464TIP3    H131807   2.020   5.919  10.863 -3.2352  1.1209 -2.1183
 3464TIP3    H231808   1.971   6.062  10.855 -0.8073  2.3371  1.8136
 3465TIP3   OH231809   4.318   1.335   2.487  0.1045 -0.5702 -0.1930
 3465TIP3    H131810   4.297   1.292   2.405 -0.2162  1.6969 -1.3941
 3465TIP3    H231811   4.378   1.275   2.532 -1.2703 -2.7599 -1.1320
 3466TIP3   OH231812   4.375   2.629   5.492  0.7145  0.6360 -0.2484
 3466TIP3    H131813   4.345   2.694   5.429 -0.1203  1.6868  1.1593
 3466TIP3    H231814   4.420   2.680   5.559  0.8325 -0.3440  0.4392
 3467TIP3   OH231815   1.776   0.458  13.297 -0.5329  0.0889  0.1147
 3467TIP3    H131816   1.739   0.375  13.267 -0.1525 -0.1629  0.3275
 3467TIP3    H231817   1.776   0.451  13.393  1.6112 -0.6553  0.1346
 3468TIP3   OH231818   0.760   1.102   5.710 -0.3504 -0.1444  0.2163
 3468TIP3    H131819   0.849   1.087   5.678  0.2571 -0.0705  1.8114
 3468TIP3    H231820   0.770   1.163   5.783 -1.8225  0.6193 -0.1862
 3469TIP3   OH231821   1.035   4.444  16.770 -0.3469  0.1448 -0.1375
 3469TIP3    H131822   1.002   4.520  16.721 -2.2026 -0.0114  0.7954
 3469TIP3    H231823   1.079   4.482  16.846  0.5089  0.3024 -0.6799
 3470TIP3   OH231824   6.496   3.940   6.549 -0.1386 -0.6668  0.4146
 3470TIP3    H131825   6.551   4.017   6.540  0.5843 -1.3167 -1.1583
 3470TIP3    H231826   6.545   3.870   6.505 -1.5985 -1.5955  0.1928
 3471TIP3   OH231827   3.539   1.954   3.120 -0.8036  0.1363  0.2541
 3471TIP3    H131828   3.632   1.949   3.143 -0.3255 -2.5927 -1.6837
 3471TIP3    H231829   3.530   2.036   3.072  1.2192 -0.5797 -1.5338
 3472TIP3   OH231830   3.865   5.692   5.013  0.1624 -0.0580  0.2366
 3472TIP3    H131831   3.851   5.725   4.924  2.4635 -0.6382 -0.4367
 3472TIP3    H231832   3.847   5.598   5.007 -0.1628 -0.0131  0.5083
 3473TIP3   OH231833   6.409   4.927  10.912  0.0581 -0.2147 -0.3515
 3473TIP3    H131834   6.403   4.970  10.997  0.4893  0.7209 -0.7651
 3473TIP3    H231835   6.321   4.931  10.876  0.5028  2.6991 -1.4410
 3474TIP3   OH231836   4.536   5.155   2.566 -0.1501 -0.6398  0.2114
 3474TIP3    H131837   4.591   5.223   2.526  1.4840 -0.8741  1.9215
 3474TIP3    H231838   4.466   5.203   2.609 -0.4279 -0.2275 -0.6679
 3475TIP3   OH231839   1.385   3.465   2.649 -0.2881  0.3353  0.3270
 3475TIP3    H131840   1.296   3.444   2.619 -0.0766 -1.9206  1.0556
 3475TIP3    H231841   1.426   3.509   2.575 -0.8879 -1.8529 -1.4283
 3476TIP3   OH231842   2.686   6.586   1.704  0.0830 -0.2006 -0.0195
 3476TIP3    H131843   2.638   6.566   1.624 -0.6883 -2.6472  0.9570
 3476TIP3    H231844   2.622   6.574   1.774  1.0776  0.5998  1.0696
 3477TIP3   OH231845   1.801   1.619   2.399  0.2582  0.0533  0.1581
 3477TIP3    H131846   1.860   1.678   2.446  1.2402  0.3844 -1.4081
 3477TIP3    H231847   1.717   1.628   2.444  0.7916  1.4405  0.9429
 3478TIP3   OH231848   0.359   3.635  12.572  0.0211 -0.2501  0.2983
 3478TIP3    H131849   0.374   3.558  12.626 -2.0888  0.7124  2.4067
 3478TIP3    H231850   0.306   3.602  12.499 -1.1750 -0.7783  1.3663
 3479TIP3   OH231851   6.297   4.261  14.046  0.2045  0.1999 -0.4295
 3479TIP3    H131852   6.290   4.221  13.959 -0.4718 -0.5087 -0.0574
 3479TIP3    H231853   6.276   4.190  14.107  0.3055  0.7851  0.2998
 3480TIP3   OH231854   0.312   5.412  13.325  0.2260  0.3846  0.1054
 3480TIP3    H131855   0.247   5.394  13.393 -0.8398 -0.1992 -1.0463
 3480TIP3    H231856   0.333   5.505  13.336 -2.5275  1.2009 -0.9562
 3481TIP3   OH231857   5.064   5.031  14.961 -0.3675  0.3821  1.0100
 3481TIP3    H131858   5.003   5.090  15.006 -3.1920 -2.3494  1.0472
 3481TIP3    H231859   5.119   4.997  15.031 -0.0844  1.3571  1.2872
 3482TIP3   OH231860   3.773   5.888   0.846 -0.6346  0.1780 -0.0946
 3482TIP3    H131861   3.722   5.966   0.825 -0.5691  0.5512  1.0788
 3482TIP3    H231862   3.806   5.858   0.761 -4.1070 -1.0604 -1.1539
 3483TIP3   OH231863   6.593   2.944   4.761 -0.3840  0.4214  0.3345
 3483TIP3    H131864   6.532   2.899   4.820 -1.3638 -0.3022 -1.1834
 3483TIP3    H231865   6.677   2.901   4.776 -1.4644 -2.7405 -1.7637
 3484TIP3   OH231866   2.423   5.800   3.273  0.3652 -0.0777 -0.3243
 3484TIP3    H131867   2.396   5.881   3.317  1.4967  0.3683 -0.4286
 3484TIP3    H231868   2.422   5.734   3.343 -2.9212 -0.5963 -0.6829
 3485TIP3   OH231869   1.821   4.698  15.715  0.7826  0.6047 -0.5980
 3485TIP3    H131870   1.741   4.749  15.727  1.4602  1.8581 -1.1813
 3485TIP3    H231871   1.846   4.714  15.624  1.2785 -0.3974 -0.6511
 3486TIP3   OH231872   0.262   5.970   5.626  0.1073  0.6946 -0.0634
 3486TIP3    H131873   0.268   5.990   5.720 -0.3816 -1.9848  0.6316
 3486TIP3    H231874   0.270   5.875   5.621  0.5532  0.7899 -2.8163
 3487TIP3   OH231875   6.136   2.460  16.550 -0.0529  0.1434 -0.2888
 3487TIP3    H131876   6.052   2.505  16.539 -0.2279 -0.2894 -0.7547
 3487TIP3    H231877   6.138   2.434  16.642 -1.0092 -0.9721 -0.5634
 3488TIP3   OH231878   0.839   3.572   6.422 -0.4515 -0.4007  0.1935
 3488TIP3    H131879   0.824   3.484   6.458 -1.7236 -1.0132 -1.6878
 3488TIP3    H231880   0.784   3.576   6.344 -0.9107  2.3185  0.5552
 3489TIP3   OH231881   3.028   2.375  16.848 -0.4543 -0.0345 -0.1964
 3489TIP3    H131882   2.985   2.344  16.928 -0.8115  0.1097 -0.3303
 3489TIP3    H231883   3.102   2.427  16.879 -1.0273  0.6450  0.0574
 3490TIP3   OH231884   0.086   4.498   5.150 -0.1968 -0.2616  0.7257
 3490TIP3    H131885   0.150   4.509   5.220  0.3761  0.3497  0.1215
 3490TIP3    H231886   0.114   4.419   5.104  0.1864  0.0722  0.3907
 3491TIP3   OH231887   4.947   3.011   1.102  0.2357 -0.5191 -0.0268
 3491TIP3    H131888   5.025   2.975   1.061 -0.1222  0.3772 -1.5820
 3491TIP3    H231889   4.921   3.084   1.045 -1.0238 -0.0145  1.1249
 3492TIP3   OH231890   5.405   3.249   4.697 -0.3692  0.2892  0.4488
 3492TIP3    H131891   5.384   3.255   4.790 -1.2942 -3.2693  0.6030
 3492TIP3    H231892   5.331   3.289   4.653 -1.0611 -0.1072  1.2341
 3493TIP3   OH231893   3.233   2.145   2.958  0.3414 -0.1372 -0.4748
 3493TIP3    H131894   3.307   2.185   3.003 -1.3414 -0.5580  3.0157
 3493TIP3    H231895   3.270   2.110   2.877  3.2489  2.3171 -0.3855
 3494TIP3   OH231896   1.869   0.732   0.643  0.5539  0.1303 -0.5872
 3494TIP3    H131897   1.776   0.709   0.647  0.2180  1.5889  0.6722
 3494TIP3    H231898   1.909   0.680   0.713  0.6794 -0.4100 -1.0538
 3495TIP3   OH231899   2.659   2.997   2.343  0.4327 -0.6384 -0.3199
 3495TIP3    H131900   2.620   2.910   2.355 -1.8326  0.5126  1.5464
 3495TIP3    H231901   2.607   3.038   2.274 -0.6527  0.2869  0.9834
 3496TIP3   OH231902   3.777   3.759   1.200 -0.2411 -0.0019  0.0886
 3496TIP3    H131903   3.797   3.841   1.155  0.3077 -0.1828 -0.0091
 3496TIP3    H231904   3.690   3.735   1.169  0.1410 -0.1447 -0.9232
 3497TIP3   OH231905   4.857   2.374  11.679 -0.2634  0.1829  0.2723
 3497TIP3    H131906   4.794   2.395  11.747  1.2942  1.9107  1.2900
 3497TIP3    H231907   4.938   2.417  11.707  1.0891 -1.0279 -1.4990
 3498TIP3   OH231908   5.546   2.283  11.491 -1.0041 -0.2337  0.4629
 3498TIP3    H131909   5.581   2.313  11.407 -1.1950  2.1042  1.1544
 3498TIP3    H231910   5.480   2.218  11.467 -0.2367 -0.4854 -1.1271
 3499TIP3   OH231911   6.757   1.345   4.844  0.2310  0.1217 -0.0490
 3499TIP3    H131912   6.769   1.433   4.807 -0.0563  0.0838 -0.2402
 3499TIP3    H231913   6.808   1.346   4.925 -0.6900  0.8639  0.5623
 3500TIP3   OH231914   4.832   3.297   3.925 -0.6567 -0.0688  0.2399
 3500TIP3    H131915   4.782   3.374   3.954  0.3838  0.5700  0.3867
 3500TIP3    H231916   4.878   3.328   3.846 -0.5943 -0.6897  0.0310
 3501TIP3   OH231917   3.478   0.126   2.417  0.2355  0.0887  0.0897
 3501TIP3    H131918   3.528   0.079   2.483 -1.3393 -0.6596  0.8077
 3501TIP3    H231919   3.502   0.218   2.430 -0.3312  0.0153  2.0167
 3502TIP3   OH231920   3.074   4.028   5.560 -0.3388 -0.5330  0.3673
 3502TIP3    H131921   3.088   4.113   5.519  2.6967 -0.5021  1.2784
 3502TIP3    H231922   2.992   4.039   5.608  1.2453  2.9023  2.7396
 3503TIP3   OH231923   2.162   1.558  15.726 -0.1159  0.2181 -0.1088
 3503TIP3    H131924   2.155   1.652  15.739 -0.0006  0.2215 -0.0731
 3503TIP3    H231925   2.254   1.537  15.745 -0.7820 -0.3824  2.9010
 3504TIP3   OH231926   1.012   4.249   2.099 -0.5407  0.4614 -0.2492
 3504TIP3    H131927   0.936   4.209   2.142 -1.2281 -0.6816 -2.3869
 3504TIP3    H231928   0.983   4.264   2.009  1.9222 -0.5149 -1.2813
 3505TIP3   OH231929   0.650   5.428  16.516  0.1155 -0.0868  0.0267
 3505TIP3    H131930   0.707   5.505  16.519  0.6327 -0.3408 -1.7766
 3505TIP3    H231931   0.626   5.412  16.607  0.9278  1.5106  0.5613
 3506TIP3   OH231932   4.758   1.861  14.319 -0.4898 -0.0753  0.1211
 3506TIP3    H131933   4.702   1.836  14.392 -1.5712 -2.2436 -1.3300
 3506TIP3    H231934   4.797   1.778  14.289  2.6189  1.1829  0.3058
 3507TIP3   OH231935   6.725   4.442   1.052  0.2113 -0.1850 -0.2853
 3507TIP3    H131936   6.742   4.423   1.144  1.0997 -0.3362 -0.4718
 3507TIP3    H231937   6.771   4.524   1.035 -2.4688  1.5587  0.1560
 3508TIP3   OH231938   0.339   1.294   1.520 -0.2981 -0.0046  0.1525
 3508TIP3    H131939   0.394   1.223   1.488 -0.8557 -0.6994  0.6833
 3508TIP3    H231940   0.400   1.359   1.555  0.2589  0.2773 -1.2871
 3509TIP3   OH231941   1.575   0.737  13.631  0.6188  0.3619  0.1092
 3509TIP3    H131942   1.583   0.799  13.559 -0.9707  1.0380  0.4749
 3509TIP3    H231943   1.481   0.720  13.639  0.8811 -0.8724  1.0524
 3510TIP3   OH231944   2.771   4.903   1.419  0.2438 -0.2311  0.2015
 3510TIP3    H131945   2.857   4.894   1.459  0.1183 -0.5106  0.4037
 3510TIP3    H231946   2.711   4.919   1.492  0.1394  0.0774  0.0513
 3511TIP3   OH231947   5.344   6.693   5.289 -0.1489 -0.2733  0.3720
 3511TIP3    H131948   5.307   6.744   5.217  1.3617  0.7641  0.2811
 3511TIP3    H231949   5.393   6.757   5.340  0.8028 -1.4321  0.9450
 3512TIP3   OH231950   6.087   2.518  11.428  0.5128 -0.2712 -0.2212
 3512TIP3    H131951   6.078   2.582  11.498  0.5202  0.0382 -0.4979
 3512TIP3    H231952   6.116   2.569  11.352 -3.3003  0.1874 -1.6229
 3513TIP3   OH231953   3.551   2.931  13.829  0.2391  0.1931  0.2256
 3513TIP3    H131954   3.573   2.952  13.920 -2.7629 -1.8787  1.6100
 3513TIP3    H231955   3.635   2.909  13.788  1.6207  0.6993  2.6218
 3514TIP3   OH231956   3.921   3.068   0.236  0.3030 -0.2689 -0.0331
 3514TIP3    H131957   3.849   3.105   0.288  0.4576 -1.1430  0.8350
 3514TIP3    H231958   3.965   3.144   0.199 -1.3289  0.2675 -0.9624
 3515TIP3   OH231959   6.006   3.286   2.134  0.0754  0.3031 -0.7229
 3515TIP3    H131960   5.999   3.263   2.041  0.4805  0.2408 -0.7389
 3515TIP3    H231961   6.083   3.239   2.165 -0.9682 -0.9659  0.0401
 3516TIP3   OH231962   4.659   0.413   0.970  0.4008  0.4300 -0.5691
 3516TIP3    H131963   4.565   0.400   0.983  0.5262 -0.9694 -0.8332
 3516TIP3    H231964   4.665   0.488   0.911 -0.4382  1.9647  1.2066
 3517TIP3   OH231965   2.327   2.882  14.389 -0.0418 -0.2561 -0.1049
 3517TIP3    H131966   2.272   2.810  14.420  0.6517 -0.4421  0.7314
 3517TIP3    H231967   2.397   2.888  14.454  0.5024  0.4743 -0.7464
 3518TIP3   OH231968   0.868   3.620   4.937  0.1410 -0.0104  0.3917
 3518TIP3    H131969   0.936   3.663   4.884  0.5182 -0.4246  0.5385
 3518TIP3    H231970   0.899   3.530   4.948 -1.3004 -0.7294 -1.0510
 3519TIP3   OH231971   0.639   5.699   4.549  0.4162  0.9808 -0.1523
 3519TIP3    H131972   0.624   5.714   4.456  0.1866 -1.9348 -0.6569
 3519TIP3    H231973   0.733   5.681   4.557  0.6179  2.1524  0.3644
 3520TIP3   OH231974   0.790   1.314  13.473 -0.1719 -0.2606 -0.4280
 3520TIP3    H131975   0.805   1.406  13.452 -0.2718 -0.5589 -1.9195
 3520TIP3    H231976   0.768   1.314  13.567  0.2222  1.1709 -0.3087
 3521TIP3   OH231977   2.259   3.926   3.796  0.2688  0.2087 -0.1799
 3521TIP3    H131978   2.262   4.009   3.750 -1.1221 -0.0009 -0.6928
 3521TIP3    H231979   2.280   3.948   3.887 -0.9290  1.2616 -0.1352
 3522TIP3   OH231980   0.394   6.225   3.072  0.2534  0.3084 -0.1287
 3522TIP3    H131981   0.412   6.201   2.981  0.3818 -0.4257  0.0850
 3522TIP3    H231982   0.418   6.148   3.122 -0.4472  0.4738  0.4726
 3523TIP3   OH231983   2.800   6.673  14.458  0.5211 -0.1117  0.0844
 3523TIP3    H131984   2.822   6.754  14.413 -0.0298 -0.7528 -1.3885
 3523TIP3    H231985   2.705   6.668  14.454  0.5003 -0.4999  0.7883
 3524TIP3   OH231986   5.014   5.935  16.554  1.0264 -0.3753 -0.5519
 3524TIP3    H131987   5.028   6.013  16.608  0.8733 -1.1996  0.7192
 3524TIP3    H231988   4.987   5.970  16.469 -0.7448  0.9539  0.4726
 3525TIP3   OH231989   6.663   4.296   3.859  0.1262  0.3119  0.6780
 3525TIP3    H131990   6.587   4.273   3.912 -0.9948  1.8065 -0.1936
 3525TIP3    H231991   6.633   4.370   3.806  2.1787  0.8846  0.2503
 3526TIP3   OH231992   1.880   6.332  13.425 -0.6298  0.8873 -0.1778
 3526TIP3    H131993   1.846   6.243  13.435  0.6483  0.5295  1.6761
 3526TIP3    H231994   1.975   6.323  13.436 -0.5648  2.5755  1.2575
 3527TIP3   OH231995   3.996   1.643   5.800  0.5278 -0.5283 -0.0934
 3527TIP3    H131996   4.076   1.667   5.848 -0.0119  0.3029  0.4189
 3527TIP3    H231997   3.941   1.721   5.805  0.4391 -0.4265 -2.0626
 3528TIP3   OH231998   4.330   2.620  12.654  0.0070  0.5185 -0.0561
 3528TIP3    H131999   4.293   2.704  12.627 -1.7677  0.5255  2.0478
 3528TIP3    H232000   4.398   2.643  12.716 -0.5620  0.4380  0.6137
 3529TIP3   OH232001   0.476   6.768   0.783 -0.2313  0.4822 -0.2087
 3529TIP3    H132002   0.431   6.747   0.701  0.5644 -2.3607 -0.0398
 3529TIP3    H232003   0.536   6.840   0.760  1.0936 -1.2311 -2.6075
 3530TIP3   OH232004   3.121   4.685   4.649 -0.3984 -0.0211  0.0736
 3530TIP3    H132005   3.110   4.616   4.584 -0.4834  1.8960 -2.0616
 3530TIP3    H232006   3.089   4.646   4.731 -2.9082 -1.6631 -1.5370
 3531TIP3   OH232007   6.374   0.323   3.734 -0.0689 -0.0698  0.0827
 3531TIP3    H132008   6.414   0.380   3.669  1.3949  0.9761  1.8255
 3531TIP3    H232009   6.334   0.252   3.682  3.6611 -0.9987 -1.8610
 3532TIP3   OH232010   6.184   1.265   3.483  0.2502 -0.4802 -0.3024
 3532TIP3    H132011   6.096   1.302   3.490 -0.0114 -1.2597  0.8746
 3532TIP3    H232012   6.209   1.278   3.391 -0.3888  1.2975 -0.2531
 3533TIP3   OH232013   2.483   6.571   4.121 -0.3347 -0.4368 -0.2948
 3533TIP3    H132014   2.534   6.490   4.111 -0.1591 -0.2906 -0.5880
 3533TIP3    H232015   2.527   6.617   4.193 -0.3748 -0.5583 -0.1928
 3534TIP3   OH232016   3.214   6.716  11.510 -0.2720 -0.1008  0.2131
 3534TIP3    H132017   3.157   6.771  11.564 -0.6652 -0.6570  0.3738
 3534TIP3    H232018   3.214   6.758  11.424 -0.2113  0.3956  0.4551
 3535TIP3   OH232019   6.421   5.031   5.416 -0.2098 -0.3296 -0.0724
 3535TIP3    H132020   6.346   5.080   5.450  1.3361  1.5940  0.7961
 3535TIP3    H232021   6.465   5.092   5.356  2.1711 -0.2937  1.5477
 3536TIP3   OH232022   5.581   5.753  17.221 -0.3449 -0.7646  0.4470
 3536TIP3    H132023   5.523   5.700  17.166 -0.6409  0.3145 -0.3333
 3536TIP3    H232024   5.535   5.836  17.231  0.6278 -0.2283  0.6319
 3537TIP3   OH232025   0.479   5.117   5.605 -0.3461  0.1161  0.2579
 3537TIP3    H132026   0.401   5.094   5.655 -1.6992 -1.9152 -2.5090
 3537TIP3    H232027   0.448   5.176   5.536  0.4446 -0.9429 -1.0631
 3538TIP3   OH232028   6.775   6.370  14.221  0.2602 -0.4956 -0.3868
 3538TIP3    H132029   6.857   6.331  14.253  0.4241  1.2655  1.5282
 3538TIP3    H232030   6.721   6.382  14.300 -1.8834 -1.5875 -1.5921
 3539TIP3   OH232031   5.198   2.871   3.353  0.6647 -0.5972  0.4649
 3539TIP3    H132032   5.256   2.947   3.349 -0.0600 -0.0822 -1.2190
 3539TIP3    H232033   5.115   2.902   3.317  0.1860 -2.0380  0.2554
 3540TIP3   OH232034   6.750   5.837  10.951  0.0178 -0.0854 -0.5332
 3540TIP3    H132035   6.842   5.846  10.923  0.1283  1.1875  0.1847
 3540TIP3    H232036   6.708   5.917  10.920 -0.4583  0.1239  0.6250
 3541TIP3   OH232037   1.560   0.584  15.447 -0.0745  0.2875 -0.3102
 3541TIP3    H132038   1.533   0.492  15.441  1.1562 -0.3040  2.0607
 3541TIP3    H232039   1.484   0.633  15.417 -0.6810 -1.4690 -1.8962
 3542TIP3   OH232040   5.042   3.602   3.164 -0.6276 -0.7506 -0.3132
 3542TIP3    H132041   5.082   3.529   3.211 -0.7581  0.2577  1.4792
 3542TIP3    H232042   4.980   3.561   3.104  0.2622 -2.1577 -0.3173
 3543TIP3   OH232043   0.103   5.542  12.280 -0.0263  0.2087 -0.1683
 3543TIP3    H132044   0.067   5.618  12.235 -0.1842 -0.2922 -0.8928
 3543TIP3    H232045   0.043   5.527  12.353  0.2662  1.0555  0.2649
 3544TIP3   OH232046   5.828   5.206  10.629  0.0117 -0.3253 -0.2826
 3544TIP3    H132047   5.812   5.112  10.622 -1.3024 -0.1579  0.1880
 3544TIP3    H232048   5.746   5.242  10.663  0.3996  1.0329 -0.7156
 3545TIP3   OH232049   1.000   5.961   0.714 -0.2266  0.3632  0.5937
 3545TIP3    H132050   0.935   5.977   0.783 -1.2484 -0.8749 -0.0414
 3545TIP3    H232051   0.994   6.038   0.658 -2.9728 -0.7298 -0.8096
 3546TIP3   OH232052   4.788   1.600   5.436 -0.3290 -0.1641 -0.4714
 3546TIP3    H132053   4.807   1.537   5.367 -2.6839 -0.4528 -0.9416
 3546TIP3    H232054   4.868   1.605   5.487  1.6463  0.2797 -3.3776
 3547TIP3   OH232055   5.003   4.228  12.195  0.0698  0.0113  0.4096
 3547TIP3    H132056   4.937   4.179  12.244  0.1156 -0.1483  0.3120
 3547TIP3    H232057   5.081   4.225  12.251 -0.2176  0.8384  0.8715
 3548TIP3   OH232058   4.665   2.850  16.136 -0.3265  0.2935 -0.1970
 3548TIP3    H132059   4.630   2.762  16.146  0.3453  0.1513  1.0560
 3548TIP3    H232060   4.759   2.838  16.124 -0.1394  0.8604  0.6208
 3549TIP3   OH232061   4.084   1.734  12.921  0.5134  0.0611  0.3875
 3549TIP3    H132062   4.020   1.666  12.943  0.5421 -0.3352 -0.7071
 3549TIP3    H232063   4.061   1.760  12.832  0.1743  1.8839  0.9614
 3550TIP3   OH232064   5.943   1.609   2.038 -0.1920  0.5318  0.2988
 3550TIP3    H132065   6.011   1.626   2.103  0.2046  0.5938 -0.1326
 3550TIP3    H232066   5.907   1.524   2.063 -0.5731  0.9044  1.0554
 3551TIP3   OH232067   3.334   6.726   3.395 -0.1695  0.5777  0.0097
 3551TIP3    H132068   3.389   6.776   3.335 -0.3586  0.4999 -0.2344
 3551TIP3    H232069   3.277   6.675   3.337  2.0061 -2.2456  0.1533
 3552TIP3   OH232070   5.238   6.695  10.850  0.3204 -0.1448  0.1337
 3552TIP3    H132071   5.156   6.690  10.802  0.8567 -1.1693 -0.7438
 3552TIP3    H232072   5.306   6.678  10.784  1.0997 -1.3973  1.1808
 3553TIP3   OH232073   0.239   1.781   2.155 -0.4592  0.0901 -0.0484
 3553TIP3    H132074   0.187   1.861   2.146 -0.6682  0.1115  1.1767
 3553TIP3    H232075   0.211   1.744   2.238  0.8771 -0.3482  0.2309
 3554TIP3   OH232076   2.580   4.745  16.272 -0.1665  0.3310 -0.0886
 3554TIP3    H132077   2.618   4.781  16.192 -0.3901  0.5934 -0.0752
 3554TIP3    H232078   2.656   4.712  16.321 -0.0558 -0.1180 -0.5462
 3555TIP3   OH232079   2.955   3.113  12.710 -0.1634 -0.2039 -0.3053
 3555TIP3    H132080   2.976   3.136  12.620  1.7838 -0.2788  0.0842
 3555TIP3    H232081   2.908   3.030  12.704 -2.8953  1.2878 -1.3989
 3556TIP3   OH232082   2.688   1.124  11.440  0.0433  0.2386  0.1730
 3556TIP3    H132083   2.769   1.080  11.417  0.9071  1.2975  1.0546
 3556TIP3    H232084   2.654   1.075  11.515  0.9076  0.9189  1.0366
 3557TIP3   OH232085   1.516   3.467  15.053  0.1361  0.7091  0.2183
 3557TIP3    H132086   1.584   3.516  15.099  0.1955 -0.4185  1.3878
 3557TIP3    H232087   1.561   3.391  15.017 -0.3657  0.3451  0.3548
 3558TIP3   OH232088   5.263   1.856  13.306  0.1509  0.2144 -1.1069
 3558TIP3    H132089   5.248   1.929  13.366 -0.3919 -0.2262 -0.6966
 3558TIP3    H232090   5.273   1.780  13.363 -1.2405 -0.3558 -1.6029
 3559TIP3   OH232091   6.641   5.479  16.885 -0.2372 -0.4017 -0.0843
 3559TIP3    H132092   6.649   5.436  16.800  5.3286 -0.5782  0.1587
 3559TIP3    H232093   6.628   5.572  16.864  1.1910 -0.4221 -1.2256
 3560TIP3   OH232094   5.619   1.131   6.177 -0.5310  0.8664 -0.0081
 3560TIP3    H132095   5.704   1.151   6.217 -0.5592  0.9459  0.0113
 3560TIP3    H232096   5.581   1.216   6.157 -1.2830  0.8952  1.4058
 3561TIP3   OH232097   6.487   6.064  13.974  0.0012 -0.0031 -0.1173
 3561TIP3    H132098   6.463   5.996  13.911  0.7122  1.1858 -1.7566
 3561TIP3    H232099   6.558   6.112  13.932 -1.0933  2.3507  0.5044
 3562TIP3   OH232100   3.017   5.001  12.513 -0.3238  0.6551 -0.0571
 3562TIP3    H132101   2.989   4.990  12.604  1.0658  0.1329  0.3373
 3562TIP3    H232102   3.101   4.956  12.509 -0.6858  0.0831 -1.7892
 3563TIP3   OH232103   5.059   5.306   3.201  0.2353 -0.1045 -0.4435
 3563TIP3    H132104   5.138   5.270   3.160 -0.2723  0.5938 -2.0915
 3563TIP3    H232105   5.092   5.351   3.279  1.3764 -0.4229 -0.7116
 3564TIP3   OH232106   1.060   4.913   5.527 -0.9872 -0.2565  0.2317
 3564TIP3    H132107   0.996   4.910   5.456 -0.4440  0.4264 -0.3080
 3564TIP3    H232108   1.056   5.004   5.558 -2.3522 -0.9280  2.1625
 3565TIP3   OH232109   1.128   2.456   2.866  0.0820  0.0793 -0.6896
 3565TIP3    H132110   1.074   2.423   2.938 -1.8159  1.4000 -1.4216
 3565TIP3    H232111   1.141   2.380   2.809 -0.3721 -0.4358 -0.1232
 3566TIP3   OH232112   6.309   5.553   5.251  0.2313  0.6281 -0.3095
 3566TIP3    H132113   6.389   5.588   5.212 -0.3341  1.7637 -0.4806
 3566TIP3    H232114   6.270   5.627   5.296 -1.7424  0.6402 -1.8967
 3567TIP3   OH232115   4.913   5.766  13.471 -0.0137  0.0864  0.5114
 3567TIP3    H132116   4.964   5.841  13.441  2.5967 -1.3869  0.8898
 3567TIP3    H232117   4.849   5.802  13.532  0.3998  2.1023 -0.1945
 3568TIP3   OH232118   1.177   6.285   0.200  0.1222  0.5503 -0.5512
 3568TIP3    H132119   1.226   6.361   0.170  0.4251  0.7063  0.2865
 3568TIP3    H232120   1.215   6.211   0.153  0.0123  0.8768 -1.1646
 3569TIP3   OH232121   2.831   2.864   2.947  0.0317  0.4039 -0.3203
 3569TIP3    H132122   2.903   2.921   2.975 -1.0927  1.9882 -0.5073
 3569TIP3    H232123   2.827   2.796   3.014  0.1516  1.6850  1.0474
 3570TIP3   OH232124   5.937   4.876  11.791  0.5782  0.1961  0.0942
 3570TIP3    H132125   5.849   4.839  11.784  0.8605 -0.2133 -2.3290
 3570TIP3    H232126   5.947   4.897  11.884 -1.0237 -2.2837  0.9319
 3571TIP3   OH232127   0.423   6.135   0.307  0.1504  0.3929 -0.4397
 3571TIP3    H132128   0.338   6.092   0.297  0.1583 -1.1636  3.9138
 3571TIP3    H232129   0.402   6.225   0.332 -0.4353 -0.4165  2.2849
 3572TIP3   OH232130   1.815   3.557  13.543  0.3784  0.3119  0.2252
 3572TIP3    H132131   1.760   3.624  13.503 -0.5200 -0.1951  0.5752
 3572TIP3    H232132   1.830   3.493  13.473 -0.7801 -0.3237  0.5243
 3573TIP3   OH232133   2.953   5.933   2.061 -0.1649 -0.1836 -0.2275
 3573TIP3    H132134   3.009   5.862   2.092  0.1754  0.7645  1.4593
 3573TIP3    H232135   2.864   5.903   2.078  0.0125  0.3604  1.9296
 3574TIP3   OH232136   1.893   0.520  11.144  0.5215 -0.2013  0.5297
 3574TIP3    H132137   1.813   0.541  11.095  0.0256  1.4024  1.9191
 3574TIP3    H232138   1.952   0.594  11.127  0.1628  0.6388  2.6079
 3575TIP3   OH232139   2.026   6.194   2.078 -0.2271 -0.0723  0.1356
 3575TIP3    H132140   2.106   6.149   2.053  0.9261  1.6801  0.5242
 3575TIP3    H232141   1.984   6.216   1.994  1.6669  2.3413 -0.2882
 3576TIP3   OH232142   4.238   0.519   4.357  0.3857 -0.0244  0.4022
 3576TIP3    H132143   4.201   0.431   4.366 -1.2930  0.8248  2.9307
 3576TIP3    H232144   4.174   0.567   4.304  0.7095 -0.0228  0.0109
 3577TIP3   OH232145   5.600   3.848  13.030  0.2701 -0.1459 -1.1114
 3577TIP3    H132146   5.572   3.763  13.066  1.2847 -0.1316 -0.2336
 3577TIP3    H232147   5.558   3.852  12.944 -0.1803 -1.3296 -0.9753
 3578TIP3   OH232148   2.366   1.098  16.704  0.5334  0.2781  0.4092
 3578TIP3    H132149   2.334   1.040  16.635  0.2752 -0.5927  1.2431
 3578TIP3    H232150   2.340   1.056  16.786  1.7052  0.7743  1.0708
 3579TIP3   OH232151   2.792   6.242   0.235 -0.3910  0.2498 -0.5587
 3579TIP3    H132152   2.797   6.178   0.164  1.0426 -1.1020  0.6895
 3579TIP3    H232153   2.699   6.263   0.241 -0.5201  0.6109 -2.9703
 3580TIP3   OH232154   4.966   5.920   1.265  0.1990  0.4142  0.0976
 3580TIP3    H132155   4.900   5.950   1.203  0.4327 -1.1115 -0.9521
 3580TIP3    H232156   5.022   5.996   1.280  0.5396  0.6491 -2.1159
 3581TIP3   OH232157   1.598   1.157   3.572  0.3590  0.8325  0.5658
 3581TIP3    H132158   1.672   1.186   3.520  0.0051  0.0739 -0.4032
 3581TIP3    H232159   1.622   1.070   3.602 -2.1344 -2.0666 -4.4229
 3582TIP3   OH232160   0.673   5.940  12.239  0.5558 -0.6405  0.1644
 3582TIP3    H132161   0.692   5.889  12.318 -0.6927  0.2218  1.0628
 3582TIP3    H232162   0.755   5.983  12.216  0.2724  1.5667  2.8456
 3583TIP3   OH232163   4.562   5.980  15.262  0.1429  0.0593 -0.3898
 3583TIP3    H132164   4.618   6.033  15.319 -0.9841  1.4744 -0.5364
 3583TIP3    H232165   4.524   5.915  15.321  1.8509 -0.9023 -0.2775
 3584TIP3   OH232166   6.002   1.544  11.701  0.5627  0.0667  0.3792
 3584TIP3    H132167   6.032   1.597  11.627 -0.5781  0.6175  0.2978
 3584TIP3    H232168   5.911   1.524  11.681 -1.0850  3.5446  3.4203
 3585TIP3   OH232169   4.434   2.106  12.788  0.2891 -0.1492 -0.1928
 3585TIP3    H132170   4.463   2.066  12.706  1.0241 -0.0929  0.0370
 3585TIP3    H232171   4.343   2.076  12.798  0.1107  0.0366 -1.1403
 3586TIP3   OH232172   1.751   5.672  12.961 -0.4322  0.4301 -0.2841
 3586TIP3    H132173   1.817   5.699  13.026 -0.2095  2.8789 -1.4391
 3586TIP3    H232174   1.679   5.733  12.974 -1.1142 -0.1731 -1.1968
 3587TIP3   OH232175   3.037   2.767  13.804  0.0426  0.0212  0.2075
 3587TIP3    H132176   2.961   2.715  13.831 -0.3178  0.2730 -0.3143
 3587TIP3    H232177   3.100   2.754  13.875  0.8640 -2.9889 -0.9202
 3588TIP3   OH232178   1.858   0.167   4.756 -0.3777 -0.2041  0.1630
 3588TIP3    H132179   1.812   0.149   4.674 -0.9078 -0.3737  0.4894
 3588TIP3    H232180   1.832   0.095   4.813 -1.5268  0.9154  1.0936
 3589TIP3   OH232181   2.064   2.903   1.122 -0.6806 -0.4689  0.1934
 3589TIP3    H132182   2.135   2.886   1.185 -0.9143  2.1392  1.2626
 3589TIP3    H232183   2.108   2.913   1.038 -0.2196 -2.5033  0.1211
 3590TIP3   OH232184   2.089   3.006  14.139  0.7054  0.4920 -0.4763
 3590TIP3    H132185   2.173   2.992  14.181  1.1447 -0.5878 -1.6544
 3590TIP3    H232186   2.088   3.099  14.117  0.9077  0.8478  0.9154
 3591TIP3   OH232187   6.344   2.965  16.586 -0.1099  0.0567 -0.0484
 3591TIP3    H132188   6.432   2.992  16.613 -0.0912 -0.0184 -0.0330
 3591TIP3    H232189   6.358   2.889  16.530  0.0761  1.9317 -2.7726
 3592TIP3   OH232190   1.614   3.547   0.669 -0.1421  0.2205  0.5795
 3592TIP3    H132191   1.653   3.473   0.716 -1.7521 -0.6667  0.6139
 3592TIP3    H232192   1.521   3.526   0.666 -0.1924  0.4351 -2.6263
 3593TIP3   OH232193   5.747   3.662  12.269  0.2631  0.2114 -0.5127
 3593TIP3    H132194   5.802   3.730  12.308 -0.2921  0.3271  0.0908
 3593TIP3    H232195   5.737   3.689  12.178 -0.2063  1.1252 -0.2077
 3594TIP3   OH232196   2.115   4.149   6.316 -0.7082  0.3053 -0.2574
 3594TIP3    H132197   2.020   4.158   6.318 -0.6096  1.5573 -0.3868
 3594TIP3    H232198   2.146   4.234   6.284  0.3625 -0.6591 -1.9610
 3595TIP3   OH232199   5.456   3.962  16.802  0.6637  0.0159  0.5380
 3595TIP3    H132200   5.369   3.986  16.771  0.4033 -0.4260  0.9168
 3595TIP3    H232201   5.457   3.867  16.799  1.6587  0.0322 -0.8806
 3596TIP3   OH232202   5.941   1.705  16.190 -0.6906  0.2184 -0.1849
 3596TIP3    H132203   5.924   1.690  16.283 -0.5594 -0.1400 -0.2209
 3596TIP3    H232204   5.912   1.625  16.146  0.4221 -0.1339 -0.3215
 3597TIP3   OH232205   0.932   4.071   3.228 -0.0267 -0.3556 -0.2136
 3597TIP3    H132206   0.882   3.997   3.193 -2.4517  0.3263  1.5020
 3597TIP3    H232207   0.906   4.075   3.320  0.9526  1.9050  0.0288
 3598TIP3   OH232208   3.781   2.929  13.679  0.2786 -0.3800 -0.4849
 3598TIP3    H132209   3.753   3.013  13.643 -1.1616 -0.6340 -0.0111
 3598TIP3    H232210   3.851   2.899  13.619  0.8374  1.1448 -0.6243
 3599TIP3   OH232211   6.282   6.133   2.957 -0.0589 -0.1319 -0.1194
 3599TIP3    H132212   6.200   6.082   2.951  0.8995 -1.7411 -0.1424
 3599TIP3    H232213   6.341   6.077   3.007  0.0594  2.3570  2.8015
 3600TIP3   OH232214   0.566   2.079  13.689  0.7507  0.1117 -0.2274
 3600TIP3    H132215   0.475   2.052  13.699  0.5987  0.5814 -0.3079
 3600TIP3    H232216   0.614   2.029  13.755  0.4135 -0.0253 -0.0849
 3601TIP3   OH232217   1.877   4.674  13.658  1.4101 -0.1476 -0.2676
 3601TIP3    H132218   1.940   4.683  13.729  1.1220  0.3313 -0.0741
 3601TIP3    H232219   1.814   4.744  13.671  1.9383  0.6271 -1.6078
 3602TIP3   OH232220   5.910   6.220  10.932  0.0406  0.0338  0.1277
 3602TIP3    H132221   5.902   6.220  10.836 -0.8764 -0.8483  0.1899
 3602TIP3    H232222   5.888   6.310  10.957  0.6652  0.3759 -0.5089
 3603TIP3   OH232223   3.499   4.785   3.293  0.0719  0.3649 -1.0804
 3603TIP3    H132224   3.572   4.784   3.232  0.2668 -0.7726 -0.8601
 3603TIP3    H232225   3.537   4.813   3.376  0.4298 -0.8897 -0.7965
 3604TIP3   OH232226   2.315   4.237  11.859 -0.0510  0.5464 -0.4885
 3604TIP3    H132227   2.405   4.255  11.834  0.3084  0.4188  0.6814
 3604TIP3    H232228   2.278   4.192  11.782  0.6687  1.1831 -1.2291
 3605TIP3   OH232229   4.692   1.784   5.639  0.4645 -0.0615  0.0365
 3605TIP3    H132230   4.723   1.725   5.571  1.3420  1.5044 -0.9929
 3605TIP3    H232231   4.755   1.856   5.639  0.4513  0.0459  2.4756
 3606TIP3   OH232232   0.138   3.653  17.227 -0.2428  0.3924  0.3423
 3606TIP3    H132233   0.155   3.649  17.321 -0.7204 -0.1765  0.4100
 3606TIP3    H232234   0.162   3.566  17.195  0.8877  0.8946 -0.2330
 3607TIP3   OH232235   3.980   3.892   2.624  0.8521 -0.0912 -0.1849
 3607TIP3    H132236   4.016   3.832   2.689  1.8242  0.5978 -0.0706
 3607TIP3    H232237   3.978   3.977   2.668  0.9279  0.2633 -0.8488
 3608TIP3   OH232238   3.103   3.123   5.751  0.0922  0.2162  0.6047
 3608TIP3    H132239   3.107   3.029   5.733 -0.5150  0.5545 -1.6285
 3608TIP3    H232240   3.054   3.130   5.833 -0.7379 -1.3759  0.2920
 3609TIP3   OH232241   1.723   5.631  17.232 -0.0001  0.6683  0.1069
 3609TIP3    H132242   1.701   5.586  17.151  3.5605  0.7044 -1.0532
 3609TIP3    H232243   1.683   5.577  17.301  1.2272 -2.4385 -1.4103
 3610TIP3   OH232244   6.001   6.261  12.737  0.2462 -0.3593  1.4961
 3610TIP3    H132245   5.923   6.309  12.763 -0.4039 -1.1014  0.9529
 3610TIP3    H232246   5.976   6.169  12.742  0.2323 -0.5812 -1.1523
 3611TIP3   OH232247   4.844   2.600  14.500  0.4162  0.5551  0.3703
 3611TIP3    H132248   4.884   2.569  14.418  0.3338  1.1773  0.0867
 3611TIP3    H232249   4.787   2.671  14.473 -1.0482 -0.4297  0.7566
 3612TIP3   OH232250   3.708   3.227   3.331 -0.1274  0.1668 -0.1871
 3612TIP3    H132251   3.751   3.255   3.412  1.2868 -0.7741 -0.5780
 3612TIP3    H232252   3.678   3.138   3.349 -0.1662  0.1022 -0.5579
 3613TIP3   OH232253   3.655   1.409   0.378 -0.4863  0.0675  0.1277
 3613TIP3    H132254   3.641   1.348   0.450 -0.7258  0.3558  0.3249
 3613TIP3    H232255   3.729   1.462   0.406  0.2326 -0.6372 -0.3791
 3614TIP3   OH232256   5.185   6.407   5.858 -0.5777  0.2899 -0.2056
 3614TIP3    H132257   5.219   6.488   5.820 -0.0738 -0.4960 -1.4692
 3614TIP3    H232258   5.186   6.423   5.953 -1.3443  2.0823 -0.4576
 3615TIP3   OH232259   5.932   0.497  12.292  0.0017  0.4661  0.2342
 3615TIP3    H132260   6.026   0.477  12.297 -0.0835  0.3694  2.3800
 3615TIP3    H232261   5.929   0.592  12.282  0.3380  0.5180  0.5777
 3616TIP3   OH232262   4.893   1.674  16.079  0.2308  0.3317 -0.3214
 3616TIP3    H132263   4.869   1.697  16.169 -0.1887  0.4518 -0.4592
 3616TIP3    H232264   4.910   1.580  16.081  0.3583  0.3582 -0.0894
 3617TIP3   OH232265   6.233   5.123   4.909 -0.3696 -0.3125 -0.4702
 3617TIP3    H132266   6.272   5.112   4.996 -1.1879  0.0912 -0.0422
 3617TIP3    H232267   6.139   5.131   4.925 -0.5368 -0.2870 -1.3987
 3618TIP3   OH232268   1.460   3.133  13.508  0.4097  0.2282 -0.3925
 3618TIP3    H132269   1.378   3.164  13.470 -0.5382 -1.5143  0.1011
 3618TIP3    H232270   1.471   3.184  13.588 -1.7221 -1.3781  1.0294
 3619TIP3   OH232271   5.811   5.821  12.262  0.1565 -0.1437  0.1534
 3619TIP3    H132272   5.902   5.793  12.267  0.1014 -0.5812 -1.0863
 3619TIP3    H232273   5.803   5.863  12.177 -0.9761 -0.8152 -0.0947
 3620TIP3   OH232274   2.964   1.702   5.971  0.1508  0.6386 -0.1485
 3620TIP3    H132275   3.055   1.671   5.974  0.3263  1.2240  2.2032
 3620TIP3    H232276   2.946   1.732   6.060 -1.6249  2.6312 -1.1052
 3621TIP3   OH232277   5.735   1.866   6.020 -0.1138  0.8047 -0.1454
 3621TIP3    H132278   5.779   1.870   6.105  0.9979 -2.3568 -0.4371
 3621TIP3    H232279   5.805   1.852   5.957 -1.1685 -0.1837 -1.1489
 3622TIP3   OH232280   2.594   3.711  12.901 -0.7589 -0.1899  0.2877
 3622TIP3    H132281   2.648   3.645  12.858  0.6444  0.2053  1.3760
 3622TIP3    H232282   2.553   3.665  12.975  0.8390  0.2717  1.5237
 3623TIP3   OH232283   2.831   2.597   3.039 -0.3520  0.4096 -0.5097
 3623TIP3    H132284   2.737   2.605   3.056 -0.1842 -2.0834  2.2814
 3623TIP3    H232285   2.837   2.539   2.963 -1.1111 -0.4580  0.0686
 3624TIP3   OH232286   6.240   0.995  14.137 -0.4720  0.7092  0.5399
 3624TIP3    H132287   6.272   1.049  14.209 -0.5482 -1.0774  1.9935
 3624TIP3    H232288   6.146   0.990  14.151 -0.3705 -0.4175  0.8971
 3625TIP3   OH232289   5.344   6.557   1.684 -0.0038  0.4369  0.2257
 3625TIP3    H132290   5.305   6.482   1.729  0.7591 -0.7300 -0.9826
 3625TIP3    H232291   5.431   6.527   1.657 -0.4352  1.0192 -2.0470
 3626TIP3   OH232292   2.479   4.522   6.484  0.1439 -0.3630 -0.2207
 3626TIP3    H132293   2.540   4.574   6.536 -2.0066  2.4625 -0.3304
 3626TIP3    H232294   2.393   4.559   6.502 -1.0524 -1.1066 -3.6172
 3627TIP3   OH232295   6.655   2.530  10.716  0.0933  0.3460 -0.3993
 3627TIP3    H132296   6.571   2.544  10.673 -0.4447 -0.9119  0.1734
 3627TIP3    H232297   6.662   2.435  10.725  0.8171  0.4970  1.0169
 3628TIP3   OH232298   0.318   3.899   3.023 -0.0571 -0.1212 -0.0777
 3628TIP3    H132299   0.307   3.855   2.939 -0.7885 -1.2373  0.5809
 3628TIP3    H232300   0.243   3.958   3.030 -0.3112 -0.4529  0.0346
 3629TIP3   OH232301   5.844   5.342  15.635 -0.0239  0.1569 -0.2438
 3629TIP3    H132302   5.921   5.388  15.602  0.5237  0.5388  1.4617
 3629TIP3    H232303   5.873   5.252  15.648 -0.2270  0.0167 -0.7251
 3630TIP3   OH232304   0.478   2.829   3.746  0.3935 -0.5935 -0.4255
 3630TIP3    H132305   0.511   2.876   3.822  1.0733  1.0938 -1.7041
 3630TIP3    H232306   0.512   2.877   3.671 -0.5992 -1.9532 -1.8186
 3631TIP3   OH232307   5.429   5.096   6.308 -0.0881  0.3302 -0.3752
 3631TIP3    H132308   5.451   5.065   6.221  0.8908  0.4610 -0.1890
 3631TIP3    H232309   5.379   5.025   6.348  1.9261 -0.9701 -0.0269
 3632TIP3   OH232310   5.170   0.078   4.879  0.2556  0.4349  0.1123
 3632TIP3    H132311   5.252   0.075   4.926 -1.1042  1.5794  2.7562
 3632TIP3    H232312   5.140   0.169   4.887 -1.0505  0.1692 -1.1731
 3633TIP3   OH232313   4.190   1.469   4.347 -0.2445  0.0419 -0.3407
 3633TIP3    H132314   4.152   1.489   4.262  0.2704 -0.9936 -0.8332
 3633TIP3    H232315   4.284   1.464   4.331 -0.2691 -1.9215 -0.1065
 3634TIP3   OH232316   3.328   1.765  13.538  1.0178  0.0192  0.3473
 3634TIP3    H132317   3.387   1.825  13.492  1.0805 -1.0643 -1.0410
 3634TIP3    H232318   3.315   1.692  13.477 -0.6077 -0.4629  1.2037
 3635TIP3   OH232319   0.267   3.412   0.440  0.2869  0.1631 -0.0634
 3635TIP3    H132320   0.306   3.462   0.368 -0.7969  1.0884 -0.0368
 3635TIP3    H232321   0.316   3.330   0.442  0.7663  0.3947 -1.4263
 3636TIP3   OH232322   6.475   2.573  11.727 -0.4970  0.2008  0.1583
 3636TIP3    H132323   6.532   2.507  11.687  0.5359  0.2604  1.4584
 3636TIP3    H232324   6.393   2.527  11.743 -0.1217 -0.4897  0.1396
 3637TIP3   OH232325   1.454   5.802   4.399 -0.1249  0.1450 -0.2988
 3637TIP3    H132326   1.465   5.734   4.466 -2.1238  0.3528  0.3095
 3637TIP3    H232327   1.428   5.754   4.320 -0.7707  0.1261 -0.0806
 3638TIP3   OH232328   3.625   4.946  14.704 -0.3237  0.0883 -0.1742
 3638TIP3    H132329   3.591   5.030  14.735 -1.6872 -0.6327  0.4147
 3638TIP3    H232330   3.609   4.947  14.610 -1.2810  0.1221 -0.0306
 3639TIP3   OH232331   1.186   4.447  12.571  0.1637  0.5879  0.4901
 3639TIP3    H132332   1.208   4.536  12.599 -1.8362  1.3513 -0.1965
 3639TIP3    H232333   1.238   4.433  12.492  1.1690  0.7747  1.0998
 3640TIP3   OH232334   2.303   1.761   4.438  0.0911 -0.6670 -0.8366
 3640TIP3    H132335   2.295   1.849   4.402  0.0202 -1.0032 -1.6703
 3640TIP3    H232336   2.248   1.707   4.382  0.5025 -1.3240 -0.6215
 3641TIP3   OH232337   3.580   2.598  16.783  0.0407 -0.6499  0.0023
 3641TIP3    H132338   3.541   2.571  16.867 -0.2281 -2.7174 -0.7175
 3641TIP3    H232339   3.520   2.664  16.749 -0.4929 -0.6411  0.9129
 3642TIP3   OH232340   6.068   2.026  11.159  0.1191 -0.7795  0.1242
 3642TIP3    H132341   6.139   2.079  11.195 -1.8051  1.9487  0.2162
 3642TIP3    H232342   6.093   2.013  11.067  0.6798  0.3370  0.0944
 3643TIP3   OH232343   0.647   6.760  14.801 -0.0674 -0.1283 -0.2508
 3643TIP3    H132344   0.596   6.759  14.882  0.3956 -3.3977  0.1311
 3643TIP3    H232345   0.598   6.704  14.741  1.5378 -0.9007 -0.8897
 3644TIP3   OH232346   4.899   1.943   1.670  0.3657 -0.0842  0.3495
 3644TIP3    H132347   4.993   1.953   1.682  0.7313 -2.7240  0.2114
 3644TIP3    H232348   4.860   1.973   1.752  1.2994  0.8777  0.4612
 3645TIP3   OH232349   5.174   2.911   0.967  0.4931 -0.1182 -0.0278
 3645TIP3    H132350   5.218   2.877   0.889  0.4363 -0.9199  0.2758
 3645TIP3    H232351   5.163   2.834   1.023 -0.5892  0.2177  0.2393
 3646TIP3   OH232352   2.226   2.870  13.704  0.1732  0.4662  0.4849
 3646TIP3    H132353   2.196   2.960  13.693  0.3685  0.4844  0.0907
 3646TIP3    H232354   2.245   2.862  13.797 -1.9148  0.1852  0.9405
 3647TIP3   OH232355   0.085   5.222  15.169 -0.2236  0.3783 -0.1464
 3647TIP3    H132356   0.142   5.195  15.240 -0.8068 -0.3428  0.0629
 3647TIP3    H232357   0.005   5.251  15.212 -0.0863  1.2364 -0.4430
 3648TIP3   OH232358   3.394   5.898  16.773 -0.0571 -0.0864 -0.5026
 3648TIP3    H132359   3.466   5.839  16.795 -1.7959 -1.9968  0.4510
 3648TIP3    H232360   3.365   5.933  16.857 -2.5027 -2.2520 -0.3025
 3649TIP3   OH232361   6.753   4.227  15.506  0.0345 -0.5852 -0.0470
 3649TIP3    H132362   6.835   4.263  15.539 -0.0819  2.3474 -2.4624
 3649TIP3    H232363   6.685   4.275  15.554 -0.2117 -0.6083 -0.3696
 3650TIP3   OH232364   4.708   2.603   2.005 -0.7369  0.0474  0.0198
 3650TIP3    H132365   4.671   2.543   1.940 -2.8358  1.1325  0.1327
 3650TIP3    H232366   4.778   2.649   1.958  0.0192 -1.4953 -0.4452
 3651TIP3   OH232367   6.458   0.628  12.104 -0.4179  0.0099  0.4239
 3651TIP3    H132368   6.490   0.715  12.129  0.1403 -0.0547 -0.0268
 3651TIP3    H232369   6.403   0.644  12.027 -1.5508  0.1275  1.2333
 3652TIP3   OH232370   3.590   1.720  13.730  0.4978  0.6089 -0.1742
 3652TIP3    H132371   3.513   1.708  13.675  0.2660 -0.5341  0.3710
 3652TIP3    H232372   3.600   1.637  13.776  1.6812  0.9603  0.2480
 3653TIP3   OH232373   1.750   4.017  16.831 -0.0620  0.0079  0.4304
 3653TIP3    H132374   1.718   3.932  16.801  0.8631 -0.7547  1.5062
 3653TIP3    H232375   1.844   4.015  16.812 -0.2847  1.5430 -1.1818
 3654TIP3   OH232376   3.301   0.286   5.687 -0.0122 -0.5283  0.0174
 3654TIP3    H132377   3.301   0.365   5.632 -1.5529 -1.0334 -0.7774
 3654TIP3    H232378   3.343   0.219   5.633  0.0416 -0.5871  0.1328
 3655TIP3   OH232379   0.948   1.686  11.940  0.1505  0.0268  0.0473
 3655TIP3    H132380   0.873   1.648  11.894  0.1698  1.6880 -1.4621
 3655TIP3    H232381   1.017   1.620  11.933 -0.4619 -0.5628 -0.5896
 3656TIP3   OH232382   2.048   3.070   4.523 -0.1664 -0.6708 -0.0646
 3656TIP3    H132383   2.018   3.152   4.485  1.5691 -0.2341 -0.5669
 3656TIP3    H232384   2.122   3.043   4.468  0.7567 -1.3643  1.4512
 3657TIP3   OH232385   2.453   6.117  11.501 -0.9013 -0.4827  0.2984
 3657TIP3    H132386   2.411   6.198  11.531 -2.3249 -1.8333  2.1844
 3657TIP3    H232387   2.419   6.049  11.559  1.4369 -2.2246 -0.2115
 3658TIP3   OH232388   5.042   4.196  15.494 -0.2974 -0.3085 -0.0395
 3658TIP3    H132389   4.961   4.203  15.544  0.4037  1.1060  0.9882
 3658TIP3    H232390   5.105   4.162  15.558 -0.1147 -1.6253 -0.8891
 3659TIP3   OH232391   0.326   0.958   3.630  0.0972 -0.2904 -0.4403
 3659TIP3    H132392   0.302   0.912   3.550 -0.5366 -1.4276  0.3762
 3659TIP3    H232393   0.267   0.924   3.697 -0.0609  1.3594  0.3259
 3660TIP3   OH232394   2.456   5.288   1.466  0.2147 -0.4779  0.1701
 3660TIP3    H132395   2.534   5.247   1.503  0.5187 -0.7746 -0.7659
 3660TIP3    H232396   2.484   5.377   1.443 -0.0940 -0.1495  1.0389
 3661TIP3   OH232397   5.240   1.147  12.407 -0.3897 -0.4108 -0.2233
 3661TIP3    H132398   5.246   1.215  12.473  0.6547  0.6972 -1.4198
 3661TIP3    H232399   5.146   1.140  12.388 -0.5640  0.2347  0.3825
 3662TIP3   OH232400   3.218   2.691  16.480 -0.3743 -0.1666  0.0966
 3662TIP3    H132401   3.275   2.741  16.423 -0.3532 -0.4453 -0.1320
 3662TIP3    H232402   3.168   2.634  16.420  0.5294 -1.3619  0.4343
 3663TIP3   OH232403   6.316   5.748  14.767  0.3129  0.1795 -0.4280
 3663TIP3    H132404   6.362   5.666  14.780 -1.2619 -0.8877 -1.1635
 3663TIP3    H232405   6.385   5.814  14.757  1.5952 -0.7510  1.7422
 3664TIP3   OH232406   5.736   2.777   3.513 -0.6571 -0.4361  0.3345
 3664TIP3    H132407   5.752   2.782   3.608 -1.8715 -1.1399  0.6070
 3664TIP3    H232408   5.791   2.704   3.484  0.9863  0.8034  0.1589
 3665TIP3   OH232409   2.212   3.827  17.250  0.8497  0.0086 -0.3936
 3665TIP3    H132410   2.229   3.920  17.232 -0.5447  0.2659 -0.5087
 3665TIP3    H232411   2.116   3.821  17.254  0.9443 -1.0115  1.7881
 3666TIP3   OH232412   3.794   3.189  15.814  0.4516  0.4801 -0.2931
 3666TIP3    H132413   3.791   3.119  15.748 -1.1042 -0.1844  0.4218
 3666TIP3    H232414   3.850   3.155  15.883 -1.4114 -0.7490  0.7092
 3667TIP3   OH232415   4.430   3.527   5.530 -0.2134  0.6826 -0.0695
 3667TIP3    H132416   4.427   3.584   5.607 -2.4177  1.2292 -0.4614
 3667TIP3    H232417   4.439   3.439   5.565  1.4456  1.1099  0.6499
 3668TIP3   OH232418   0.359   1.580  15.546  0.8838  0.3751 -0.3829
 3668TIP3    H132419   0.405   1.567  15.629  1.2001  0.2026 -0.5820
 3668TIP3    H232420   0.429   1.602  15.484  0.4485  2.7921 -0.1218
 3669TIP3   OH232421   4.696   5.470   0.940  0.0090  0.4982  0.4207
 3669TIP3    H132422   4.604   5.485   0.917 -0.0205 -2.2370 -1.7973
 3669TIP3    H232423   4.739   5.554   0.920 -1.4621  0.8043 -2.0101
 3670TIP3   OH232424   3.139   3.500   3.872  0.0996  0.6302 -0.5758
 3670TIP3    H132425   3.129   3.415   3.913  1.1309  1.9878  2.8465
 3670TIP3    H232426   3.070   3.503   3.806  0.2112 -2.8751 -1.0498
 3671TIP3   OH232427   1.169   3.386   2.315 -0.0783  0.4645 -0.7553
 3671TIP3    H132428   1.130   3.300   2.335  1.6965 -0.4623 -1.1016
 3671TIP3    H232429   1.107   3.427   2.255 -0.1559 -1.3097 -1.9560
 3672TIP3   OH232430   2.148   2.252  13.951  0.2277 -0.1146 -0.4251
 3672TIP3    H132431   2.088   2.263  14.025  0.7338  1.9688 -0.2671
 3672TIP3    H232432   2.221   2.202  13.988  1.5473  2.7831  1.2207
 3673TIP3   OH232433   5.483   5.350   5.828  0.0759  0.0261 -0.1756
 3673TIP3    H132434   5.573   5.319   5.820 -0.1846 -0.3950 -1.6969
 3673TIP3    H232435   5.429   5.275   5.804 -0.6203  0.9949 -1.7874
 3674TIP3   OH232436   4.698   1.219   4.481 -0.1876 -0.9279  0.8559
 3674TIP3    H132437   4.653   1.220   4.565 -0.6153  0.2669  0.6284
 3674TIP3    H232438   4.630   1.238   4.417  0.2633 -1.1643  0.2951
 3675TIP3   OH232439   3.752   3.189  17.238  0.2662  0.5025 -0.2242
 3675TIP3    H132440   3.748   3.258  17.305 -0.9993 -0.0472  0.2998
 3675TIP3    H232441   3.714   3.112  17.281  0.0424 -0.0429 -1.3729
 3676TIP3   OH232442   6.070   5.307   0.798  0.2505  0.3936 -0.1057
 3676TIP3    H132443   6.024   5.337   0.877 -0.1353 -0.8097  0.1547
 3676TIP3    H232444   6.099   5.387   0.755 -1.1322  1.1544  0.3053
 3677TIP3   OH232445   5.351   5.440  14.643 -0.5061 -0.1622 -0.1202
 3677TIP3    H132446   5.436   5.412  14.677 -0.6617 -0.8419 -0.2790
 3677TIP3    H232447   5.309   5.485  14.717  0.2731  0.8287 -0.2557
 3678TIP3   OH232448   4.639   2.197  13.957  0.3564 -0.1734  0.0135
 3678TIP3    H132449   4.696   2.266  13.925  0.2706  0.1795  0.6033
 3678TIP3    H232450   4.625   2.218  14.049  0.1063 -0.8238  0.1327
 3679TIP3   OH232451   0.378   3.559   5.209  0.3020 -0.3216  0.3727
 3679TIP3    H132452   0.473   3.566   5.209  0.3009 -0.3089  0.3251
 3679TIP3    H232453   0.350   3.610   5.133  0.1864  0.6893  1.0712
 3680TIP3   OH232454   0.294   1.388  11.765  0.1187  0.3869  0.5829
 3680TIP3    H132455   0.292   1.414  11.673 -0.9330  0.8774  0.7351
 3680TIP3    H232456   0.363   1.321  11.770  1.3782  1.5817 -0.2285
 3681TIP3   OH232457   2.181   1.094  12.169 -0.3824  0.4582 -0.4234
 3681TIP3    H132458   2.150   1.083  12.259  1.1163 -2.2684 -0.1357
 3681TIP3    H232459   2.241   1.168  12.174 -1.0076  0.9291  0.6065
 3682TIP3   OH232460   4.804   4.647   0.438 -0.3204  0.1330  0.5237
 3682TIP3    H132461   4.778   4.693   0.518  0.3300  1.2154  0.1443
 3682TIP3    H232462   4.777   4.557   0.452 -2.1226  0.7187  1.0866
 3683TIP3   OH232463   0.680   6.258   0.999  0.4557  0.1685 -0.0607
 3683TIP3    H132464   0.724   6.210   1.069  1.0148  2.0440  0.9293
 3683TIP3    H232465   0.715   6.347   1.005  0.8009  0.3351 -2.9711
 3684TIP3   OH232466   0.410   6.510   4.542 -0.0973  0.5742 -0.1776
 3684TIP3    H132467   0.501   6.538   4.536  0.2156  1.0446  3.8269
 3684TIP3    H232468   0.361   6.575   4.490  1.7382  0.5548 -2.0437
 3685TIP3   OH232469   0.410   6.433   0.313  0.0461  0.3449  0.1358
 3685TIP3    H132470   0.391   6.488   0.389 -0.2610 -0.8062  0.9154
 3685TIP3    H232471   0.498   6.400   0.330 -0.1572 -0.1871  0.1675
 3686TIP3   OH232472   2.400   1.591   5.087  0.3589 -0.0345 -0.5031
 3686TIP3    H132473   2.493   1.571   5.076  0.2421 -1.0366  0.1114
 3686TIP3    H232474   2.395   1.686   5.089  1.4208  0.0254 -0.2177
 3687TIP3   OH232475   6.100   4.606   3.261 -0.4484  0.1671 -0.5118
 3687TIP3    H132476   6.122   4.692   3.297  0.3921  0.3232 -1.3708
 3687TIP3    H232477   6.150   4.544   3.313 -1.3651  0.1496  0.3731
 3688TIP3   OH232478   1.389   6.425   1.488 -0.1314  0.2920  0.5585
 3688TIP3    H132479   1.320   6.473   1.443  1.0201  1.1570 -0.3412
 3688TIP3    H232480   1.346   6.387   1.565 -1.3184  1.8651  0.7145
 3689TIP3   OH232481   3.334   6.278   1.225 -0.6325 -0.0409  0.0832
 3689TIP3    H132482   3.249   6.320   1.239 -0.9543 -0.4939 -0.4877
 3689TIP3    H232483   3.325   6.190   1.261 -0.3021  0.0147  0.3103
 3690TIP3   OH232484   1.859   1.800   0.843  0.3865 -0.0368  0.1749
 3690TIP3    H132485   1.807   1.823   0.920 -0.3117  0.1443 -0.3420
 3690TIP3    H232486   1.932   1.749   0.878  0.4579  0.6358  1.0304
 3691TIP3   OH232487   6.238   1.077   2.804 -0.2981 -0.1303  0.0370
 3691TIP3    H132488   6.304   1.143   2.783 -2.2634  1.6033 -1.0843
 3691TIP3    H232489   6.234   1.021   2.726 -1.7174  1.1963 -0.8960
 3692TIP3   OH232490   5.675   4.092   0.468  0.0648 -0.4461  0.7476
 3692TIP3    H132491   5.766   4.122   0.467  0.1009 -0.5594 -0.2951
 3692TIP3    H232492   5.632   4.150   0.530  1.1422 -1.3350  2.4035
 3693TIP3   OH232493   3.717   0.360   3.132 -0.2633  0.8286  0.0449
 3693TIP3    H132494   3.777   0.361   3.058 -1.3420  0.8029 -0.8555
 3693TIP3    H232495   3.686   0.450   3.139  0.6696  1.0804  1.1853
 3694TIP3   OH232496   1.162   1.216   3.845  0.3538  0.3486  0.7621
 3694TIP3    H132497   1.177   1.280   3.776 -1.2221 -0.1201 -0.0505
 3694TIP3    H232498   1.172   1.131   3.801 -2.0946  0.0269  0.7055
 3695TIP3   OH232499   1.459   4.284  16.732  0.2150 -0.1390 -0.0499
 3695TIP3    H132500   1.438   4.208  16.787 -0.0599 -0.2667 -0.3339
 3695TIP3    H232501   1.497   4.247  16.653 -1.4581 -0.0923 -0.9215
 3696TIP3   OH232502   4.402   0.544   0.390  0.1706  0.1639  0.9631
 3696TIP3    H132503   4.447   0.495   0.321 -0.7047 -0.9009  1.1186
 3696TIP3    H232504   4.447   0.628   0.393  1.6376 -0.5736  0.5894
 3697TIP3   OH232505   3.289   6.304   2.885 -0.1906  0.1221  0.1057
 3697TIP3    H132506   3.357   6.353   2.838 -0.5269  0.3013 -0.1997
 3697TIP3    H232507   3.329   6.282   2.969  0.1472  0.4719  0.0396
 3698TIP3   OH232508   3.753   5.596   1.884 -0.3323 -0.1903 -0.3456
 3698TIP3    H132509   3.838   5.574   1.922  0.4374  0.3641 -1.6868
 3698TIP3    H232510   3.708   5.645   1.953  0.9954  0.7247 -0.0769
 3699TIP3   OH232511   5.841   1.242  11.842 -0.0461 -0.0164  0.3618
 3699TIP3    H132512   5.830   1.187  11.920  0.3540 -1.3762 -0.4982
 3699TIP3    H232513   5.758   1.290  11.835 -0.4116 -0.5019  1.1598
 3700TIP3   OH232514   5.853   3.382  14.222  0.4856  0.2043 -0.0326
 3700TIP3    H132515   5.828   3.291  14.207  2.1669 -0.1459 -1.0244
 3700TIP3    H232516   5.849   3.393  14.317 -0.2821 -0.7188  0.0586
 3701TIP3   OH232517   0.465   0.317  16.980  0.4918  0.0147  0.4019
 3701TIP3    H132518   0.380   0.280  16.955  1.4370 -2.2480  0.2640
 3701TIP3    H232519   0.443   0.388  17.041 -1.5147  0.0844 -0.3298
 3702TIP3   OH232520   5.230   4.909   1.714  0.3062  0.2468 -0.6233
 3702TIP3    H132521   5.158   4.908   1.651  0.1303  2.3816 -0.5168
 3702TIP3    H232522   5.188   4.903   1.800  0.0507  2.9973 -0.4774
 3703TIP3   OH232523   3.109   1.174   5.884 -0.5869 -0.5234 -0.1601
 3703TIP3    H132524   3.120   1.090   5.928  1.7803  0.3784  1.1605
 3703TIP3    H232525   3.141   1.238   5.947  0.2014  1.1021 -2.1179
 3704TIP3   OH232526   4.073   1.911   3.559  0.6915 -0.0343 -0.6723
 3704TIP3    H132527   4.140   1.902   3.491  1.1137 -0.0931 -0.2523
 3704TIP3    H232528   4.107   1.979   3.617  0.8965 -0.8082  0.1364
 3705TIP3   OH232529   4.522   1.483  12.432 -0.0390  0.6159 -0.5099
 3705TIP3    H132530   4.474   1.539  12.372 -0.9688  0.4191  0.0230
 3705TIP3    H232531   4.589   1.540  12.470  0.1115  0.9138 -1.2157
 3706TIP3   OH232532   1.670   4.407  14.875 -0.0866  0.3737  0.0268
 3706TIP3    H132533   1.693   4.498  14.863  0.6981  0.0830 -0.7190
 3706TIP3    H232534   1.740   4.371  14.929 -0.0787  0.0699 -0.1822
 3707TIP3   OH232535   1.396   2.772   0.900  0.1525 -0.0803  0.3707
 3707TIP3    H132536   1.358   2.685   0.902 -0.4382  0.1437 -0.4448
 3707TIP3    H232537   1.348   2.821   0.966  0.5070 -0.3736  0.8527
 3708TIP3   OH232538   2.882   0.707   2.540 -0.0212  0.7283 -0.4787
 3708TIP3    H132539   2.840   0.639   2.489 -1.2393  1.3702 -0.3782
 3708TIP3    H232540   2.868   0.681   2.631 -0.3044  0.9976 -0.4429
 3709TIP3   OH232541   5.614   3.526   3.309 -0.0431 -0.2646 -0.4760
 3709TIP3    H132542   5.537   3.470   3.325  0.1967 -0.1214  1.4345
 3709TIP3    H232543   5.627   3.521   3.215 -1.4636 -1.5399 -0.6632
 3710TIP3   OH232544   1.015   3.775   6.559 -0.3734  0.1369 -0.0036
 3710TIP3    H132545   0.944   3.727   6.517 -0.4214  0.6473 -0.5125
 3710TIP3    H232546   0.974   3.814   6.637 -0.6922  0.5423 -0.3664
 3711TIP3   OH232547   3.003   3.883   5.978 -0.1203 -0.5885 -0.3691
 3711TIP3    H132548   3.006   3.809   6.038  2.0793 -0.1714  0.0967
 3711TIP3    H232549   3.094   3.904   5.959 -0.6491  1.9427 -0.5674
 3712TIP3   OH232550   5.821   1.146  12.863  0.5221  0.4216 -0.4812
 3712TIP3    H132551   5.800   1.177  12.775  0.3846  0.6372 -0.3745
 3712TIP3    H232552   5.896   1.199  12.890  0.4755  0.4543 -0.4146
 3713TIP3   OH232553   4.136   0.392  16.093  0.1500  0.3193  0.2560
 3713TIP3    H132554   4.086   0.467  16.062 -0.9026 -0.7328 -0.6919
 3713TIP3    H232555   4.162   0.345  16.014  2.3460  0.5966  0.7356
 3714TIP3   OH232556   6.644   5.084   0.072 -0.1912  0.0127  0.1691
 3714TIP3    H132557   6.562   5.115   0.035 -0.3699 -0.6965 -0.0392
 3714TIP3    H232558   6.618   5.017   0.136  0.1247  0.9946  1.3794
 3715TIP3   OH232559   2.896   4.584  15.418  0.4604 -0.2481 -0.6986
 3715TIP3    H132560   2.897   4.646  15.491  0.4519 -1.1679  0.1095
 3715TIP3    H232561   2.804   4.572  15.398  0.4958  0.7493 -1.5351
 3716TIP3   OH232562   0.736   2.348   0.417  0.0382 -0.7940 -0.0549
 3716TIP3    H132563   0.645   2.345   0.389 -0.1487 -3.3362  0.5124
 3716TIP3    H232564   0.753   2.260   0.451  1.8232  0.4897  2.7419
 3717TIP3   OH232565   5.988   4.785   4.726  0.0385  0.1952  0.0256
 3717TIP3    H132566   5.949   4.801   4.640 -1.3414  0.0287  0.5873
 3717TIP3    H232567   5.916   4.802   4.788  0.8582 -0.1875  1.1105
 3718TIP3   OH232568   3.354   4.538  10.707 -0.0140 -0.1858 -0.2511
 3718TIP3    H132569   3.326   4.551  10.797  0.0904 -1.7251  0.0272
 3718TIP3    H232570   3.447   4.517  10.713 -0.2910 -1.5579 -0.5928
 3719TIP3   OH232571   0.121   1.462  14.497 -0.3893 -0.1280  0.8381
 3719TIP3    H132572   0.202   1.442  14.543 -0.2006 -0.3943  0.4034
 3719TIP3    H232573   0.150   1.503  14.415 -0.6646 -0.7873  0.3988
 3720TIP3   OH232574   0.693   4.772   2.414  0.4444  0.4675  0.5167
 3720TIP3    H132575   0.608   4.791   2.375  0.0568  0.9096  1.5393
 3720TIP3    H232576   0.683   4.684   2.451  1.1427 -0.3899 -1.2289
 3721TIP3   OH232577   3.394   5.056   6.589 -0.2551  0.1378  0.2934
 3721TIP3    H132578   3.369   5.141   6.552  1.7014  0.3812 -0.5834
 3721TIP3    H232579   3.485   5.067   6.616 -0.1861 -1.4773  0.8507
 3722TIP3   OH232580   6.308   1.027  11.294 -0.6935 -0.1352  0.0406
 3722TIP3    H132581   6.368   1.100  11.281 -2.0317  0.7668 -1.4956
 3722TIP3    H232582   6.223   1.069  11.309 -0.7286 -1.3034  4.3202
 3723TIP3   OH232583   1.950   2.939   3.626  0.0654  0.3680  0.0348
 3723TIP3    H132584   1.855   2.945   3.612 -0.0846  0.5351  0.9971
 3723TIP3    H232585   1.988   2.954   3.540 -0.8321 -2.0333 -0.8859
 3724TIP3   OH232586   6.139   2.063  14.156 -0.3078  0.3737 -0.1891
 3724TIP3    H132587   6.083   2.121  14.105  0.4008 -0.0344 -1.4726
 3724TIP3    H232588   6.135   1.979  14.110  0.5325  0.0563  0.2993
 3725TIP3   OH232589   4.505   1.776   0.954 -0.5193  0.0158  0.0782
 3725TIP3    H132590   4.541   1.687   0.952 -2.2837 -0.7841 -2.4728
 3725TIP3    H232591   4.581   1.833   0.961  0.7472 -1.6633  0.6748
 3726TIP3   OH232592   0.614   4.087   0.485 -0.6570  0.2365  0.1557
 3726TIP3    H132593   0.610   4.160   0.546 -2.2050 -0.7595  1.3281
 3726TIP3    H232594   0.690   4.035   0.514 -2.2123 -1.0267  2.2996
 3727TIP3   OH232595   2.579   6.021  15.156  0.1641  0.1219 -0.9094
 3727TIP3    H132596   2.659   5.976  15.182  2.3784  2.0966 -3.6701
 3727TIP3    H232597   2.526   5.954  15.113 -0.3476 -1.4786  1.9605
 3728TIP3   OH232598   1.786   1.378   0.059 -0.1217  0.3812 -0.2312
 3728TIP3    H132599   1.873   1.341   0.076 -0.7282 -1.9433 -1.6338
 3728TIP3    H232600   1.790   1.405  -0.033 -0.4980  1.5037  0.0707
 3729TIP3   OH232601   3.207   5.673  17.049  0.0786 -0.0061  0.4901
 3729TIP3    H132602   3.120   5.710  17.033 -0.0770 -0.6851 -0.3081
 3729TIP3    H232603   3.268   5.744  17.027 -0.2616  0.3404  0.6670
 3730TIP3   OH232604   1.340   6.037  13.494 -0.5147  0.3382 -0.1364
 3730TIP3    H132605   1.326   6.123  13.453 -2.0434 -0.0926 -0.5601
 3730TIP3    H232606   1.271   6.031  13.560  1.8590  1.0045  2.6059
 3731TIP3   OH232607   0.045   5.073  15.577 -0.0966 -0.2471  0.4278
 3731TIP3    H132608   0.000   5.000  15.619 -0.8292 -0.9139 -1.3971
 3731TIP3    H232609   0.128   5.082  15.624 -0.7304 -1.1337  1.7560
 3732TIP3   OH232610   6.271   0.029  12.508 -0.2665 -0.2343  0.3601
 3732TIP3    H132611   6.296  -0.048  12.457  0.9397  0.5286 -0.2515
 3732TIP3    H232612   6.232   0.088  12.444 -3.6139 -1.2782  1.2397
 3733TIP3   OH232613   1.482   1.568   3.695 -0.2242 -0.0479  0.3473
 3733TIP3    H132614   1.466   1.528   3.781 -0.8932  0.7847  0.6284
 3733TIP3    H232615   1.574   1.595   3.698 -0.3385  0.3012  0.9516
 3734TIP3   OH232616   5.855   2.648  14.350  0.6028 -0.0887  0.3609
 3734TIP3    H132617   5.868   2.614  14.438  0.6609  0.6789  0.6567
 3734TIP3    H232618   5.841   2.570  14.296  2.1073 -0.6861  0.7700
 3735TIP3   OH232619   4.376   5.098  14.000  0.5105 -0.5719 -0.3430
 3735TIP3    H132620   4.345   5.108  13.910 -0.1133  0.8469  0.0134
 3735TIP3    H232621   4.388   5.187  14.031  0.4991 -1.0436  1.0573
 3736TIP3   OH232622   6.507   5.930  12.867  0.4188  0.0786  0.5326
 3736TIP3    H132623   6.599   5.909  12.885  0.2237 -0.2291  1.1822
 3736TIP3    H232624   6.491   5.892  12.780  1.0692  0.6605  0.1455
 3737TIP3   OH232625   3.500   5.923  15.695 -0.2662  0.3459  0.3311
 3737TIP3    H132626   3.564   5.898  15.761 -1.4125  0.5876  1.5874
 3737TIP3    H232627   3.416   5.896  15.732 -0.9972  1.0954 -0.7236
 3738TIP3   OH232628   5.662   1.193  17.142 -0.1631 -0.1256 -0.0008
 3738TIP3    H132629   5.757   1.187  17.132 -0.0566  0.0099  0.8846
 3738TIP3    H232630   5.633   1.240  17.063  0.6742  1.1591  0.4246
 3739TIP3   OH232631   4.311   2.633  15.081 -0.0309  0.4567 -0.2552
 3739TIP3    H132632   4.366   2.691  15.134 -0.1007  0.5209 -0.2527
 3739TIP3    H232633   4.306   2.553  15.131  1.2459 -0.0748 -0.9088
 3740TIP3   OH232634   2.768   4.080   4.814  0.3474 -0.1141  0.0447
 3740TIP3    H132635   2.823   4.019   4.863 -0.4968 -0.8925  0.0597
 3740TIP3    H232636   2.740   4.030   4.737 -1.6519 -0.3321  0.8512
 3741TIP3   OH232637   4.774   3.695   1.132  0.0254  0.6446  0.0882
 3741TIP3    H132638   4.764   3.606   1.168 -0.5978  0.5143 -0.3947
 3741TIP3    H232639   4.866   3.699   1.104 -0.8310 -1.2801 -3.5876
 3742TIP3   OH232640   0.050   5.300   0.143 -0.4852 -0.5131  0.0673
 3742TIP3    H132641   0.013   5.220   0.105 -0.5624 -1.6718  2.3525
 3742TIP3    H232642   0.139   5.275   0.168  0.0036  0.5978 -0.4961
 3743TIP3   OH232643   6.602   5.926   4.102  0.1324 -0.0064  0.3803
 3743TIP3    H132644   6.602   5.976   4.021 -0.6883 -0.7818 -0.1167
 3743TIP3    H232645   6.581   5.990   4.170  0.9432  0.6670  0.0028
 3744TIP3   OH232646   2.997   4.669  14.572 -0.6279  0.4112 -0.1810
 3744TIP3    H132647   2.966   4.696  14.658 -0.6286  0.6971 -0.2706
 3744TIP3    H232648   3.080   4.715  14.560 -0.4533  0.0930 -0.1823
 3745TIP3   OH232649   3.049   5.839   5.169  0.2650 -0.0738 -0.1204
 3745TIP3    H132650   3.065   5.744   5.170 -1.6688 -0.5170 -2.5967
 3745TIP3    H232651   2.962   5.848   5.132  0.7854  2.7511 -0.8524
 3746TIP3   OH232652   2.661   3.347   4.907 -0.0243  0.2957 -0.2363
 3746TIP3    H132653   2.677   3.438   4.885  0.6051  0.0575 -0.7951
 3746TIP3    H232654   2.597   3.350   4.979 -1.6153  1.1067 -1.6106
 3747TIP3   OH232655   2.396   6.362   6.762  0.5139  0.1927  0.0869
 3747TIP3    H132656   2.446   6.443   6.748  1.5009 -0.3087  0.5813
 3747TIP3    H232657   2.306   6.391   6.776  1.0696  1.3420  1.6610
 3748TIP3   OH232658   5.211   4.717  14.976  0.5408  0.0245  0.9924
 3748TIP3    H132659   5.251   4.803  14.963  1.7507 -0.4669  1.2904
 3748TIP3    H232660   5.264   4.677  15.046  0.7167 -1.3988  0.0735
 3749TIP3   OH232661   4.425   4.801   1.929  0.0576  0.2002 -0.1611
 3749TIP3    H132662   4.352   4.762   1.977 -0.5286 -0.9202 -1.8655
 3749TIP3    H232663   4.498   4.743   1.946  0.4811  1.0459  1.1326
 3750TIP3   OH232664   5.373   6.656  12.788  0.0643  0.0410  0.4160
 3750TIP3    H132665   5.447   6.713  12.766  0.1881  0.1018  0.9737
 3750TIP3    H232666   5.301   6.688  12.734  0.1788  0.6179  0.5993
 3751TIP3   OH232667   0.594   0.685   2.862 -0.1002  0.3949 -0.0315
 3751TIP3    H132668   0.540   0.620   2.816 -0.2069  0.4682 -0.0105
 3751TIP3    H232669   0.664   0.706   2.801 -0.5263  0.8711 -0.3590
 3752TIP3   OH232670   6.218   2.262   4.100 -0.6687 -0.1638  0.0946
 3752TIP3    H132671   6.160   2.284   4.172 -0.2165  0.5140  0.2592
 3752TIP3    H232672   6.284   2.203   4.138 -0.5872 -0.0225  0.1717
 3753TIP3   OH232673   3.130   3.477   2.366  0.0913  0.0746 -0.4122
 3753TIP3    H132674   3.112   3.400   2.312 -1.7253  0.1817 -0.0055
 3753TIP3    H232675   3.094   3.455   2.452  0.9046  0.8023  0.1336
 3754TIP3   OH232676   3.759   6.078  10.975 -0.5749 -0.3594  0.3869
 3754TIP3    H132677   3.739   6.158  10.928 -0.8847 -0.8782 -0.3941
 3754TIP3    H232678   3.784   6.106  11.063  1.3127  0.7261 -0.4492
 3755TIP3   OH232679   1.451   3.957   3.215  0.4971 -0.2839  0.6171
 3755TIP3    H132680   1.437   4.051   3.209  1.0017 -0.2157  0.4816
 3755TIP3    H232681   1.505   3.945   3.294  0.1377 -0.4956  0.8376
 3756TIP3   OH232682   1.963   1.768   0.192  0.1923  0.2551 -0.4092
 3756TIP3    H132683   1.880   1.771   0.145  0.1769  1.5633 -0.3257
 3756TIP3    H232684   1.939   1.786   0.283  0.6088  1.0285 -0.4483
 3757TIP3   OH232685   1.019   0.772  12.198 -0.0213 -0.0910  0.6864
 3757TIP3    H132686   1.089   0.835  12.216 -0.8986  0.6972  1.4393
 3757TIP3    H232687   0.956   0.821  12.146 -0.1612 -0.7042  0.2755
 3758TIP3   OH232688   1.931   0.944  12.662 -0.3453 -0.0743 -0.3490
 3758TIP3    H132689   1.978   0.952  12.580 -2.5897  0.7949 -1.6405
 3758TIP3    H232690   1.912   1.034  12.689 -0.7938 -0.3819  0.4101
 3759TIP3   OH232691   1.282   4.815  15.178 -0.1729  0.1417  0.1733
 3759TIP3    H132692   1.199   4.804  15.132 -0.1315 -1.0411  0.3408
 3759TIP3    H232693   1.279   4.749  15.248 -0.0636  1.6065  1.6390
 3760TIP3   OH232694   2.437   4.698  14.607  0.2165 -0.0501  1.1960
 3760TIP3    H132695   2.492   4.628  14.572  0.6138  0.4808  0.7602
 3760TIP3    H232696   2.348   4.671  14.586  0.4125 -0.0641  0.3756
 3761TIP3   OH232697   4.962   1.327  12.077 -0.6453 -0.2251  0.3650
 3761TIP3    H132698   5.048   1.369  12.064 -0.7347 -0.2994 -0.5911
 3761TIP3    H232699   4.979   1.257  12.140 -0.1456  0.1911  0.7043
 3762TIP3   OH232700   0.388   0.701   4.996 -0.1418  0.4268 -0.2987
 3762TIP3    H132701   0.345   0.756   5.061  0.4470  0.0103  0.4550
 3762TIP3    H232702   0.395   0.756   4.918 -1.1244  0.8278 -0.1141
 3763TIP3   OH232703   6.091   6.416  12.521  0.6448 -0.0640 -0.4152
 3763TIP3    H132704   6.014   6.444  12.472 -1.6667 -1.7031  2.0292
 3763TIP3    H232705   6.112   6.330  12.485  0.9787  0.1072 -0.6425
 3764TIP3   OH232706   0.978   2.434   2.106  0.2157 -0.1086 -0.4582
 3764TIP3    H132707   1.020   2.480   2.032 -0.2204  0.9964 -0.0411
 3764TIP3    H232708   0.942   2.504   2.160  0.2561 -0.9186  0.6523
 3765TIP3   OH232709   0.662   4.082   6.447 -0.3990 -0.1400 -0.1214
 3765TIP3    H132710   0.601   4.155   6.435  2.7007  2.5728 -0.6490
 3765TIP3    H232711   0.708   4.102   6.528  2.2394 -0.0661 -1.5308
 3766TIP3   OH232712   6.250   4.576  12.961 -0.4898  0.1852  0.7197
 3766TIP3    H132713   6.279   4.584  12.870 -1.6960 -1.8584  0.0928
 3766TIP3    H232714   6.330   4.590  13.013  0.6290 -0.5483 -0.7363
 3767TIP3   OH232715   6.406   2.288   4.307  0.2595  0.2314 -0.1204
 3767TIP3    H132716   6.317   2.268   4.336  0.0025  0.4455 -0.7336
 3767TIP3    H232717   6.458   2.212   4.333  0.0740  0.4543  0.9822
 3768TIP3   OH232718   4.690   3.671   4.891 -0.6230  0.3060  0.5182
 3768TIP3    H132719   4.741   3.714   4.823  0.0903  0.1218  0.9284
 3768TIP3    H232720   4.686   3.735   4.962 -1.8159  0.7049  0.1190
 3769TIP3   OH232721   1.334   0.415   2.986  0.8929 -0.2442  0.1848
 3769TIP3    H132722   1.279   0.467   2.927 -1.2054 -0.0713  2.1503
 3769TIP3    H232723   1.343   0.330   2.943 -0.8973 -0.2396 -0.2650
 3770TIP3   OH232724   6.502   4.986  10.653  0.3608  0.0248  0.2700
 3770TIP3    H132725   6.491   4.942  10.737 -0.5726 -1.1297 -0.4298
 3770TIP3    H232726   6.419   5.033  10.640  0.8980  1.0529  0.4603
 3771TIP3   OH232727   5.014   5.651   5.449 -0.1829  0.4139  0.4703
 3771TIP3    H132728   5.047   5.718   5.510 -1.5601  0.9930  0.6176
 3771TIP3    H232729   4.944   5.607   5.498 -0.8266  0.4072 -0.4307
 3772TIP3   OH232730   5.777   4.028  13.476 -0.2741  0.1614 -0.1734
 3772TIP3    H132731   5.775   4.101  13.538 -0.3263  0.4097 -0.4639
 3772TIP3    H232732   5.783   3.950  13.531 -0.0849  0.3911  0.1358
 3773TIP3   OH232733   2.872   0.728   0.640  0.2648  0.0905 -0.5261
 3773TIP3    H132734   2.814   0.804   0.632 -1.0663 -0.6753  1.1377
 3773TIP3    H232735   2.960   0.763   0.624  0.0124  2.5916  2.5013
 3774TIP3   OH232736   6.151   1.012   5.728  0.0495 -0.6598 -0.2592
 3774TIP3    H132737   6.162   0.954   5.653 -0.0743  0.9799 -1.5949
 3774TIP3    H232738   6.129   0.953   5.801 -0.0503 -2.2719 -1.5402
 3775TIP3   OH232739   0.863   3.150   1.163  0.4656  0.4023  0.7147
 3775TIP3    H132740   0.901   3.235   1.186 -1.5159  1.3983  0.4829
 3775TIP3    H232741   0.870   3.146   1.068 -0.5212  0.8543  0.6185
 3776TIP3   OH232742   1.497   4.848   2.837 -0.1323  0.0220  0.3205
 3776TIP3    H132743   1.558   4.796   2.785  0.2400  1.3201 -0.6257
 3776TIP3    H232744   1.470   4.791   2.908 -0.3310 -1.7030 -1.0644
 3777TIP3   OH232745   3.910   0.348  12.006 -0.0035  0.5873  0.0281
 3777TIP3    H132746   3.905   0.363  12.100 -0.6082 -0.9723  0.2727
 3777TIP3    H232747   3.834   0.393  11.969  0.5809  1.7305  0.1965
 3778TIP3   OH232748   2.185   6.456  11.973 -0.1947 -0.2486 -0.3837
 3778TIP3    H132749   2.255   6.395  11.995 -0.9886 -1.4062 -0.9541
 3778TIP3    H232750   2.109   6.400  11.957 -0.8887  0.8820 -1.1720
 3779TIP3   OH232751   6.180   2.367  12.183 -0.2466 -0.5907 -0.3540
 3779TIP3    H132752   6.084   2.359  12.189 -0.6621  3.5615  2.5244
 3779TIP3    H232753   6.195   2.427  12.110 -0.1308  1.0379  0.9685
 3780TIP3   OH232754   3.665   4.888   5.111 -0.2695  0.0833 -0.4088
 3780TIP3    H132755   3.758   4.865   5.112 -0.2928 -0.0107  0.0208
 3780TIP3    H232756   3.648   4.916   5.021  0.1210 -0.1144 -0.5484
 3781TIP3   OH232757   1.760   4.457   2.726  0.3424 -0.1938 -0.9654
 3781TIP3    H132758   1.737   4.519   2.795 -0.1310  1.1867 -2.3269
 3781TIP3    H232759   1.781   4.511   2.650  2.4233 -1.6159 -1.4903
 3782TIP3   OH232760   3.245   0.629   3.054 -0.7223 -0.5819  0.5695
 3782TIP3    H132761   3.197   0.616   3.136  0.8460 -2.1381  1.3048
 3782TIP3    H232762   3.267   0.722   3.053 -1.5538 -0.3649  1.4614
 3783TIP3   OH232763   0.334   0.637   6.095 -0.5126  0.9910 -0.0014
 3783TIP3    H132764   0.274   0.570   6.061  0.2375  0.8550 -1.1290
 3783TIP3    H232765   0.378   0.595   6.169 -0.0721  0.2175 -0.6773
 3784TIP3   OH232766   1.505   3.195  15.778  0.2803 -0.5881 -0.2931
 3784TIP3    H132767   1.566   3.229  15.844  1.3491 -0.8349 -1.1069
 3784TIP3    H232768   1.522   3.101  15.777 -0.6774 -0.7697  0.0052
 3785TIP3   OH232769   0.984   2.654   5.076  0.5143 -0.1685 -0.5437
 3785TIP3    H132770   0.976   2.714   5.002  1.0007 -0.5520 -0.9136
 3785TIP3    H232771   1.046   2.696   5.135 -2.3986  1.8369  1.3642
 3786TIP3   OH232772   5.755   4.740   5.185 -0.2019 -0.3318 -0.5090
 3786TIP3    H132773   5.843   4.742   5.223 -0.7157 -0.8136  0.7754
 3786TIP3    H232774   5.765   4.780   5.099  1.2631 -0.3424 -0.3707
 3787TIP3   OH232775   2.350   3.842   5.403 -1.0132  0.3083  0.2038
 3787TIP3    H132776   2.343   3.924   5.353 -0.7296 -0.1635 -0.6255
 3787TIP3    H232777   2.267   3.797   5.387 -1.2362  0.5096  0.7959
 3788TIP3   OH232778   0.736   6.675  14.268  0.1059 -0.1086 -0.0444
 3788TIP3    H132779   0.814   6.715  14.230 -0.7476 -0.3051 -2.1189
 3788TIP3    H232780   0.731   6.589  14.228  0.0493 -1.0212  1.8126
 3789TIP3   OH232781   4.547   0.057  13.253 -0.1626  0.4898 -0.1914
 3789TIP3    H132782   4.574   0.009  13.331 -0.0636 -1.3382 -1.2882
 3789TIP3    H232783   4.452   0.068  13.263 -0.4422 -1.2484 -0.5426
 3790TIP3   OH232784   4.361   4.512  13.511  0.4089 -0.0925 -0.4707
 3790TIP3    H132785   4.376   4.450  13.440  0.2742 -1.2020  0.4426
 3790TIP3    H232786   4.445   4.556  13.522  0.6247 -0.3990 -0.8544
 3791TIP3   OH232787   4.369   1.596   4.689  0.0477 -0.2411  0.3796
 3791TIP3    H132788   4.361   1.648   4.608 -1.4647 -2.5632 -1.0714
 3791TIP3    H232789   4.281   1.563   4.705  0.6694 -1.1396  2.1104
 3792TIP3   OH232790   1.336   2.807   1.857  0.6779  0.5279  0.2740
 3792TIP3    H132791   1.307   2.845   1.774 -3.1646 -2.2088  0.0959
 3792TIP3    H232792   1.343   2.882   1.916 -0.5837  2.1418 -1.4890
 3793TIP3   OH232793   6.721   1.347   5.724  0.2606 -0.0385 -0.2268
 3793TIP3    H132794   6.637   1.321   5.687  1.5090 -3.4857 -0.9792
 3793TIP3    H232795   6.717   1.318   5.815 -0.0321  1.6539  0.3419
 3794TIP3   OH232796   4.398   3.350   1.160 -0.1932  0.4162 -0.1879
 3794TIP3    H132797   4.391   3.371   1.254  0.1471  1.2956 -0.3527
 3794TIP3    H232798   4.312   3.313   1.138  0.3776 -1.7124  0.9197
 3795TIP3   OH232799   1.967   1.314   3.595 -0.2082  0.6009  0.0206
 3795TIP3    H132800   1.990   1.222   3.605  1.3845  0.8811 -0.6795
 3795TIP3    H232801   1.920   1.337   3.675 -1.3976 -1.0147 -0.1796
 3796TIP3   OH232802   5.883   4.297   1.749 -0.6218  0.1001  0.1846
 3796TIP3    H132803   5.852   4.230   1.689  0.9674 -0.2224 -0.3207
 3796TIP3    H232804   5.959   4.335   1.705 -0.0688  0.5980  1.5198
 3797TIP3   OH232805   0.028   5.182   6.224  0.2081  0.1483  0.0145
 3797TIP3    H132806  -0.048   5.229   6.259  0.7587 -0.2781  1.9231
 3797TIP3    H232807  -0.004   5.093   6.209  0.2632  0.0114  0.6602
 3798TIP3   OH232808   2.356   5.545   4.004  0.4078  0.0694 -0.3287
 3798TIP3    H132809   2.344   5.550   4.099 -1.7968 -0.9508 -0.4868
 3798TIP3    H232810   2.382   5.454   3.988 -0.1353 -0.0128 -0.7649
 3799TIP3   OH232811   0.202   0.938   2.645  0.7133  0.2612  0.6048
 3799TIP3    H132812   0.248   0.956   2.727 -0.1480  0.2496  1.1095
 3799TIP3    H232813   0.147   1.015   2.631 -0.8462 -0.6846  1.2643
 3800TIP3   OH232814   0.455   2.582   1.348  0.5797 -0.4068  0.1091
 3800TIP3    H132815   0.376   2.621   1.309 -0.1019 -0.8388  1.0218
 3800TIP3    H232816   0.479   2.513   1.287 -0.2052 -0.7745  0.1951
 3801TIP3   OH232817   0.389   6.208  14.692 -0.8121  0.2544  0.3506
 3801TIP3    H132818   0.325   6.138  14.681 -1.7250  1.2147 -0.6452
 3801TIP3    H232819   0.474   6.163  14.690 -1.3674 -0.8082 -0.4103
 3802TIP3   OH232820   1.642   3.376  11.585  0.7394  0.0363 -0.5087
 3802TIP3    H132821   1.564   3.348  11.537 -0.6364  0.6647  1.2696
 3802TIP3    H232822   1.629   3.343  11.674  2.7063 -0.1826 -0.2664
 3803TIP3   OH232823   1.297   2.639  12.433  0.8366 -0.0565  0.0192
 3803TIP3    H132824   1.371   2.592  12.472  0.0448 -0.3766  1.2098
 3803TIP3    H232825   1.220   2.597  12.470  0.0806  1.1830 -0.0728
 3804TIP3   OH232826   2.945   6.746   6.615  0.3476  0.6120  0.3780
 3804TIP3    H132827   3.003   6.717   6.545 -0.1677 -2.2380  0.9728
 3804TIP3    H232828   2.999   6.802   6.670  1.7152  0.2337 -0.5451
 3805TIP3   OH232829   5.587   1.888   4.050  0.1886 -0.3317  0.1661
 3805TIP3    H132830   5.512   1.947   4.058  2.2092  3.0075 -2.6288
 3805TIP3    H232831   5.573   1.842   3.968  0.3685 -1.0458  0.5273
 3806TIP3   OH232832   3.293   5.359  13.299  0.1434 -0.0580  0.0115
 3806TIP3    H132833   3.354   5.328  13.231 -0.9336 -1.1711 -0.4856
 3806TIP3    H232834   3.296   5.290  13.366 -0.9007 -0.3532 -0.2352
 3807TIP3   OH232835   6.568   2.674   4.178 -0.2502  0.3899 -0.6462
 3807TIP3    H132836   6.598   2.746   4.233  0.5402  0.5889 -1.3272
 3807TIP3    H232837   6.646   2.642   4.134 -0.2682 -2.0196  0.9008
 3808TIP3   OH232838   4.637   5.534   3.615  0.1933 -0.0687  0.2312
 3808TIP3    H132839   4.609   5.511   3.703 -0.8932 -1.3145 -0.4127
 3808TIP3    H232840   4.693   5.461   3.588 -0.2747 -0.1681 -0.4748
 3809TIP3   OH232841   6.268   6.032  16.325  0.1088  0.3256 -0.1761
 3809TIP3    H132842   6.296   5.952  16.368  0.5437  0.5191 -0.0913
 3809TIP3    H232843   6.175   6.040  16.345 -0.5258 -1.3636 -2.0838
 3810TIP3   OH232844   1.113   2.611   1.919  0.1031 -0.4710  0.5602
 3810TIP3    H132845   1.173   2.551   1.875 -0.9403 -0.9954 -0.2219
 3810TIP3    H232846   1.168   2.682   1.952  1.0150 -0.3913 -1.0386
 3811TIP3   OH232847   2.804   6.592   5.706 -0.1493  0.2750 -0.4580
 3811TIP3    H132848   2.709   6.580   5.719  0.2643 -1.3187  1.5985
 3811TIP3    H232849   2.822   6.678   5.742 -0.5006 -0.3627  1.3431
 3812TIP3   OH232850   1.503   6.307  14.776  0.4174 -0.5416  0.0795
 3812TIP3    H132851   1.568   6.253  14.731  0.2171 -0.5780 -0.1698
 3812TIP3    H232852   1.420   6.285  14.732  0.3037 -0.1836  0.1147
 3813TIP3   OH232853   0.668   5.304   4.886 -0.0018  0.1158  0.5905
 3813TIP3    H132854   0.718   5.222   4.888  1.0785  0.7111 -0.6204
 3813TIP3    H232855   0.646   5.316   4.794  0.8767  1.7767  0.5653
 3814TIP3   OH232856   3.118   2.822   1.444 -0.2217 -0.4800 -0.0882
 3814TIP3    H132857   3.026   2.813   1.421  0.0931  0.4244 -1.8034
 3814TIP3    H232858   3.151   2.732   1.447 -0.2409 -0.7326 -3.6293
 3815TIP3   OH232859   4.768   3.592  14.414  0.0594  0.0826 -0.2992
 3815TIP3    H132860   4.682   3.551  14.426  0.5751 -0.6102  1.1551
 3815TIP3    H232861   4.819   3.528  14.364  0.0924  0.0059 -0.1668
 3816TIP3   OH232862   1.429   2.768  16.480 -0.6543 -0.7639 -0.1395
 3816TIP3    H132863   1.440   2.775  16.385 -0.9648 -1.8770 -0.2754
 3816TIP3    H232864   1.515   2.743  16.513 -0.0100  1.6304  0.1389
 3817TIP3   OH232865   0.427   0.820  11.518 -0.0683  0.2049  0.3952
 3817TIP3    H132866   0.450   0.841  11.428  0.6256  0.2615  0.5796
 3817TIP3    H232867   0.504   0.846  11.569 -0.4163  0.0792  0.9880
 3818TIP3   OH232868   3.260   6.308  11.213 -0.2020 -0.3346 -0.0272
 3818TIP3    H132869   3.339   6.257  11.194 -0.5720 -0.8549 -0.1860
 3818TIP3    H232870   3.205   6.297  11.136  0.1650  1.2147 -0.5394
 3819TIP3   OH232871   1.812   4.686  12.836  0.3356 -0.0472 -0.1951
 3819TIP3    H132872   1.903   4.658  12.849  0.0466 -1.0668 -0.3484
 3819TIP3    H232873   1.782   4.637  12.760 -0.1370  0.8168 -0.5832
 3820TIP3   OH232874   3.948   4.092   3.537 -0.3451 -0.3204 -0.5669
 3820TIP3    H132875   4.025   4.122   3.490 -0.4356  1.0890  0.1472
 3820TIP3    H232876   3.949   3.997   3.525  1.2441 -0.2868 -0.9499
 3821TIP3   OH232877   2.695   0.589  16.525 -0.3697 -0.1149  0.2172
 3821TIP3    H132878   2.726   0.663  16.473 -0.8137 -0.5798 -0.7217
 3821TIP3    H232879   2.686   0.517  16.462  2.9948 -1.9252  1.5466
 3822TIP3   OH232880   6.712   2.513   1.952  0.4449  0.4334 -0.2929
 3822TIP3    H132881   6.804   2.539   1.947  0.3311  0.8223 -0.3594
 3822TIP3    H232882   6.664   2.592   1.930  0.1107  0.0087 -1.1268
 3823TIP3   OH232883   1.027   2.634  11.527 -0.3457  0.3275 -0.6899
 3823TIP3    H132884   0.938   2.622  11.493 -0.5895  1.0613 -0.3251
 3823TIP3    H232885   1.083   2.632  11.450 -0.9116  2.1893 -1.1947
 3824TIP3   OH232886   0.169   2.028   5.531  0.4344  0.2824 -0.6475
 3824TIP3    H132887   0.153   1.984   5.448  2.0752  2.2067 -2.1038
 3824TIP3    H232888   0.084   2.064   5.556  0.1420  0.7855 -2.2432
 3825TIP3   OH232889   5.170   5.657  11.515  0.3327  0.0831 -0.0076
 3825TIP3    H132890   5.091   5.611  11.540  1.0681 -1.9131 -1.1462
 3825TIP3    H232891   5.208   5.687  11.598  0.3824 -2.3452  0.9274
 3826TIP3   OH232892   2.042   3.902  12.825 -0.0609  0.1273 -0.3600
 3826TIP3    H132893   2.126   3.928  12.789  0.7975 -0.8114  0.8525
 3826TIP3    H232894   2.064   3.852  12.904 -1.6541 -2.2202 -1.2948
 3827TIP3   OH232895   3.824   4.121  15.262  0.1156  0.4472 -0.1028
 3827TIP3    H132896   3.815   4.051  15.326 -2.6979  0.4683 -0.3450
 3827TIP3    H232897   3.860   4.078  15.185  1.6945  0.0287  0.8256
 3828TIP3   OH232898   1.799   4.724   1.099 -0.2658  0.1171 -0.2235
 3828TIP3    H132899   1.808   4.629   1.096  2.4087  0.3026  0.1850
 3828TIP3    H232900   1.732   4.740   1.166  1.0981 -1.4217  1.5954
 3829TIP3   OH232901   6.264   1.430  13.306 -0.3594 -0.0473  0.1728
 3829TIP3    H132902   6.197   1.369  13.337  1.3138 -1.7503  0.6241
 3829TIP3    H232903   6.215   1.501  13.264 -2.4216 -1.2007  0.5301
 3830TIP3   OH232904   5.902   2.930  13.837 -0.0303  0.6761  0.6967
 3830TIP3    H132905   5.957   2.852  13.830 -0.8105  0.3008 -2.6713
 3830TIP3    H232906   5.947   2.996  13.784 -0.9035  1.6100  1.0795
 3831TIP3   OH232907   0.573   2.619  16.279 -0.3718  0.2659  0.2478
 3831TIP3    H132908   0.659   2.609  16.319 -0.3238 -0.6257 -0.0597
 3831TIP3    H232909   0.576   2.563  16.201 -1.0893  0.5471  0.0073
 3832TIP3   OH232910   5.088   5.815  17.006 -0.2480 -0.2605 -0.0528
 3832TIP3    H132911   5.174   5.776  17.022 -0.6312 -0.2981  2.2793
 3832TIP3    H232912   5.053   5.766  16.931  1.5701 -0.5089 -0.7888
 3833TIP3   OH232913   6.133   1.555  15.953 -0.9088  0.1613 -0.2364
 3833TIP3    H132914   6.084   1.636  15.964  0.5543  1.1834 -0.9122
 3833TIP3    H232915   6.142   1.545  15.858  1.7242  1.0410 -0.1637
 3834TIP3   OH232916   2.534   3.035  17.105  0.2645 -0.5669 -0.0014
 3834TIP3    H132917   2.577   3.120  17.098  0.2418 -0.6567 -1.9810
 3834TIP3    H232918   2.553   2.991  17.021  0.2759 -2.5222  0.9623
 3835TIP3   OH232919   4.755   4.833  12.147  0.2251  0.3117 -0.1640
 3835TIP3    H132920   4.767   4.856  12.239  1.6789 -0.4713 -0.1372
 3835TIP3    H232921   4.769   4.739  12.143  0.1989  0.3384 -1.1951
 3836TIP3   OH232922   3.445   1.551   5.541 -0.1323  0.0123 -0.0232
 3836TIP3    H132923   3.423   1.503   5.461  0.9779 -0.3234 -0.1538
 3836TIP3    H232924   3.375   1.615   5.551 -1.4692 -1.3989 -0.0416
 3837TIP3   OH232925   0.377   3.983   4.417 -0.2839 -0.1653  0.1472
 3837TIP3    H132926   0.323   3.964   4.340 -0.1526 -0.5268  0.1426
 3837TIP3    H232927   0.467   3.963   4.389  0.0559  1.7569 -0.3092
 3838TIP3   OH232928   4.112   4.815  11.221  0.4278 -0.4285  0.4389
 3838TIP3    H132929   4.082   4.739  11.272 -0.9011 -0.7629 -0.7583
 3838TIP3    H232930   4.040   4.878  11.227  1.0393  0.2759  0.4862
 3839TIP3   OH232931   2.963   0.085   4.433 -0.3722  0.1947 -0.3789
 3839TIP3    H132932   3.049   0.118   4.458 -1.3536  2.1286  0.6678
 3839TIP3    H232933   2.910   0.092   4.513 -1.0788 -2.6875 -0.4811
 3840TIP3   OH232934   6.096   2.140  10.868  0.4001  0.2396 -0.3162
 3840TIP3    H132935   6.130   2.204  10.930  2.1461 -0.3760 -0.5976
 3840TIP3    H232936   6.032   2.189  10.815 -0.5671  0.9630  1.4285
 3841TIP3   OH232937   2.132   5.422  11.778 -0.2394  0.3861  0.0826
 3841TIP3    H132938   2.151   5.483  11.849 -0.2659  0.3946  0.0825
 3841TIP3    H232939   2.089   5.348  11.820  0.2964  0.1131  0.1701
 3842TIP3   OH232940   3.453   0.812  12.684  0.6194  0.0894  0.2260
 3842TIP3    H132941   3.496   0.859  12.755  1.2035 -0.6957  0.4140
 3842TIP3    H232942   3.521   0.753  12.650  0.4193  0.5992 -1.1256
 3843TIP3   OH232943   2.701   3.098   1.418  0.1514  0.1925  0.4517
 3843TIP3    H132944   2.632   3.042   1.453 -0.0625  1.3064  1.8576
 3843TIP3    H232945   2.670   3.122   1.330 -1.8650  1.6397  1.4768
 3844TIP3   OH232946   1.406   2.985  14.431 -0.7340 -0.6469  0.1880
 3844TIP3    H132947   1.339   2.925  14.398 -2.7758 -0.2674  3.2029
 3844TIP3    H232948   1.367   3.072  14.423 -0.2750 -0.3325  1.2073
 3845TIP3   OH232949   5.539   1.713  11.635  0.0442 -0.8671 -0.2036
 3845TIP3    H132950   5.489   1.701  11.716  1.8385 -0.6894  0.9755
 3845TIP3    H232951   5.523   1.804  11.609 -0.1310 -0.7710  0.2414
 3846TIP3   OH232952   5.240   2.690  12.862  0.7531  0.1017 -0.2757
 3846TIP3    H132953   5.167   2.628  12.866  0.4811  0.4183 -0.3397
 3846TIP3    H232954   5.314   2.637  12.833  0.8796 -0.5129  1.0882
 3847TIP3   OH232955   5.205   0.593  13.591  0.0764  0.0608  0.8679
 3847TIP3    H132956   5.115   0.624  13.589  0.4114  1.0860  1.1471
 3847TIP3    H232957   5.259   0.672  13.591  0.9935 -0.5349  0.2871
 3848TIP3   OH232958   4.069   4.620  11.412  0.0903 -0.1548 -0.0564
 3848TIP3    H132959   4.136   4.683  11.439  1.1652 -1.2648 -0.0274
 3848TIP3    H232960   4.051   4.568  11.491 -0.9881  0.2682 -0.0040
 3849TIP3   OH232961   4.103   5.052  11.767 -0.0145  0.3352 -0.2455
 3849TIP3    H132962   4.105   5.100  11.685 -0.4235 -0.4906 -0.7545
 3849TIP3    H232963   4.184   5.001  11.767 -0.0998  0.1988 -0.2224
 3850TIP3   OH232964   5.601   1.928  13.488 -0.7024 -0.3588  0.5181
 3850TIP3    H132965   5.598   1.848  13.436 -1.6906  0.4028 -0.6679
 3850TIP3    H232966   5.540   1.987  13.444 -0.6324  0.7598  1.8515
 3851TIP3   OH232967   4.571   2.244   1.702  0.1303 -0.3926 -0.2001
 3851TIP3    H132968   4.489   2.252   1.752  1.5251  0.1637  2.1918
 3851TIP3    H232969   4.576   2.151   1.679  0.3067 -1.1625  2.5234
 3852TIP3   OH232970   2.002   6.259   4.470 -0.2192 -0.4217  0.4308
 3852TIP3    H132971   2.018   6.173   4.431  1.4667  0.7887 -1.8128
 3852TIP3    H232972   2.081   6.309   4.450 -1.1233  1.6396  1.7209
 3853TIP3   OH232973   1.852   2.166   2.299 -0.1478  0.1747 -0.5806
 3853TIP3    H132974   1.936   2.208   2.321  0.1533 -0.7058  0.0065
 3853TIP3    H232975   1.821   2.129   2.382 -0.8205 -0.0316 -0.9163
 3854TIP3   OH232976   6.074   1.751   4.502 -0.1298 -0.3842  0.5593
 3854TIP3    H132977   6.153   1.699   4.484  1.3192  0.5793  3.4034
 3854TIP3    H232978   6.106   1.840   4.513 -1.6493  0.0681  1.5770
 3855TIP3   OH232979   2.135   4.746  12.578  0.1468 -0.2322 -0.7999
 3855TIP3    H132980   2.085   4.717  12.654 -1.2207 -1.1001 -1.9775
 3855TIP3    H232981   2.124   4.676  12.514  0.7539  0.7485 -2.0169
 3856TIP3   OH232982   4.709   0.261   0.491  0.0914 -0.0179 -0.3775
 3856TIP3    H132983   4.746   0.241   0.405  1.3962  1.8385 -0.2972
 3856TIP3    H232984   4.641   0.326   0.474 -0.4033 -0.4522 -0.0992
 3857TIP3   OH232985   0.060   3.481  11.116  0.2780 -0.4058  0.2709
 3857TIP3    H132986  -0.019   3.457  11.066 -0.3258  1.0220  0.4932
 3857TIP3    H232987   0.132   3.470  11.054 -0.5928  2.6553 -1.4425
 3858TIP3   OH232988   2.680   2.589   4.947 -0.0897  0.3037  0.4932
 3858TIP3    H132989   2.694   2.610   5.039 -1.7288  0.1677  0.8061
 3858TIP3    H232990   2.605   2.643   4.921  0.3801  0.3752 -0.7738
 3859TIP3   OH232991   3.018   0.097  17.225 -0.1514 -0.3228 -0.1528
 3859TIP3    H132992   3.087   0.154  17.192  1.2587 -2.6406 -1.4454
 3859TIP3    H232993   3.040   0.083  17.316  0.5143 -0.2649 -0.3020
 3860TIP3   OH232994   2.436   5.160   0.047 -0.3024 -0.1493 -0.3050
 3860TIP3    H132995   2.491   5.197   0.117  1.5498 -0.8015 -1.3322
 3860TIP3    H232996   2.499   5.123  -0.015 -1.9346 -0.5921 -1.7630
 3861TIP3   OH232997   3.491   6.671  13.742  0.0879  0.0309  0.1148
 3861TIP3    H132998   3.571   6.721  13.757 -1.2205  1.8553  1.3009
 3861TIP3    H232999   3.456   6.706  13.660  1.2539 -1.9147 -1.3246
 3862TIP3   OH233000   5.617   4.326  13.940 -0.0352 -0.2373 -0.2260
 3862TIP3    H133001   5.530   4.315  13.902  0.3795 -2.0673 -0.7367
 3862TIP3    H233002   5.647   4.237  13.957  0.8839  0.4275  1.9533
 3863TIP3   OH233003   3.857   4.807  15.955  0.0049 -0.3701 -0.4445
 3863TIP3    H133004   3.911   4.772  16.027  0.0092  0.8571  0.1705
 3863TIP3    H233005   3.851   4.901  15.973 -0.8631 -0.2085 -1.4924
 3864TIP3   OH233006   3.821   3.008   2.048 -0.2450  0.0696  0.2178
 3864TIP3    H133007   3.764   2.934   2.027 -0.2850  0.3443 -0.6841
 3864TIP3    H233008   3.762   3.083   2.054 -0.0046  0.3510 -0.6971
 3865TIP3   OH233009   3.463   1.319   1.843  0.0989  0.1031 -0.8885
 3865TIP3    H133010   3.496   1.323   1.753  0.2277 -1.4564 -0.9447
 3865TIP3    H233011   3.375   1.356   1.838 -1.2118 -2.8120 -2.3910
 3866TIP3   OH233012   4.975   0.589   4.871  0.2605  0.6026 -0.1895
 3866TIP3    H133013   4.914   0.520   4.843 -0.2623  1.6335 -1.6518
 3866TIP3    H233014   5.061   0.547   4.870 -0.3022 -0.7083  1.3393
 3867TIP3   OH233015   5.886   5.083  15.677  0.2102  0.0868 -1.1741
 3867TIP3    H133016   5.891   4.991  15.652 -0.5549 -0.2631 -0.1309
 3867TIP3    H233017   5.959   5.095  15.738 -0.4856 -0.2151 -0.2443
 3868TIP3   OH233018   4.139   3.043   4.602  0.4083  0.1046  0.3874
 3868TIP3    H133019   4.097   3.098   4.669 -0.6554  0.3385 -0.4401
 3868TIP3    H233020   4.117   2.954   4.628  1.9194  0.0295  1.5874
 3869TIP3   OH233021   3.273   2.287  16.533  0.2351 -0.2580 -0.0453
 3869TIP3    H133022   3.258   2.196  16.508  0.3704 -0.6279  1.1524
 3869TIP3    H233023   3.303   2.282  16.625 -0.5018  1.0426  0.2866
 3870TIP3   OH233024   1.226   2.650   3.107 -0.3038  0.3657 -0.0166
 3870TIP3    H133025   1.138   2.686   3.094 -0.4799 -0.1338 -0.2466
 3870TIP3    H233026   1.282   2.702   3.049 -0.2474  1.4270  0.9540
 3871TIP3   OH233027   4.551   6.382  17.006 -0.4682 -0.3389 -0.5496
 3871TIP3    H133028   4.556   6.466  17.051  0.0155 -0.7088  0.0948
 3871TIP3    H233029   4.500   6.400  16.927  1.5758  1.0921 -1.6288
 3872TIP3   OH233030   4.303   2.935   5.064 -0.4188 -0.2978  0.9070
 3872TIP3    H133031   4.368   3.005   5.061 -0.5741  0.0146  3.1165
 3872TIP3    H233032   4.225   2.972   5.024  0.0031  0.1889  0.5237
 3873TIP3   OH233033   3.639   3.959   5.439  0.0168 -0.0268 -0.3345
 3873TIP3    H133034   3.563   3.958   5.382 -0.7958  0.2205  0.7132
 3873TIP3    H233035   3.658   3.866   5.456 -0.5035 -0.0749 -0.0133
 3874TIP3   OH233036   2.170   3.373   3.947 -0.3743  0.0233  0.4062
 3874TIP3    H133037   2.224   3.369   4.026 -0.6221 -2.7343  0.5666
 3874TIP3    H233038   2.232   3.390   3.876  0.1205  0.7182  0.9946
 3875TIP3   OH233039   5.908   5.866   4.680  0.0543 -0.2694 -0.2299
 3875TIP3    H133040   5.926   5.775   4.704  1.4619  0.2909  1.0405
 3875TIP3    H233041   5.853   5.899   4.751  1.3896  0.4459  0.5270
 3876TIP3   OH233042   5.744   1.154  11.529 -0.1792  0.5786  0.6522
 3876TIP3    H133043   5.726   1.226  11.467  0.1560  0.4392  0.3855
 3876TIP3    H233044   5.665   1.148  11.582  0.3041  2.0870  1.6248
 3877TIP3   OH233045   6.208   0.256   0.731  0.2003 -0.6687 -0.9574
 3877TIP3    H133046   6.234   0.327   0.789  0.6429 -0.9629 -0.7866
 3877TIP3    H233047   6.264   0.266   0.655  0.6840 -1.1849 -0.6766
 3878TIP3   OH233048   6.774   1.828  11.339 -0.0514  0.3135  0.3865
 3878TIP3    H133049   6.738   1.812  11.426  0.8028 -1.8276  0.4141
 3878TIP3    H233050   6.722   1.772  11.281 -0.2341  1.2788 -0.4089
 3879TIP3   OH233051   5.895   3.616  15.433 -0.2935  0.0318  0.0927
 3879TIP3    H133052   5.891   3.696  15.381  0.4154 -0.0413 -0.0865
 3879TIP3    H233053   5.820   3.622  15.492 -0.4462  0.6631 -0.1549
 3880TIP3   OH233054   0.791   5.700  16.471 -0.0527 -0.1766  0.3832
 3880TIP3    H133055   0.850   5.646  16.524  0.3219  1.0289  1.2452
 3880TIP3    H233056   0.850   5.754  16.417 -0.3577  0.7674  0.9707
 3881TIP3   OH233057   0.514   4.275  12.853 -0.0356 -0.2392  0.1495
 3881TIP3    H133058   0.421   4.288  12.835 -0.0687  0.3581  0.7099
 3881TIP3    H233059   0.548   4.233  12.774 -0.4261  1.1491 -0.7994
 3882TIP3   OH233060   1.601   1.413  14.659 -0.0325 -0.2038  0.0603
 3882TIP3    H133061   1.661   1.484  14.683 -0.6604  0.4749 -0.3564
 3882TIP3    H233062   1.659   1.341  14.632  0.6069  0.2185  0.2785
 3883TIP3   OH233063   6.319   0.355  10.869  0.2467  0.2309 -0.0845
 3883TIP3    H133064   6.405   0.357  10.827  0.7745 -0.6016  0.9105
 3883TIP3    H233065   6.314   0.268  10.909 -0.9142  0.3990  0.1850
 3884TIP3   OH233066   2.539   2.289  13.139 -0.0893 -0.5058  0.2468
 3884TIP3    H133067   2.498   2.326  13.061  0.4242 -0.5412 -0.0495
 3884TIP3    H233068   2.553   2.197  13.117 -0.1087 -0.5554  0.4463
 3885TIP3   OH233069   3.600   6.427  15.391  0.0373 -0.5518  0.0366
 3885TIP3    H133070   3.563   6.404  15.306 -1.8047 -1.5938  1.0564
 3885TIP3    H233071   3.537   6.488  15.429  0.2226 -1.0226  1.1377
 3886TIP3   OH233072   0.353   5.616  11.457  0.2823 -0.5638  0.0379
 3886TIP3    H133073   0.339   5.522  11.443 -1.4896 -0.3733  0.2559
 3886TIP3    H233074   0.264   5.652  11.463  0.9156  1.2619 -0.9071
 3887TIP3   OH233075   2.910   3.453  16.276 -0.2478  0.3016 -0.4582
 3887TIP3    H133076   2.961   3.374  16.297 -1.5121 -0.4248 -0.0091
 3887TIP3    H233077   2.821   3.421  16.263 -1.0873  1.8403  1.1120
 3888TIP3   OH233078   1.794   0.133   2.560  0.1934 -0.2648  0.0355
 3888TIP3    H133079   1.723   0.186   2.597  0.8498  0.3683  0.4030
 3888TIP3    H233080   1.777   0.045   2.593 -1.3043 -0.4482 -1.1414
 3889TIP3   OH233081   5.734   4.993   1.057  0.2474 -0.1141  0.2758
 3889TIP3    H133082   5.815   5.040   1.078 -0.6922  0.7537  2.1749
 3889TIP3    H233083   5.681   4.999   1.137 -1.7968 -0.4635 -0.9828
 3890TIP3   OH233084   6.546   5.471   0.862  0.4504 -0.1753  0.2898
 3890TIP3    H133085   6.519   5.409   0.794 -0.4672  0.2554  0.2338
 3890TIP3    H233086   6.535   5.557   0.821  1.3653  0.0380  0.4831
 3891TIP3   OH233087   2.222   4.110   0.932  0.0381 -0.0028  0.1214
 3891TIP3    H133088   2.213   4.019   0.905 -0.2372 -0.0412  0.3352
 3891TIP3    H233089   2.251   4.156   0.853 -1.9544  0.0948 -0.6073
 3892TIP3   OH233090   1.388   0.222  13.540 -0.3490  0.0492 -0.2829
 3892TIP3    H133091   1.382   0.267  13.456 -0.6659  0.0723 -0.2503
 3892TIP3    H233092   1.383   0.129  13.518  1.8746 -0.0637 -0.4963
 3893TIP3   OH233093   4.603   0.936   3.037 -0.2114  0.2474  0.2133
 3893TIP3    H133094   4.611   1.003   3.106  0.8998  1.2309 -0.8306
 3893TIP3    H233095   4.642   0.977   2.960  0.2517 -1.5292 -0.5294
 3894TIP3   OH233096   5.124   6.639  17.002  0.6836  0.4464 -0.0608
 3894TIP3    H133097   5.095   6.672  16.917  1.1101  1.3136  0.1202
 3894TIP3    H233098   5.044   6.637  17.055  0.6805  1.4206 -0.0118
 3895TIP3   OH233099   2.839   3.387  13.289  0.1060 -0.1512  0.2184
 3895TIP3    H133100   2.897   3.421  13.358  0.2121  1.8003 -0.7511
 3895TIP3    H233101   2.770   3.341  13.337 -0.1385  1.6243  1.7121
 3896TIP3   OH233102   6.051   3.514   3.353 -0.8190 -0.3461 -0.4862
 3896TIP3    H133103   6.135   3.559   3.342 -0.5652 -0.3858  1.0807
 3896TIP3    H233104   6.009   3.521   3.267  1.0910 -0.9819 -1.5324
 3897TIP3   OH233105   3.245   6.769  12.045  0.8302 -0.1907 -0.4782
 3897TIP3    H133106   3.211   6.852  12.078 -1.3220 -0.8500 -0.8680
 3897TIP3    H233107   3.332   6.790  12.012 -0.5506  2.4748 -2.8331
 3898TIP3   OH233108   4.549   4.478  15.975 -0.0624  0.6323  0.1415
 3898TIP3    H133109   4.504   4.468  16.059 -0.4569  1.2055  0.0084
 3898TIP3    H233110   4.478   4.487  15.912  0.2368  0.6195 -0.1958
 3899TIP3   OH233111   5.299   0.883  12.448 -0.2226  0.0828  0.7190
 3899TIP3    H133112   5.271   0.964  12.406 -0.5716 -0.6151 -0.4697
 3899TIP3    H233113   5.251   0.880  12.530 -0.3749  0.9691  0.6700
 3900TIP3   OH233114   5.523   6.469   5.128  0.1641 -0.3884 -0.0161
 3900TIP3    H133115   5.536   6.560   5.156  0.1849  0.1409 -1.6388
 3900TIP3    H233116   5.428   6.458   5.125  0.1408 -0.8693  1.4401
 3901TIP3   OH233117   3.388   6.082  12.574  0.4323 -0.2349  0.4376
 3901TIP3    H133118   3.318   6.145  12.591  0.0509 -0.7639  0.8545
 3901TIP3    H233119   3.434   6.074  12.657  1.7102  0.9571 -0.1146
 3902TIP3   OH233120   2.400   4.864  16.545 -0.1713  0.5582 -0.1902
 3902TIP3    H133121   2.433   4.818  16.623 -1.0217 -0.6051 -0.4787
 3902TIP3    H233122   2.441   4.818  16.472 -1.1282  0.1626 -0.4939
 3903TIP3   OH233123   1.818   4.231  13.235  0.4676 -0.5239 -0.1902
 3903TIP3    H133124   1.762   4.305  13.259  2.8191  0.6715  2.1983
 3903TIP3    H233125   1.884   4.269  13.177  1.6948 -0.6714  1.0561
 3904TIP3   OH233126   6.671   3.984   2.113  0.3965  0.4218  0.1361
 3904TIP3    H133127   6.575   3.978   2.114  0.2880  1.3778 -1.3219
 3904TIP3    H233128   6.700   3.898   2.082 -0.1142  0.7533 -1.3466
 3905TIP3   OH233129   0.917   5.740  14.567  0.4450  0.4714  0.4504
 3905TIP3    H133130   0.985   5.714  14.504 -0.7924 -1.3472 -0.2163
 3905TIP3    H233131   0.964   5.747  14.650  1.4471 -0.9457  0.0486
 3906TIP3   OH233132   4.660   1.979  11.152  0.0155 -0.1558 -0.2163
 3906TIP3    H133133   4.737   2.033  11.133  0.0852 -0.1523  0.0639
 3906TIP3    H233134   4.591   2.017  11.098  0.0294  0.3065  0.0810
 3907TIP3   OH233135   4.273   0.785  12.469  0.5375  0.1616 -0.0426
 3907TIP3    H133136   4.188   0.766  12.507 -0.0554 -0.7467 -1.6892
 3907TIP3    H233137   4.334   0.728  12.516 -0.2766 -1.4384 -0.8246
 3908TIP3   OH233138   4.297   0.202   1.548  0.3928  0.2606 -0.1771
 3908TIP3    H133139   4.384   0.173   1.522  0.5495  1.8475 -1.5703
 3908TIP3    H233140   4.311   0.287   1.589 -0.6924  1.8897 -2.9437
 3909TIP3   OH233141   5.230   6.016  14.627  0.3353 -0.4216  0.2722
 3909TIP3    H133142   5.267   6.104  14.618 -0.5980  0.0106  0.4749
 3909TIP3    H233143   5.148   6.020  14.578 -0.6674 -0.5884  1.8512
 3910TIP3   OH233144   4.026   2.363   4.333  0.3994 -0.0866 -0.2333
 3910TIP3    H133145   4.091   2.312   4.380  1.0348  0.2698 -0.7126
 3910TIP3    H233146   3.944   2.315   4.346  0.1448  0.9461  2.7812
 3911TIP3   OH233147   4.035   3.544  11.235  0.0962 -0.4726  0.2004
 3911TIP3    H133148   3.968   3.517  11.173 -0.1023 -1.9690  1.0339
 3911TIP3    H233149   4.030   3.481  11.306  1.5062  0.1638  0.9176
 3912TIP3   OH233150   2.465   5.745   5.075 -0.5444 -0.0518  0.5077
 3912TIP3    H133151   2.507   5.659   5.086  1.0414  0.4428 -1.1409
 3912TIP3    H233152   2.428   5.765   5.161 -0.5553 -2.1672  1.0548
 3913TIP3   OH233153   2.111   1.949  13.917  0.2313 -0.4689 -0.7882
 3913TIP3    H133154   2.196   1.966  13.958 -0.3127  1.7001 -0.4294
 3913TIP3    H233155   2.083   1.865  13.954  1.3511 -0.3002  0.5325
 3914TIP3   OH233156   4.440   6.054  11.783 -0.0386 -0.1226 -0.3416
 3914TIP3    H133157   4.413   6.058  11.691  0.3026  0.8437 -0.4076
 3914TIP3    H233158   4.411   5.968  11.812 -1.6082  0.1912 -0.8915
 3915TIP3   OH233159   3.084   2.084  12.711  0.1436 -0.5384  0.1609
 3915TIP3    H133160   3.139   2.082  12.632  1.5971 -2.1807  1.1417
 3915TIP3    H233161   3.091   1.995  12.747  1.0920  0.6619  3.1755
 3916TIP3   OH233162   5.839   5.110  12.519  0.3133 -0.3686 -0.2461
 3916TIP3    H133163   5.880   5.122  12.433 -0.1399  2.3685 -0.1834
 3916TIP3    H233164   5.872   5.183  12.571 -1.9850 -0.0191  0.8342
 3917TIP3   OH233165   5.275   1.290   2.656 -0.4153  0.4199 -0.0462
 3917TIP3    H133166   5.339   1.248   2.714 -0.3451 -0.0011 -0.4267
 3917TIP3    H233167   5.197   1.302   2.711 -2.5136 -5.1331 -1.1692
 3918TIP3   OH233168   3.458   6.544  17.118  0.4313  0.0857 -0.4942
 3918TIP3    H133169   3.396   6.581  17.181  0.6597  0.2465 -0.3655
 3918TIP3    H233170   3.469   6.612  17.052 -0.5213 -0.4220 -1.2176
 3919TIP3   OH233171   4.142   4.674   1.560 -0.2490 -0.4856 -0.0856
 3919TIP3    H133172   4.183   4.759   1.576  1.8794 -1.8471  2.5757
 3919TIP3    H233173   4.189   4.639   1.484  1.2423 -0.6024  0.8517
 3920TIP3   OH233174   4.510   2.532   3.457  0.8077  0.3230 -0.9128
 3920TIP3    H133175   4.471   2.487   3.532  0.6248  0.5700 -0.8544
 3920TIP3    H233176   4.498   2.473   3.383  0.9541  0.0945 -0.7533
 3921TIP3   OH233177   4.376   3.360  16.477  0.2113  0.4838 -0.2129
 3921TIP3    H133178   4.314   3.289  16.491 -0.5538  1.2347  0.3050
 3921TIP3    H233179   4.379   3.407  16.561 -0.6184  2.0757 -1.0261
 3922TIP3   OH233180   2.139   0.296   1.474  0.3870  0.5059  0.0464
 3922TIP3    H133181   2.200   0.315   1.546  0.2295  2.5370 -0.2964
 3922TIP3    H233182   2.114   0.205   1.488  3.2892 -0.3611  0.3369
 3923TIP3   OH233183   4.766   0.968  11.948 -0.2625  0.1235 -0.0991
 3923TIP3    H133184   4.787   0.878  11.921  1.8987  0.4942  0.1138
 3923TIP3    H233185   4.732   1.009  11.869  0.3749 -0.4309 -0.6849
 3924TIP3   OH233186   5.771   2.292   0.469 -0.1536  0.3609 -0.6320
 3924TIP3    H133187   5.808   2.280   0.382  0.8307 -1.1566 -0.0501
 3924TIP3    H233188   5.686   2.333   0.455  0.0833  0.3255 -2.2726
 3925TIP3   OH233189   5.575   5.159  13.278  0.4493  0.0477  0.2908
 3925TIP3    H133190   5.527   5.125  13.203 -0.3088  0.7213  0.4658
 3925TIP3    H233191   5.515   5.219  13.321  1.3733  0.7664  0.6276
 3926TIP3   OH233192   2.067   2.854  16.806 -0.1475 -0.3814  0.0432
 3926TIP3    H133193   2.129   2.785  16.781 -1.5822 -1.4945 -0.5953
 3926TIP3    H233194   2.073   2.918  16.736 -2.1222 -2.1483 -1.9099
 3927TIP3   OH233195   1.834   6.642   3.366  0.0631  0.6516 -0.1562
 3927TIP3    H133196   1.877   6.661   3.450 -2.1924  1.1619  0.9582
 3927TIP3    H233197   1.903   6.602   3.313  1.5840  0.3163  1.9181
 3928TIP3   OH233198   6.585   6.512   3.417 -0.3504 -0.0942  0.3262
 3928TIP3    H133199   6.569   6.466   3.500 -0.2869 -1.6599 -0.5012
 3928TIP3    H233200   6.535   6.593   3.425 -1.0285 -0.6043  1.5491
 3929TIP3   OH233201   2.551   1.830   3.574 -0.1002  0.5303 -0.1639
 3929TIP3    H133202   2.502   1.884   3.635  0.5695 -0.2402  1.1026
 3929TIP3    H233203   2.641   1.862   3.581  0.1711 -0.2382  0.0691
 3930TIP3   OH233204   2.712   3.783  13.179  0.1527  0.1332  0.2601
 3930TIP3    H133205   2.682   3.716  13.118  0.1880  0.6453 -0.3339
 3930TIP3    H233206   2.798   3.809  13.145  0.5564 -0.1887  1.0254
 3931TIP3   OH233207   3.041   4.760   2.721 -0.4631 -0.0867  0.7045
 3931TIP3    H133208   2.952   4.772   2.685  0.4348  1.6341 -1.1265
 3931TIP3    H233209   3.027   4.714   2.804 -3.1946  1.4309  1.2013
 3932TIP3   OH233210   1.227   5.460   1.266 -0.0725 -0.0877  0.4720
 3932TIP3    H133211   1.151   5.454   1.324 -1.7416 -0.6184 -1.6811
 3932TIP3    H233212   1.248   5.369   1.244 -1.1675  0.1752 -1.8353
 3933TIP3   OH233213   6.147   6.466   4.720  0.0705  0.2015  0.6966
 3933TIP3    H133214   6.081   6.535   4.713 -1.0247 -0.8823 -0.2147
 3933TIP3    H233215   6.186   6.479   4.807  0.1014  2.1050  0.4435
 3934TIP3   OH233216   6.109   5.542  13.901  0.1042  0.2826  0.2492
 3934TIP3    H133217   6.172   5.613  13.914  1.1872 -0.5818 -0.0759
 3934TIP3    H233218   6.116   5.489  13.980 -0.4169  0.3111  0.3196
 3935TIP3   OH233219   1.133   3.803  14.269  0.3459 -0.0861  0.7168
 3935TIP3    H133220   1.099   3.723  14.307 -0.3304 -0.1993 -0.0984
 3935TIP3    H233221   1.070   3.871  14.294 -0.3592 -0.2456 -0.5516
 3936TIP3   OH233222   1.312   5.290   0.793  0.2398  0.7199 -0.0948
 3936TIP3    H133223   1.375   5.289   0.721 -0.9996 -1.6137 -1.2582
 3936TIP3    H233224   1.357   5.336   0.864  2.3832  1.0457 -1.5754
 3937TIP3   OH233225   4.025   6.326   0.954  0.4479  0.1451 -0.6538
 3937TIP3    H133226   4.023   6.406   1.005  1.2815  0.2250 -0.7433
 3937TIP3    H233227   3.963   6.268   0.999  0.5799  0.4853 -0.0204
 3938TIP3   OH233228   6.622   1.528   1.673  0.3971  0.1801 -0.4150
 3938TIP3    H133229   6.610   1.572   1.757 -0.8843  1.9728 -1.4814
 3938TIP3    H233230   6.717   1.520   1.664  0.5728  0.3747  0.9810
 3939TIP3   OH233231   4.938   2.059  13.817  0.5375 -0.1350 -0.2388
 3939TIP3    H133232   4.999   1.986  13.806  1.4087  0.7549 -1.6019
 3939TIP3    H233233   4.991   2.129  13.854  0.4934  0.7936 -1.8508
 3940TIP3   OH233234   2.212   1.943   1.315  0.1354 -0.5656  0.0857
 3940TIP3    H133235   2.235   1.964   1.224  0.4238 -1.0950  0.0333
 3940TIP3    H233236   2.208   1.848   1.317 -0.7532 -0.5261  0.4200
 3941TIP3   OH233237   6.182   4.294   0.884 -0.3341 -0.1455 -0.1283
 3941TIP3    H133238   6.165   4.222   0.945  1.2070 -2.5297 -2.3167
 3941TIP3    H233239   6.277   4.292   0.870 -0.4681  1.2196 -1.5536
 3942TIP3   OH233240   3.899   2.934  13.253 -0.4815  0.2016  0.0044
 3942TIP3    H133241   3.936   2.849  13.273  2.3322  1.1847 -0.6057
 3942TIP3    H233242   3.891   2.977  13.339  2.4835  0.9238  0.0139
 3943TIP3   OH233243   2.036   6.622  14.281  0.5519  0.1066 -0.0538
 3943TIP3    H133244   2.090   6.656  14.209  2.1580 -0.8906  0.6253
 3943TIP3    H233245   1.949   6.612  14.243  1.5210 -1.1364 -2.1121
 3944TIP3   OH233246   3.016   6.404   0.251 -0.4794 -0.3209 -0.2634
 3944TIP3    H133247   2.934   6.360   0.232 -1.4014  1.7725 -1.4705
 3944TIP3    H233248   3.067   6.396   0.170 -0.4255  0.2997 -0.2964
 3945TIP3   OH233249   1.882   6.663   1.946 -0.4371 -0.2394 -0.0615
 3945TIP3    H133250   1.884   6.607   2.024 -2.5258  0.5653  0.6407
 3945TIP3    H233251   1.801   6.714   1.955  0.0252  0.9509 -2.0278
 3946TIP3   OH233252   3.300   2.881   1.976  0.1298  0.2330  0.2631
 3946TIP3    H133253   3.301   2.961   1.925  0.8410  0.8986  1.2967
 3946TIP3    H233254   3.274   2.813   1.914  0.2411  1.1370 -0.7884
 3947TIP3   OH233255   2.314   3.836  12.510 -0.0194  0.6257 -0.0453
 3947TIP3    H133256   2.288   3.761  12.456  1.1477  0.1316  0.0447
 3947TIP3    H233257   2.285   3.813  12.598 -0.5721  0.7448 -0.1937
 3948TIP3   OH233258   1.907   3.364   4.174 -0.4474  0.1244 -0.6161
 3948TIP3    H133259   1.888   3.341   4.265 -0.5646 -3.3885 -1.3868
 3948TIP3    H233260   1.955   3.447   4.180  0.7051 -0.6032  2.7478
 3949TIP3   OH233261   3.843   2.938   4.619 -0.0289  0.1363  0.5300
 3949TIP3    H133262   3.795   3.015   4.649 -1.7709 -1.1911  1.3649
 3949TIP3    H233263   3.915   2.928   4.681 -0.7391  0.2006  1.3873
 3950TIP3   OH233264   0.797   1.882  12.968 -0.0258 -0.4280  0.6231
 3950TIP3    H133265   0.893   1.877  12.964  0.0547  1.3933 -2.2437
 3950TIP3    H233266   0.779   1.947  13.036  0.7803 -0.5050  0.9221
 3951TIP3   OH233267   0.417   2.214   0.472 -0.3050 -0.3343 -0.7857
 3951TIP3    H133268   0.331   2.257   0.469 -0.8053 -1.3549 -2.5054
 3951TIP3    H233269   0.407   2.137   0.416  0.8194 -2.2552  1.4639
 3952TIP3   OH233270   0.997   1.884  13.764  0.5495  0.1469  0.1259
 3952TIP3    H133271   0.943   1.881  13.685  1.4258  1.0678 -0.5460
 3952TIP3    H233272   0.993   1.796  13.800 -0.0706 -0.2180 -0.8173
 3953TIP3   OH233273   3.227   3.323  15.172 -0.4229  0.0141  0.0577
 3953TIP3    H133274   3.318   3.351  15.173 -0.3516 -0.1687 -0.6966
 3953TIP3    H233275   3.231   3.227  15.167 -0.6504  0.0271 -0.4266
 3954TIP3   OH233276   4.139   3.645   0.012  0.3943  0.1213 -0.3128
 3954TIP3    H133277   4.175   3.561   0.040 -0.8951 -1.1304 -2.1987
 3954TIP3    H233278   4.136   3.639  -0.084  1.2715  2.7612 -0.5862
 3955TIP3   OH233279   0.232   0.412   1.374 -0.1555 -0.2572 -0.4110
 3955TIP3    H133280   0.198   0.330   1.338  0.7038 -0.2223 -1.3696
 3955TIP3    H233281   0.310   0.387   1.422 -1.2729 -0.2924  1.4563
 3956TIP3   OH233282   3.848   3.264  12.080  0.1322  0.9220  0.3505
 3956TIP3    H133283   3.933   3.246  12.040  0.2925 -0.4867  1.2327
 3956TIP3    H233284   3.797   3.305  12.011  1.0161  0.3240 -0.6897
 3957TIP3   OH233285   3.142   1.287  13.101  0.2252  0.3613  0.0136
 3957TIP3    H133286   3.235   1.278  13.080  0.6130  1.6221  1.0602
 3957TIP3    H233287   3.136   1.369  13.149 -1.6131  0.8611 -0.9893
 3958TIP3   OH233288   5.467   4.516   4.603  0.0242 -0.3513 -0.2114
 3958TIP3    H133289   5.506   4.431   4.586 -0.2274 -0.6752  0.7848
 3958TIP3    H233290   5.524   4.578   4.558  2.3316 -0.6810  2.0227
 3959TIP3   OH233291   1.596   6.013  15.243  0.1669 -0.0882  0.0855
 3959TIP3    H133292   1.613   6.107  15.245  2.2673 -0.4038  3.1875
 3959TIP3    H233293   1.548   5.995  15.323  1.0056 -1.8243  0.2556
 3960TIP3   OH233294   0.983   2.957   1.888 -0.0569  0.6254  0.6803
 3960TIP3    H133295   0.904   2.987   1.842  0.5792  1.4121  0.0688
 3960TIP3    H233296   0.950   2.909   1.963 -1.1394  1.9814  1.1177
 3961TIP3   OH233297   4.336   6.712  14.324  0.6973  0.7794  0.0122
 3961TIP3    H133298   4.288   6.736  14.403  0.9128  0.8075  0.1362
 3961TIP3    H233299   4.363   6.796  14.286 -1.3643  0.8917 -1.3322
 3962TIP3   OH233300   3.457   0.149   5.529  0.1882  0.1109  0.2088
 3962TIP3    H133301   3.517   0.074   5.524  1.3578  1.0246  0.1331
 3962TIP3    H233302   3.472   0.197   5.448 -1.7129 -0.3772 -0.4948
 3963TIP3   OH233303   5.486   4.159  13.763  0.2722  0.6963  0.0381
 3963TIP3    H133304   5.513   4.078  13.719 -0.3210  0.0926  0.7604
 3963TIP3    H233305   5.390   4.154  13.766  0.3294  0.1599  2.3991
 3964TIP3   OH233306   6.630   1.109   3.958 -0.1241  0.1019 -0.4339
 3964TIP3    H133307   6.602   1.037   4.015  0.1284 -0.5392 -1.1083
 3964TIP3    H233308   6.551   1.161   3.946 -0.3570 -0.1656 -0.0973
 3965TIP3   OH233309   3.526   4.971   0.077 -0.1198  0.5250  0.2661
 3965TIP3    H133310   3.483   4.993   0.160 -0.8457  0.2473 -0.0326
 3965TIP3    H233311   3.617   4.954   0.101 -0.1189  1.3255  0.8764
 3966TIP3   OH233312   2.616   6.744  13.553  0.0336  0.2800  0.2015
 3966TIP3    H133313   2.636   6.664  13.505 -2.6970 -1.5539  1.8488
 3966TIP3    H233314   2.647   6.815  13.496 -1.5890 -1.7474 -3.5373
 3967TIP3   OH233315   5.108   4.629   1.586 -0.2525 -1.0893 -0.5008
 3967TIP3    H133316   5.081   4.720   1.571  0.7426 -0.2901  1.9673
 3967TIP3    H233317   5.028   4.584   1.612 -0.5024 -0.5215 -0.2643
 3968TIP3   OH233318   6.302   2.460   5.112  0.7007 -0.0538  0.8507
 3968TIP3    H133319   6.338   2.423   5.193  0.5218 -0.5672  0.6966
 3968TIP3    H233320   6.325   2.553   5.116  2.7279 -0.4987  0.3731
 3969TIP3   OH233321   3.797   0.858  12.603  0.0245  0.3352  0.8113
 3969TIP3    H133322   3.884   0.834  12.570  0.7247  0.3964  2.5181
 3969TIP3    H233323   3.747   0.776  12.600  0.2078  0.2473  0.0383
 3970TIP3   OH233324   1.362   3.408   4.657  0.0099 -0.5773 -0.0808
 3970TIP3    H133325   1.398   3.473   4.717 -0.2744 -0.4706 -0.0225
 3970TIP3    H233326   1.343   3.457   4.577  0.9819 -0.8476 -0.4861
 3971TIP3   OH233327   5.392   0.411   4.372  0.8256 -0.2713 -0.0332
 3971TIP3    H133328   5.453   0.372   4.435  0.3060 -0.0039  0.6497
 3971TIP3    H233329   5.396   0.354   4.296 -0.2496 -1.9402  1.0892
 3972TIP3   OH233330   5.310   3.265   2.969  0.5968  0.2144 -0.0062
 3972TIP3    H133331   5.261   3.192   3.006  0.3270  0.4141  0.0328
 3972TIP3    H233332   5.273   3.277   2.881 -0.6743  1.5218  0.6651
 3973TIP3   OH233333   2.815   2.010   4.757  0.1425  0.0091 -0.6387
 3973TIP3    H133334   2.879   2.023   4.826  0.3822  0.6662 -0.9784
 3973TIP3    H233335   2.836   2.076   4.691 -1.1583  0.5496 -0.5572
 3974TIP3   OH233336   4.186   2.300  11.517 -0.4600 -0.1872 -0.5190
 3974TIP3    H133337   4.229   2.342  11.442  0.8459 -1.6665 -0.6645
 3974TIP3    H233338   4.231   2.334  11.594 -1.3526  0.8296 -0.4325
 3975TIP3   OH233339   2.645   5.738  11.743  0.1910 -0.4411 -0.1248
 3975TIP3    H133340   2.628   5.795  11.669  1.3415  1.5180  1.0098
 3975TIP3    H233341   2.722   5.688  11.717  1.3715  1.1356  0.1267
 3976TIP3   OH233342   3.638   2.792   4.201  0.0158  0.0288 -0.5770
 3976TIP3    H133343   3.584   2.871   4.210 -0.7468 -0.3600 -1.5391
 3976TIP3    H233344   3.715   2.809   4.254 -0.8622  0.7816  0.5050
 3977TIP3   OH233345   2.895   5.457   0.937  0.1778  0.2579 -0.4841
 3977TIP3    H133346   2.938   5.449   1.022  0.0946  1.4024 -0.3222
 3977TIP3    H233347   2.892   5.551   0.920 -1.1978  0.1349 -1.0426
 3978TIP3   OH233348   5.259   2.037  16.957 -0.2316 -0.3009  0.5975
 3978TIP3    H133349   5.300   2.057  17.041  0.1301 -0.0694  0.3721
 3978TIP3    H233350   5.236   1.944  16.962  1.8076 -0.8936  0.1430
 3979TIP3   OH233351   1.674   0.605  11.629  0.6424  0.5999 -0.1912
 3979TIP3    H133352   1.737   0.625  11.559 -0.0709  0.7640 -0.8020
 3979TIP3    H233353   1.718   0.538  11.682  2.3559  2.4332  0.8556
 3980TIP3   OH233354   2.461   3.837  14.125  0.4467 -0.0300  0.4509
 3980TIP3    H133355   2.498   3.835  14.213  0.5885 -2.0370  0.4003
 3980TIP3    H233356   2.490   3.754  14.085  0.1407  0.6961 -1.3753
 3981TIP3   OH233357   3.735   0.468  14.478 -0.1851  0.1975  0.4081
 3981TIP3    H133358   3.659   0.522  14.454 -0.7276 -0.3828  0.7773
 3981TIP3    H233359   3.793   0.473  14.402  1.1415  3.5949  1.4642
 3982TIP3   OH233360   2.473   6.314   3.090  0.0744 -0.1432  0.2322
 3982TIP3    H133361   2.522   6.301   3.008 -0.0364 -0.1709  0.1702
 3982TIP3    H233362   2.462   6.409   3.096 -0.7768 -0.1959 -0.2939
 3983TIP3   OH233363   0.187   2.317  13.893  0.3066 -0.2849 -0.4804
 3983TIP3    H133364   0.196   2.319  13.798  1.2769 -0.4915 -0.3941
 3983TIP3    H233365   0.217   2.403  13.922 -0.2967 -0.1004 -0.3737
 3984TIP3   OH233366   1.711   2.270  13.758  0.0435  0.5378 -0.2706
 3984TIP3    H133367   1.655   2.217  13.701  0.8536 -1.9796  1.1253
 3984TIP3    H233368   1.655   2.293  13.832 -0.2257  1.4832 -0.7439
 3985TIP3   OH233369   0.050   2.839  14.454  0.2688  0.4664 -0.2796
 3985TIP3    H133370   0.018   2.925  14.482 -0.0761 -0.0178  0.8519
 3985TIP3    H233371  -0.030   2.788  14.440  0.4943  0.0219  0.0519
 3986TIP3   OH233372   5.327   5.968  11.395 -0.4418  0.4712  0.2571
 3986TIP3    H133373   5.267   5.934  11.327 -0.8400  0.3887  0.6460
 3986TIP3    H233374   5.345   5.892  11.450  0.5880  0.3266 -0.2561
 3987TIP3   OH233375   5.097   5.454   4.828  0.7886  0.2890  0.0214
 3987TIP3    H133376   5.051   5.376   4.796  0.2871  0.8605 -0.6796
 3987TIP3    H233377   5.027   5.515   4.853  1.1763  0.6130  0.3290
 3988TIP3   OH233378   1.554   5.092  16.883  0.0960 -0.1148 -0.1839
 3988TIP3    H133379   1.550   5.027  16.813 -0.3811  0.9598 -1.1858
 3988TIP3    H233380   1.463   5.110  16.905  0.2043  0.6162 -0.3039
 3989TIP3   OH233381   0.487   0.431   0.605 -0.1040 -1.3541  0.8381
 3989TIP3    H133382   0.486   0.404   0.513  0.6764 -1.0797  0.7375
 3989TIP3    H233383   0.410   0.389   0.643 -0.8981 -0.8120 -0.1197
 3990TIP3   OH233384   1.714   2.623  11.394 -0.0562 -0.0140 -0.5761
 3990TIP3    H133385   1.670   2.605  11.311  1.5849  0.5220 -1.6078
 3990TIP3    H233386   1.744   2.537  11.424  0.1684 -0.0966 -1.0274
 3991TIP3   OH233387   0.282   3.881  16.610 -0.1522 -0.3105 -0.0443
 3991TIP3    H133388   0.299   3.952  16.550  1.5974 -1.5284 -1.0983
 3991TIP3    H233389   0.192   3.855  16.593 -0.0445  0.1132 -1.3288
 3992TIP3   OH233390   4.608   4.826  11.236  0.7233 -0.7352 -0.5021
 3992TIP3    H133391   4.537   4.889  11.227 -0.1819 -1.8283 -1.3381
 3992TIP3    H233392   4.573   4.756  11.291  1.6705 -0.5802  0.3253
 3993TIP3   OH233393   1.158   3.947  11.357 -0.1296  0.0826 -0.1636
 3993TIP3    H133394   1.110   3.865  11.357 -0.3153  0.1857  0.4600
 3993TIP3    H233395   1.181   3.962  11.449  0.7731  0.2236 -0.3944
 3994TIP3   OH233396   6.267   1.662  12.565 -0.1010 -0.3881 -0.4110
 3994TIP3    H133397   6.304   1.627  12.646  0.7483  1.2710 -0.0359
 3994TIP3    H233398   6.178   1.689  12.589 -0.3043 -1.0385 -0.3864
 3995TIP3   OH233399   5.702   2.057  16.967 -0.1340 -0.4761 -0.3866
 3995TIP3    H133400   5.646   1.988  17.000 -0.3113 -1.0171 -1.7666
 3995TIP3    H233401   5.649   2.104  16.902  0.9500 -0.9955 -1.7170
 3996TIP3   OH233402   2.456   3.074   5.365  1.0286 -1.0959  0.3899
 3996TIP3    H133403   2.423   3.126   5.291  0.3797  0.2724  1.5733
 3996TIP3    H233404   2.423   2.986   5.350 -1.6140 -0.2267  0.4790
 3997TIP3   OH233405   2.990   1.212   2.652  0.5473  0.3473  0.1704
 3997TIP3    H133406   2.895   1.227   2.657 -0.0026 -1.8154 -1.9248
 3997TIP3    H233407   3.018   1.268   2.579  0.1583 -1.5664 -1.5429
 3998TIP3   OH233408   1.134   3.715   4.834 -0.5257  0.5260  0.1679
 3998TIP3    H133409   1.109   3.628   4.804 -0.6168  0.0217  1.6332
 3998TIP3    H233410   1.151   3.764   4.754  0.8927 -1.2259 -0.6601
 3999TIP3   OH233411   0.811   5.040  11.630 -0.2707 -0.0058 -0.2939
 3999TIP3    H133412   0.799   5.003  11.717  0.1038  3.1968  1.2812
 3999TIP3    H233413   0.781   4.972  11.570 -0.9176 -2.1874  2.3233
 4000TIP3   OH233414   1.438   4.200   0.284  0.2924  0.3891  0.3461
 4000TIP3    H133415   1.516   4.179   0.336  0.4189 -1.1065 -0.3859
 4000TIP3    H233416   1.473   4.231   0.200  0.1346 -0.6790 -0.1358
 4001TIP3   OH233417   2.542   0.512   4.839 -0.1009 -0.3856  0.5153
 4001TIP3    H133418   2.478   0.443   4.821 -2.1068  1.0233  1.8005
 4001TIP3    H233419   2.521   0.581   4.777 -1.1609  0.8488  2.1545
 4002TIP3   OH233420   0.959   0.933  13.916  0.0719 -0.0771 -0.1098
 4002TIP3    H133421   0.977   0.976  13.999  0.9250 -1.2330  0.3248
 4002TIP3    H233422   0.873   0.893  13.927 -0.0316  0.1868  0.0394
 4003TIP3   OH233423   1.023   3.937  16.907  0.1898  0.1138 -0.3431
 4003TIP3    H133424   0.956   3.994  16.945 -0.8074 -1.2036 -0.0761
 4003TIP3    H233425   0.987   3.911  16.822  1.9298  2.1795 -1.8255
 4004TIP3   OH233426   1.816   4.244  14.602  0.6204  0.1197  0.0267
 4004TIP3    H133427   1.737   4.225  14.551  1.7530 -1.0236 -1.4046
 4004TIP3    H233428   1.832   4.164  14.651  0.5445  0.5776  0.8049
 4005TIP3   OH233429   1.693   2.355  11.401  0.1931 -0.0548 -0.0104
 4005TIP3    H133430   1.701   2.295  11.327 -1.5993 -0.7879  0.3341
 4005TIP3    H233431   1.605   2.340  11.434  0.0537  2.0615  0.7189
 4006TIP3   OH233432   4.310   6.520   5.596 -0.3185 -1.0484  0.1592
 4006TIP3    H133433   4.216   6.500   5.593 -0.7491  0.8284 -1.9840
 4006TIP3    H233434   4.317   6.593   5.657 -1.1779  2.1503 -3.1725
 4007TIP3   OH233435   2.027   3.554   3.016  0.0997 -0.0722  0.0367
 4007TIP3    H133436   2.047   3.620   2.950 -0.3653  1.1322  1.0348
 4007TIP3    H233437   1.960   3.596   3.071  0.9989 -0.6998  1.7026
 4008TIP3   OH233438   1.447   3.180  13.788 -0.3800  0.0629 -0.3931
 4008TIP3    H133439   1.361   3.141  13.800  0.0586 -0.5710  0.9475
 4008TIP3    H233440   1.508   3.115  13.823  0.5524  0.9499 -0.3048
 4009TIP3   OH233441   5.939   5.021   2.654 -0.4628  0.1934  0.2017
 4009TIP3    H133442   5.927   4.939   2.702  0.1513 -0.8563 -1.3515
 4009TIP3    H233443   5.877   5.082   2.694 -2.4053 -1.6044  0.1127
 4010TIP3   OH233444   4.118   4.675  16.474  0.4995 -0.4241  0.3902
 4010TIP3    H133445   4.069   4.629  16.543  0.2393 -0.2244  0.3447
 4010TIP3    H233446   4.062   4.668  16.397  0.9815 -0.9995  0.0897
 4011TIP3   OH233447   1.203   3.010   2.651  0.0644  0.1369  0.2983
 4011TIP3    H133448   1.194   3.053   2.565  0.3941 -0.0255  0.1822
 4011TIP3    H233449   1.193   2.917   2.632  0.0024  0.1111  0.4577
 4012TIP3   OH233450   5.355   2.955  15.498  0.1695  0.1030 -0.1679
 4012TIP3    H133451   5.266   2.924  15.482 -0.5168  2.5641 -1.6309
 4012TIP3    H233452   5.410   2.878  15.483 -1.6557 -1.4175  0.5230
 4013TIP3   OH233453   6.243   6.139  11.137  0.4657 -0.1897 -0.2759
 4013TIP3    H133454   6.216   6.230  11.142 -1.0179 -0.6628  2.1318
 4013TIP3    H233455   6.170   6.095  11.093 -0.8197 -0.7660  2.2258
 4014TIP3   OH233456   0.102   6.683   4.640  0.5940  0.4238 -0.3337
 4014TIP3    H133457   0.094   6.779   4.633 -0.4656  0.2641 -1.9920
 4014TIP3    H233458   0.102   6.653   4.549 -2.0651 -1.3380  0.1370
 4015TIP3   OH233459   6.680   1.962  14.356 -0.1598 -0.2248 -0.0071
 4015TIP3    H133460   6.731   2.042  14.357 -0.4705 -0.0242  0.9543
 4015TIP3    H233461   6.654   1.949  14.448 -1.8691 -0.2724 -0.4554
 4016TIP3   OH233462   4.847   1.707   2.991 -0.0510 -0.2601  0.2769
 4016TIP3    H133463   4.856   1.692   3.085 -0.0469  1.2558  0.5340
 4016TIP3    H233464   4.755   1.731   2.979 -0.1920 -1.0080 -0.1974
 4017TIP3   OH233465   0.816   1.825  16.950  0.0084  0.2863 -0.2168
 4017TIP3    H133466   0.732   1.786  16.975  0.6245 -0.4874  0.6885
 4017TIP3    H233467   0.873   1.812  17.025  0.3482  2.7439  0.0550
 4018TIP3   OH233468   2.987   0.484  17.000  0.2640  0.3756  0.1785
 4018TIP3    H133469   3.040   0.460  17.077 -1.7494 -0.0566  1.5201
 4018TIP3    H233470   3.048   0.527  16.941  2.3544 -1.1757  1.1004
 4019TIP3   OH233471   3.254   3.730  11.094  0.3782 -0.3511  0.0836
 4019TIP3    H133472   3.170   3.775  11.085  0.0573 -1.2220 -1.4256
 4019TIP3    H233473   3.304   3.757  11.017  1.7736  0.6929  1.2951
 4020TIP3   OH233474   3.941   3.903  12.945  0.1712  0.2815  0.2341
 4020TIP3    H133475   3.874   3.956  12.987  0.9172  0.2587  1.5027
 4020TIP3    H233476   3.968   3.840  13.013 -1.5175 -2.5412 -1.5379
 4021TIP3   OH233477   0.405   1.689  16.714 -0.5323 -0.4334  0.0390
 4021TIP3    H133478   0.382   1.675  16.622 -0.5055  0.6549 -0.1459
 4021TIP3    H233479   0.481   1.632  16.728 -0.4439 -0.5014 -0.6628
 4022TIP3   OH233480   0.548   2.945   3.435  0.7312  0.4393  0.3628
 4022TIP3    H133481   0.626   2.961   3.488  0.7316  0.2760  0.4103
 4022TIP3    H233482   0.508   3.032   3.425  1.7890  0.7991 -1.0254
 4023TIP3   OH233483   5.056   1.343  15.526 -0.3711  0.3715 -0.2106
 4023TIP3    H133484   4.961   1.353  15.537 -0.0323  2.0542  2.0815
 4023TIP3    H233485   5.088   1.433  15.517  1.1578 -0.0287  0.8985
 4024TIP3   OH233486   3.296   2.058   2.408  0.3543 -0.0871  0.2882
 4024TIP3    H133487   3.256   2.073   2.322 -0.4423  2.6966  1.0641
 4024TIP3    H233488   3.390   2.066   2.392  0.2367 -0.0310 -0.4070
 4025TIP3   OH233489   1.069   5.635  15.266  0.4601  0.2978  0.2566
 4025TIP3    H133490   1.145   5.690  15.286  0.6929  0.2289 -0.4170
 4025TIP3    H233491   1.020   5.631  15.348  1.4300 -0.0367  0.8343
 4026TIP3   OH233492   5.025   1.550   2.818  0.2873  0.1155 -0.3163
 4026TIP3    H133493   4.957   1.542   2.751 -0.2480  0.4755  0.1738
 4026TIP3    H233494   5.000   1.628   2.868  0.6985 -0.1284  0.2742
 4027TIP3   OH233495   5.075   6.702  15.480 -0.2265 -0.2389 -0.3183
 4027TIP3    H133496   5.028   6.775  15.441 -0.5337  0.3332  1.0631
 4027TIP3    H233497   5.161   6.737  15.502 -0.5436 -0.1001  0.8141
 4028TIP3   OH233498   3.804   0.760   1.187 -0.1376  0.0012 -0.1325
 4028TIP3    H133499   3.872   0.736   1.250 -0.8730  0.9742  1.0652
 4028TIP3    H233500   3.794   0.682   1.132  0.3943 -0.9553  1.0737
 4029TIP3   OH233501   4.148   3.810  15.732  0.1565 -0.3628  0.7128
 4029TIP3    H133502   4.222   3.796  15.674 -0.3816  1.7755 -0.6186
 4029TIP3    H233503   4.151   3.903  15.753 -3.0269  0.2172 -0.7474
 4030TIP3   OH233504   0.272   4.602   3.156 -0.0196  0.1792  0.5473
 4030TIP3    H133505   0.233   4.562   3.234  0.4427  1.2638  1.3478
 4030TIP3    H233506   0.198   4.643   3.110 -0.2502 -0.2437  0.5347
 4031TIP3   OH233507   4.685   1.763   1.889  0.0236  0.7996 -0.1554
 4031TIP3    H133508   4.657   1.727   1.974 -0.3773  1.3455 -0.0514
 4031TIP3    H233509   4.717   1.687   1.840  1.8927  0.6986  1.1061
 4032TIP3   OH233510   3.684   5.243  14.642 -0.0789 -0.5770 -0.2249
 4032TIP3    H133511   3.740   5.293  14.702 -2.0256  3.3690 -1.3445
 4032TIP3    H233512   3.610   5.214  14.697  0.1750 -0.6327  0.0908
 4033TIP3   OH233513   4.979   3.544  13.870 -0.0009 -0.6009 -0.7307
 4033TIP3    H133514   5.043   3.485  13.908  3.1345  2.9297  0.1296
 4033TIP3    H233515   5.011   3.561  13.781 -0.4998  0.1975 -0.7697
 4034TIP3   OH233516   5.316   6.294  14.318  0.6997 -0.0101 -0.2837
 4034TIP3    H133517   5.251   6.332  14.377  0.1598 -1.9770  0.4726
 4034TIP3    H233518   5.390   6.355  14.321  0.1062  0.6828  1.2815
 4035TIP3   OH233519   4.672   5.258  16.143 -0.0744  0.1755 -0.2139
 4035TIP3    H133520   4.709   5.335  16.186 -1.4670  0.3461  0.7545
 4035TIP3    H233521   4.629   5.291  16.065 -0.2686  0.3290 -0.0438
 4036TIP3   OH233522   6.227   0.008   6.688  0.2077  0.0375  1.0432
 4036TIP3    H133523   6.315  -0.026   6.701  0.2298  0.4069  1.8872
 4036TIP3    H233524   6.236   0.069   6.615  0.6128 -0.0545  1.0123
 4037TIP3   OH233525   2.649   6.171  14.680 -0.1081  0.1155 -0.1204
 4037TIP3    H133526   2.715   6.102  14.685 -0.3948 -0.1789 -0.3784
 4037TIP3    H233527   2.566   6.125  14.681 -0.4208  0.5853  2.6452
 4038TIP3   OH233528   6.423   4.063  15.628  0.0875 -0.2928  0.4982
 4038TIP3    H133529   6.379   4.127  15.684 -0.8279 -2.3816  2.3163
 4038TIP3    H233530   6.407   3.979  15.671  2.8163 -1.5721 -0.7373
 4039TIP3   OH233531   5.199   5.381  12.772 -0.3753 -0.1518  1.0046
 4039TIP3    H133532   5.277   5.428  12.799 -0.0117 -0.0320 -0.1785
 4039TIP3    H233533   5.146   5.446  12.727 -0.6022 -0.5045  0.7536
 4040TIP3   OH233534   4.440   6.478  12.392  0.0522  0.4948 -0.0706
 4040TIP3    H133535   4.367   6.478  12.331  0.5420 -0.3365 -0.6831
 4040TIP3    H233536   4.490   6.557  12.371  0.3366  0.1061 -0.9157
 4041TIP3   OH233537   4.481   0.564   2.855 -0.0115  0.5070 -0.3702
 4041TIP3    H133538   4.459   0.643   2.904  0.3359  0.3311  0.0785
 4041TIP3    H233539   4.432   0.495   2.898 -0.0558  0.4255 -0.5526
 4042TIP3   OH233540   6.268   5.106   0.702  0.0521 -0.0214 -0.3758
 4042TIP3    H133541   6.227   5.021   0.714 -1.3345  0.7351  0.4706
 4042TIP3    H233542   6.207   5.168   0.742  0.7506  1.4324 -1.4746
 4043TIP3   OH233543   4.645   6.437   5.973  0.2260 -0.2175  0.1419
 4043TIP3    H133544   4.648   6.463   5.881  0.1727  0.6625  0.3814
 4043TIP3    H233545   4.734   6.454   6.005 -0.4697  2.3591  0.9902
 4044TIP3   OH233546   6.669   4.713   1.669  0.3349  0.7844  0.2081
 4044TIP3    H133547   6.740   4.653   1.647 -0.0403 -0.4157  2.0049
 4044TIP3    H233548   6.618   4.721   1.588 -0.5712 -2.7651  0.2607
 4045TIP3   OH233549   0.662   1.792  12.712 -0.1011  0.4155  0.1504
 4045TIP3    H133550   0.696   1.712  12.672 -1.3385 -0.2281  0.3454
 4045TIP3    H233551   0.683   1.784  12.805 -1.4425 -0.3680  0.4121
 4046TIP3   OH233552   5.519   2.382   0.939 -0.3413  0.0851 -0.0877
 4046TIP3    H133553   5.494   2.359   1.029 -1.9632  1.0266 -0.2467
 4046TIP3    H233554   5.553   2.301   0.902 -0.9032 -0.6680  0.9747
 4047TIP3   OH233555   2.133   6.675  12.773  0.2111 -0.6430  0.6677
 4047TIP3    H133556   2.099   6.595  12.733  1.6463 -0.3217 -1.3685
 4047TIP3    H233557   2.086   6.746  12.729  1.6455 -0.2939 -0.3975
 4048TIP3   OH233558   5.970   2.154   6.092  0.2634 -0.2834  0.1032
 4048TIP3    H133559   6.027   2.077   6.095  1.2151  0.4436  1.7546
 4048TIP3    H233560   5.972   2.182   6.000  1.6329 -0.9650 -0.1020
 4049TIP3   OH233561   1.197   2.139   4.834 -0.1082 -0.2405  0.1008
 4049TIP3    H133562   1.230   2.067   4.780 -0.5670 -1.3650  1.2630
 4049TIP3    H233563   1.235   2.123   4.921 -0.2181  0.9318  0.3789
 4050TIP3   OH233564   6.064   0.068  17.019 -0.6191  0.3261 -0.5407
 4050TIP3    H133565   6.152   0.058  17.054 -1.4642  0.4068  1.7376
 4050TIP3    H233566   6.048  -0.014  16.971 -0.1389 -0.6860  0.9757
 4051TIP3   OH233567   0.401   1.453   3.282  0.3104  0.2764  0.0160
 4051TIP3    H133568   0.483   1.413   3.251  0.4811  0.5475  0.1194
 4051TIP3    H233569   0.372   1.396   3.353  0.1097 -0.1425 -0.3899
 4052TIP3   OH233570   3.993   4.823   3.788  0.1849  0.0060  0.2890
 4052TIP3    H133571   3.936   4.798   3.716  1.6748  0.0047 -0.9483
 4052TIP3    H233572   3.934   4.855   3.856 -1.2158  0.9016 -1.2799
 4053TIP3   OH233573   2.015   4.035   5.290 -0.0255 -0.1750 -0.4665
 4053TIP3    H133574   2.070   3.995   5.357 -0.5893 -1.6498 -0.8501
 4053TIP3    H233575   2.074   4.094   5.242  0.4612  0.6674  1.0888
 4054TIP3   OH233576   4.371   2.675   5.005 -0.2639  0.6243  0.1623
 4054TIP3    H133577   4.314   2.751   5.013 -0.3720  0.4497  1.1982
 4054TIP3    H233578   4.450   2.698   5.053 -0.6231 -0.2077  1.1908
 4055TIP3   OH233579   4.251   2.099   1.638 -0.3154  0.4563 -0.2151
 4055TIP3    H133580   4.331   2.071   1.682 -0.6192  0.2718  0.2246
 4055TIP3    H233581   4.187   2.108   1.708 -0.4915  1.2927 -0.4787
 4056TIP3   OH233582   5.766   5.870  14.946 -0.4169  0.4123 -0.5491
 4056TIP3    H133583   5.675   5.895  14.962 -0.9403 -1.0813 -0.9992
 4056TIP3    H233584   5.780   5.889  14.853 -1.2224 -1.9359 -1.2333
 4057TIP3   OH233585   6.328   1.436   0.192 -0.2711 -0.3414  0.7555
 4057TIP3    H133586   6.377   1.511   0.228 -0.2277 -0.2712  0.5510
 4057TIP3    H233587   6.324   1.374   0.264 -1.7387  0.5275  1.4770
 4058TIP3   OH233588   1.372   3.666  16.678 -0.3921 -0.4665 -0.6862
 4058TIP3    H133589   1.377   3.599  16.747  1.0115 -0.8571 -1.1357
 4058TIP3    H233590   1.346   3.617  16.600 -1.9690 -0.0250 -0.4757
 4059TIP3   OH233591   4.376   6.341  11.748 -0.6189  0.4390  0.3910
 4059TIP3    H133592   4.426   6.422  11.749 -0.7108  0.5543 -1.4144
 4059TIP3    H233593   4.440   6.273  11.727 -0.6499  0.1126  1.3119
 4060TIP3   OH233594   0.485   3.077   5.243  0.6817 -0.7086  0.1943
 4060TIP3    H133595   0.452   3.104   5.329 -0.7028 -1.2571 -0.1282
 4060TIP3    H233596   0.459   3.148   5.184 -0.9127 -1.5966 -0.2420
 4061TIP3   OH233597   2.727   2.999  13.686 -0.4474  0.6895 -0.0124
 4061TIP3    H133598   2.661   3.056  13.646 -3.0839 -2.0889 -0.0186
 4061TIP3    H233599   2.757   2.943  13.615 -0.2466  0.0335  0.5776
 4062TIP3   OH233600   3.051   1.276  11.701  0.1773 -0.5994 -0.4898
 4062TIP3    H133601   2.959   1.252  11.702  0.5325 -2.0978  0.6965
 4062TIP3    H233602   3.057   1.349  11.639 -1.8735 -0.1222 -0.1937
 4063TIP3   OH233603   4.543   5.393   5.010 -0.0170  0.1234 -0.0144
 4063TIP3    H133604   4.526   5.307   4.972  0.5774  1.3377 -3.3964
 4063TIP3    H233605   4.631   5.415   4.981  0.2977  1.4021  1.7787
 4064TIP3   OH233606   3.390   4.761  12.186  0.3104 -0.1577  0.3368
 4064TIP3    H133607   3.406   4.855  12.190 -2.5479  0.5767 -2.3466
 4064TIP3    H233608   3.359   4.745  12.098  2.2038 -3.9888  0.1474
 4065TIP3   OH233609   2.477   1.757   0.772 -0.1782  0.0348  0.0215
 4065TIP3    H133610   2.393   1.765   0.817  0.1173  1.6552  0.3684
 4065TIP3    H233611   2.457   1.707   0.693 -1.4145  0.1272  0.2512
 4066TIP3   OH233612   4.876   1.365   5.785 -0.8976  0.8694  0.1447
 4066TIP3    H133613   4.813   1.405   5.846 -1.9340 -0.9602  0.3695
 4066TIP3    H233614   4.909   1.289   5.832  2.3933  2.3414  0.4528
 4067TIP3   OH233615   1.884   3.278  15.767  0.0207 -0.0798  0.0436
 4067TIP3    H133616   1.816   3.329  15.721 -0.5804 -1.2291 -0.3866
 4067TIP3    H233617   1.958   3.276  15.706  0.4163  1.0603  0.4556
 4068TIP3   OH233618   3.639   2.771   2.223 -0.0066 -0.2141  0.3398
 4068TIP3    H133619   3.663   2.783   2.131  1.7025  0.5718  0.8524
 4068TIP3    H233620   3.549   2.804   2.228 -0.8312 -1.9877 -1.3909
 4069TIP3   OH233621   3.549   6.092  12.009  0.0083 -0.3209 -0.1813
 4069TIP3    H133622   3.644   6.108  12.014 -0.1801  0.5480  1.2457
 4069TIP3    H233623   3.513   6.137  12.086 -1.4869 -1.2988 -0.2680
 4070TIP3   OH233624   4.088   5.760  11.848 -1.0648  0.4747 -0.5225
 4070TIP3    H133625   4.027   5.690  11.827 -0.7557  0.3357 -0.9818
 4070TIP3    H233626   4.060   5.792  11.934 -1.7068  0.3377 -0.6760
 4071TIP3   OH233627   5.591   5.153  16.493 -0.2139  0.2491 -0.3234
 4071TIP3    H133628   5.664   5.215  16.481 -1.3944  1.8422  0.3532
 4071TIP3    H233629   5.570   5.159  16.587 -0.1161 -1.4990 -0.1622
 4072TIP3   OH233630   6.338   3.193  15.007  0.0217 -0.5738 -0.0395
 4072TIP3    H133631   6.267   3.162  15.063 -1.1091  2.5064  0.4401
 4072TIP3    H233632   6.305   3.181  14.918 -0.0666 -1.3603  0.0927
 4073TIP3   OH233633   5.317   4.822  12.262  0.3841 -0.1096  0.3718
 4073TIP3    H133634   5.381   4.793  12.196 -0.8532 -0.5730 -0.6646
 4073TIP3    H233635   5.258   4.747  12.272 -0.7565  0.7688  0.3377
 4074TIP3   OH233636   5.796   2.234  12.950 -0.3823 -0.1919  0.0086
 4074TIP3    H133637   5.772   2.186  13.030 -0.3611 -0.4249 -0.1237
 4074TIP3    H233638   5.725   2.216  12.889 -1.0439  1.0136  0.3822
 4075TIP3   OH233639   1.709   6.148  14.980 -0.8743  0.0222  0.1046
 4075TIP3    H133640   1.801   6.156  15.005 -1.0263  1.0148  0.4051
 4075TIP3    H233641   1.662   6.201  15.044 -1.3722  1.8226 -1.6203
 4076TIP3   OH233642   2.938   0.913   3.714 -0.3383 -0.4249  1.4921
 4076TIP3    H133643   3.026   0.877   3.727  0.5084 -0.2538 -2.3485
 4076TIP3    H233644   2.891   0.845   3.667 -0.6834  1.0648 -0.4868
 4077TIP3   OH233645   4.272   5.212  14.465 -0.0203 -0.8705 -0.2218
 4077TIP3    H133646   4.286   5.139  14.525 -0.0176 -0.6881  0.0001
 4077TIP3    H233647   4.188   5.194  14.424  0.2187 -1.2635 -0.5497
 4078TIP3   OH233648   1.210   3.666   3.875 -0.3059  0.2562 -0.4547
 4078TIP3    H133649   1.179   3.609   3.945 -0.7581  0.1922 -0.7075
 4078TIP3    H233650   1.245   3.606   3.809 -0.5726  0.2791 -0.6188
 4079TIP3   OH233651   1.189   4.917  14.044 -0.9084  0.5352  0.3027
 4079TIP3    H133652   1.183   4.889  14.136  0.0373 -3.3957 -0.6376
 4079TIP3    H233653   1.101   4.905  14.010 -0.6312 -1.1383  0.0484
 4080TIP3   OH233654   3.927   1.787  12.725  0.4508 -0.4537  0.8559
 4080TIP3    H133655   3.946   1.776  12.631  0.2618 -1.4195  0.9159
 4080TIP3    H233656   3.933   1.881  12.740  0.6358 -0.3008 -0.0966
 4081TIP3   OH233657   1.703   5.581   2.758  0.7463 -0.4069 -0.6207
 4081TIP3    H133658   1.704   5.559   2.851  2.1388 -0.7241 -0.6859
 4081TIP3    H233659   1.630   5.642   2.748  1.3034  0.5606  0.9049
 4082TIP3   OH233660   4.378   6.040   5.469 -0.1401  0.0842  0.1120
 4082TIP3    H133661   4.337   6.000   5.546  0.6151  0.6483  0.8302
 4082TIP3    H233662   4.469   6.013   5.474 -0.4312 -1.4420 -1.6582
 4083TIP3   OH233663   5.896   3.166  15.252 -0.2924  0.1307 -0.1733
 4083TIP3    H133664   5.895   3.208  15.338  1.2158 -0.3356  0.0999
 4083TIP3    H233665   5.936   3.080  15.268 -1.0021 -0.4065 -1.1630
 4084TIP3   OH233666   6.699   0.183   5.801 -0.2561  0.7530  0.3125
 4084TIP3    H133667   6.667   0.229   5.723 -0.9147  0.1498  0.2120
 4084TIP3    H233668   6.717   0.252   5.865 -1.9893  1.1205  0.4505
 4085TIP3   OH233669   2.860   3.063  13.223 -0.0657 -0.1065  0.3544
 4085TIP3    H133670   2.797   3.003  13.184  0.6917  0.0252 -1.1477
 4085TIP3    H233671   2.813   3.147  13.228 -0.8456 -0.6072  1.6757
 4086TIP3   OH233672   5.537   1.842   4.867 -0.8109  0.1346  0.2231
 4086TIP3    H133673   5.575   1.804   4.787  0.3854 -0.4622  1.0466
 4086TIP3    H233674   5.486   1.916   4.835  0.0505  0.2193 -1.0724
 4087TIP3   OH233675   4.200   2.151  12.529 -0.3681  0.1076  0.0090
 4087TIP3    H133676   4.252   2.072  12.514 -1.5420 -1.0237  1.5801
 4087TIP3    H233677   4.260   2.211  12.573  0.3865 -0.0799 -0.7279
 4088TIP3   OH233678   5.331   3.663   3.063 -0.3326  1.0256 -0.4345
 4088TIP3    H133679   5.280   3.623   2.993 -1.0186  0.3872  0.4016
 4088TIP3    H233680   5.304   3.616   3.142 -0.0296  2.1243  0.3537
 4089TIP3   OH233681   6.646   5.038   2.837 -0.2064 -0.1634 -0.4122
 4089TIP3    H133682   6.592   5.114   2.813  0.9319 -0.0599 -2.9660
 4089TIP3    H233683   6.727   5.075   2.870 -0.1728 -0.2844 -0.3567
 4090TIP3   OH233684   0.940   2.836  13.502  0.6993  0.4034 -0.2505
 4090TIP3    H133685   0.973   2.878  13.423 -0.3271  3.3030  0.7252
 4090TIP3    H233686   0.848   2.816  13.482  0.9390 -0.6495 -0.3885
 4091TIP3   OH233687   2.282   4.022  11.411  0.2328 -0.4729  0.1903
 4091TIP3    H133688   2.287   3.981  11.498  1.8017  0.0105  0.3593
 4091TIP3    H233689   2.303   3.952  11.350 -2.0924 -1.1323  0.0527
 4092TIP3   OH233690   3.778   2.659  12.485 -0.2369  0.8301  0.2743
 4092TIP3    H133691   3.695   2.663  12.437  0.3717 -1.2551 -1.0931
 4092TIP3    H233692   3.753   2.659  12.577 -1.9769 -1.9208 -0.0890
 4093TIP3   OH233693   3.172   1.410  12.740  0.2783  1.1151 -0.0277
 4093TIP3    H133694   3.188   1.444  12.652  1.1214  0.1479 -0.2638
 4093TIP3    H233695   3.148   1.487  12.791  1.6469  2.0012 -0.6605
 4094TIP3   OH233696   3.647   3.036  13.155  0.2472  0.0843  0.1974
 4094TIP3    H133697   3.589   3.000  13.087 -1.3907 -0.4928  1.8139
 4094TIP3    H233698   3.715   2.969  13.166  0.2834 -0.0149 -0.5532
 4095TIP3   OH233699   0.195   4.967   2.789 -0.2635  0.1802 -0.3942
 4095TIP3    H133700   0.234   4.996   2.872  0.4242  2.1496 -1.3463
 4095TIP3    H233701   0.156   5.046   2.752 -0.5572 -0.6565 -1.9610
 4096TIP3   OH233702   4.795   1.919  14.714 -0.0820 -0.0565  0.3168
 4096TIP3    H133703   4.889   1.900  14.717 -0.3417 -1.4522  0.4379
 4096TIP3    H233704   4.788   2.012  14.734  1.2450 -0.0343  0.7421
 4097TIP3   OH233705   5.168   3.339   4.071 -0.4413 -0.2675  0.2127
 4097TIP3    H133706   5.161   3.257   4.022 -0.2394  0.0416 -0.3462
 4097TIP3    H233707   5.097   3.336   4.134  0.2610 -1.3999  0.9869
 4098TIP3   OH233708   3.377   6.754   6.041 -0.0839 -0.0658 -0.0002
 4098TIP3    H133709   3.450   6.781   6.097 -1.8715 -1.5071  3.2764
 4098TIP3    H233710   3.384   6.659   6.036 -1.3960 -0.1658 -0.1503
 4099TIP3   OH233711   6.522   1.209   1.827 -0.8725 -0.2733 -0.1413
 4099TIP3    H133712   6.607   1.175   1.797  0.1994  0.4483  1.8453
 4099TIP3    H233713   6.495   1.148   1.896 -0.6487  0.8843  1.0200
 4100TIP3   OH233714   1.747   0.879   1.150  0.3228 -0.6548  0.5455
 4100TIP3    H133715   1.721   0.887   1.241 -0.9835  0.2824  0.1174
 4100TIP3    H233716   1.668   0.848   1.105  0.3587  0.7267 -0.5435
 4101TIP3   OH233717   2.663   5.667  15.816 -0.2053  0.0313  0.3875
 4101TIP3    H133718   2.709   5.748  15.837 -0.0273 -0.1096  0.5444
 4101TIP3    H233719   2.732   5.605  15.792 -0.3601  0.0051 -0.0056
 4102TIP3   OH233720   6.622   5.745   2.075  0.0313 -0.4969 -0.5601
 4102TIP3    H133721   6.567   5.731   1.998  1.0595 -0.3899 -1.3353
 4102TIP3    H233722   6.706   5.773   2.040  0.5631 -0.5628  0.6019
 4103TIP3   OH233723   4.833   4.489   2.310  0.5829  0.1923 -0.8758
 4103TIP3    H133724   4.770   4.442   2.255  0.6055  0.0805 -0.8054
 4103TIP3    H233725   4.907   4.506   2.252  0.9763 -0.6855 -0.6508
 4104TIP3   OH233726   2.637   1.805  16.026 -0.2888  0.6942  0.0196
 4104TIP3    H133727   2.707   1.775  15.968 -0.0874 -2.2945  1.5941
 4104TIP3    H233728   2.672   1.792  16.114 -2.7847 -1.1084  0.8606
 4105TIP3   OH233729   0.901   5.948   3.045  0.0505 -0.1276 -0.2043
 4105TIP3    H133730   0.809   5.938   3.022  0.1502  0.3041 -0.8024
 4105TIP3    H233731   0.935   6.013   2.984  1.5262 -2.4829 -2.0567
 4106TIP3   OH233732   4.260   0.615  14.419 -0.5503 -0.0699 -0.6073
 4106TIP3    H133733   4.204   0.675  14.466  0.0900  0.6658 -0.7533
 4106TIP3    H233734   4.258   0.534  14.469  0.3547  0.7813  0.8678
 4107TIP3   OH233735   1.096   3.736   0.544 -0.7019  0.2063  1.0071
 4107TIP3    H133736   1.053   3.759   0.462  1.7533  2.3586  0.1827
 4107TIP3    H233737   1.024   3.714   0.603 -2.5560 -2.6576 -1.9207
 4108TIP3   OH233738   1.843   6.091  13.117 -0.1253  0.1375  0.5876
 4108TIP3    H133739   1.912   6.026  13.105 -0.8152 -0.4839 -0.0238
 4108TIP3    H233740   1.764   6.040  13.135 -0.2869  0.8613  2.0971
 4109TIP3   OH233741   5.148   3.259   4.513 -0.3191 -0.3372  0.0130
 4109TIP3    H133742   5.119   3.268   4.422 -0.7410 -2.4350 -0.1071
 4109TIP3    H233743   5.131   3.345   4.552 -0.8928  0.3590 -1.6684
 4110TIP3   OH233744   5.115   3.046  17.201 -0.2811 -0.1049  0.2535
 4110TIP3    H133745   5.200   3.013  17.172  0.0902  0.3546  0.8138
 4110TIP3    H233746   5.110   3.135  17.165 -0.6960 -0.2697 -0.1055
 4111TIP3   OH233747   3.930   6.193   3.500  0.5260 -0.6707 -0.1420
 4111TIP3    H133748   3.860   6.130   3.519  0.2015  0.4517  2.9874
 4111TIP3    H233749   3.884   6.274   3.478  0.8636 -0.4066  0.1158
 4112TIP3   OH233750   6.281   5.432   3.063 -0.1269  0.3961  0.7638
 4112TIP3    H133751   6.188   5.431   3.044  0.3498 -1.8334 -2.2725
 4112TIP3    H233752   6.303   5.340   3.079  1.9097  0.4468 -1.2415
 4113TIP3   OH233753   5.772   3.853   5.586 -0.6885 -0.0229  0.1882
 4113TIP3    H133754   5.844   3.826   5.529 -0.5511 -1.7423  1.1094
 4113TIP3    H233755   5.758   3.945   5.566  0.1594 -0.2737 -1.7332
 4114TIP3   OH233756   2.037   1.509  12.184 -0.1361  0.0695 -0.1757
 4114TIP3    H133757   2.009   1.597  12.212 -0.5184  0.0563 -0.5012
 4114TIP3    H233758   2.114   1.525  12.130 -0.0585  0.1884 -0.0285
 4115TIP3   OH233759   3.044   6.712  16.988  0.8232  0.2013  0.5555
 4115TIP3    H133760   2.958   6.712  16.944  1.6841 -1.0299 -1.2540
 4115TIP3    H233761   3.028   6.756  17.071 -0.8448  2.9730 -1.0784
 4116TIP3   OH233762   1.561   4.351   4.807  0.9459  0.1356  0.3480
 4116TIP3    H133763   1.609   4.429   4.835  1.6742 -0.4298  0.7208
 4116TIP3    H233764   1.611   4.318   4.732 -0.3042  0.9532 -0.8836
 4117TIP3   OH233765   5.622   2.940  12.802 -0.1633  0.5473 -0.4254
 4117TIP3    H133766   5.641   2.872  12.868  0.5325  1.8484  0.7579
 4117TIP3    H233767   5.547   2.904  12.753 -0.0577 -0.9062  0.4023
 4118TIP3   OH233768   1.710   2.805   1.300  0.3318 -0.2586 -0.7084
 4118TIP3    H133769   1.685   2.719   1.332  1.1975  0.3624  1.9124
 4118TIP3    H233770   1.758   2.788   1.220 -1.0872 -2.0391 -1.2490
 4119TIP3   OH233771   6.073   5.172   5.954 -0.5348  0.2954  0.1517
 4119TIP3    H133772   6.147   5.138   6.004 -0.1728  0.3738 -0.3257
 4119TIP3    H233773   6.097   5.263   5.934 -0.6804  0.2681 -0.1573
 4120TIP3   OH233774   2.505   0.084   6.423 -0.2098 -0.4839 -0.7368
 4120TIP3    H133775   2.563   0.029   6.476 -1.8152 -0.9488  0.6452
 4120TIP3    H233776   2.449   0.128   6.488 -1.0782  0.3094 -1.9839
 4121TIP3   OH233777   2.215   2.473   5.037  0.4395  0.0710  0.1943
 4121TIP3    H133778   2.212   2.563   5.006  0.9924  1.2636  3.2642
 4121TIP3    H233779   2.145   2.467   5.102 -0.5140 -2.1812 -0.9362
 4122TIP3   OH233780   3.776   1.705  14.133  0.0751 -0.2238  0.4861
 4122TIP3    H133781   3.859   1.747  14.111  0.5853 -0.2664  2.1966
 4122TIP3    H233782   3.735   1.763  14.196 -0.8441 -0.5991  0.2567
 4123TIP3   OH233783   4.880   5.157   5.123  0.0479 -0.2418  0.1480
 4123TIP3    H133784   4.953   5.104   5.153  0.4721  0.3816  0.2356
 4123TIP3    H233785   4.804   5.122   5.170  0.2729 -0.9402 -0.0023
 4124TIP3   OH233786   3.181   5.515  12.065  0.5837 -0.0305  0.1225
 4124TIP3    H133787   3.222   5.511  11.979 -0.0406 -1.8701 -0.1521
 4124TIP3    H233788   3.253   5.499  12.126  0.6752 -0.9705 -0.2148
 4125TIP3   OH233789   1.787   2.547   3.880  0.2117  0.3320  0.3866
 4125TIP3    H133790   1.790   2.510   3.968 -0.2962  1.9584  1.1304
 4125TIP3    H233791   1.838   2.486   3.827  1.8105  0.0882  2.0894
 4126TIP3   OH233792   1.701   1.380  11.098  0.1048  0.3068  0.1108
 4126TIP3    H133793   1.610   1.391  11.069  0.2911 -0.3296 -0.7552
 4126TIP3    H233794   1.742   1.329  11.028  0.2256 -2.5100  2.1081
 4127TIP3   OH233795   4.108   3.661  11.547 -0.0975  0.2737 -0.0384
 4127TIP3    H133796   4.105   3.715  11.626 -0.0721  0.2748 -0.0382
 4127TIP3    H233797   4.170   3.592  11.567  0.6161  0.8016 -0.3892
 4128TIP3   OH233798   5.437   1.064   3.028  0.3380 -0.6359 -0.1984
 4128TIP3    H133799   5.529   1.058   3.056 -0.0141 -0.4311  1.0589
 4128TIP3    H233800   5.440   1.047   2.934  1.6170 -1.0522 -0.1087
 4129TIP3   OH233801   5.964   5.739   3.683  0.0053  0.4694 -0.0782
 4129TIP3    H133802   5.952   5.644   3.680 -2.2020  0.6684  0.7647
 4129TIP3    H233803   5.882   5.775   3.648  1.4640  2.0975 -2.0611
 4130TIP3   OH233804   2.211   5.246   6.454 -0.7235 -0.2388  0.6457
 4130TIP3    H133805   2.270   5.251   6.378  0.4288 -1.4083  1.4099
 4130TIP3    H233806   2.223   5.329   6.500  0.4336 -0.4858  0.8304
 4131TIP3   OH233807   2.542   2.307  15.260  0.0295  0.0525 -0.0218
 4131TIP3    H133808   2.633   2.279  15.256  0.0848 -0.1435  1.8173
 4131TIP3    H233809   2.492   2.227  15.244  0.1996 -0.3141  1.1776
 4132TIP3   OH233810   4.440   6.459  16.163  0.1428  0.0952 -0.5705
 4132TIP3    H133811   4.511   6.438  16.223 -0.4155 -0.6118 -0.1400
 4132TIP3    H233812   4.363   6.466  16.219 -0.3616 -0.4438 -1.1851
 4133TIP3   OH233813   6.163   5.933   4.763 -1.2068 -0.2111  0.0313
 4133TIP3    H133814   6.222   5.898   4.696  1.1051  1.4217  1.0667
 4133TIP3    H233815   6.083   5.881   4.754  0.0190 -1.9187 -2.0984
 4134TIP3   OH233816   3.532   2.087   6.201  0.1329  0.3622 -0.0084
 4134TIP3    H133817   3.625   2.101   6.217  0.3163  0.9654 -1.4138
 4134TIP3    H233818   3.507   2.015   6.259  1.0594  1.3439  1.6478
 4135TIP3   OH233819   2.471   1.877   1.442 -0.6936 -0.0778 -0.0383
 4135TIP3    H133820   2.395   1.921   1.405 -1.2942 -0.4784  0.6944
 4135TIP3    H233821   2.438   1.794   1.475 -0.3391  0.4765  1.9031
 4136TIP3   OH233822   2.413   0.888   2.140 -0.0135  0.4052 -0.2120
 4136TIP3    H133823   2.402   0.841   2.223 -1.3571 -0.8604 -1.0654
 4136TIP3    H233824   2.435   0.977   2.166  0.5715 -0.1988  1.4927
 4137TIP3   OH233825   3.275   1.910   3.232  0.2092 -0.1923  0.4047
 4137TIP3    H133826   3.249   1.935   3.320 -1.1654 -0.1276  0.0074
 4137TIP3    H233827   3.365   1.941   3.223  0.3909 -0.2686  1.7975
 4138TIP3   OH233828   3.364   2.182  11.388 -0.0167  0.1485  0.1923
 4138TIP3    H133829   3.386   2.090  11.374 -2.4549 -0.3449 -1.0332
 4138TIP3    H233830   3.359   2.219  11.300 -0.3472  1.1074  0.6031
 4139TIP3   OH233831   4.308   2.534  11.709  0.9694  0.0936 -0.4957
 4139TIP3    H133832   4.311   2.509  11.802 -0.7319  1.1256 -0.0993
 4139TIP3    H233833   4.234   2.595  11.704 -0.0656 -1.2116 -2.8411
 4140TIP3   OH233834   3.517   0.849  13.342 -0.0165 -0.1094 -0.0585
 4140TIP3    H133835   3.429   0.825  13.370 -0.0969 -0.4588 -0.5893
 4140TIP3    H233836   3.509   0.938  13.309 -0.3194 -0.3673 -0.7135
 4141TIP3   OH233837   3.909   5.962  14.486  0.0568 -0.3870  0.4634
 4141TIP3    H133838   4.004   5.956  14.486  0.1640  0.8823  0.0572
 4141TIP3    H233839   3.880   5.891  14.429  0.8275 -0.2232 -0.1452
 4142TIP3   OH233840   1.346   0.738  15.305 -0.1747  0.1224 -0.2657
 4142TIP3    H133841   1.258   0.766  15.330 -0.1713  0.8054 -0.9813
 4142TIP3    H233842   1.375   0.804  15.243  0.7912 -0.1817 -0.1456
 4143TIP3   OH233843   2.939   4.468   4.161 -0.0962  0.6484 -0.0390
 4143TIP3    H133844   2.994   4.396   4.192 -1.8619 -0.6955  0.1025
 4143TIP3    H233845   3.000   4.527   4.115  1.4725 -0.6566  0.2885
 4144TIP3   OH233846   1.998   3.805   4.360  0.3986 -1.0040 -0.3179
 4144TIP3    H133847   1.992   3.773   4.450  1.5761 -2.5138 -0.7416
 4144TIP3    H233848   2.058   3.879   4.364 -0.6046 -0.1992  0.3265
 4145TIP3   OH233849   0.147   5.153  11.915 -0.3090  0.3516  0.6218
 4145TIP3    H133850   0.211   5.084  11.933 -0.6942  0.2067  1.4597
 4145TIP3    H233851   0.164   5.219  11.981  1.6289  2.2292 -1.5518
 4146TIP3   OH233852   2.653   0.965  17.141  0.1186  0.2588 -0.0233
 4146TIP3    H133853   2.695   1.013  17.069  0.6417 -0.1458  0.0053
 4146TIP3    H233854   2.563   0.995  17.140 -0.1350 -0.4574 -1.4630
 4147TIP3   OH233855   2.512   5.727   0.073  0.0122  0.2381 -0.0997
 4147TIP3    H133856   2.608   5.728   0.063 -0.1285  1.6983 -1.8243
 4147TIP3    H233857   2.479   5.737  -0.016 -1.7737 -0.3021  0.4625
 4148TIP3   OH233858   2.967   5.400  13.241  0.2986 -0.1286  0.6423
 4148TIP3    H133859   2.923   5.339  13.182  0.9315 -0.1315  0.1520
 4148TIP3    H233860   3.054   5.411  13.202  0.0244  1.4871  0.4284
 4149TIP3   OH233861   1.771   1.298  12.147  0.2316  0.2793 -0.1289
 4149TIP3    H133862   1.684   1.300  12.187  0.0448 -1.2525 -0.3967
 4149TIP3    H233863   1.768   1.365  12.079 -0.9123 -0.0655 -0.4432
 4150TIP3   OH233864   2.936   3.915   4.944 -0.1059 -0.7183  0.4055
 4150TIP3    H133865   3.008   3.882   4.997 -0.3548 -1.8456  0.0633
 4150TIP3    H233866   2.938   3.861   4.864  1.0159  1.6883 -1.3234
 4151TIP3   OH233867   6.774   5.508   5.807 -0.7667  0.9202 -0.3410
 4151TIP3    H133868   6.864   5.511   5.777 -0.4747  1.7431  0.5642
 4151TIP3    H233869   6.721   5.516   5.728 -0.0417  1.0230 -0.8149
 4152TIP3   OH233870   2.105   5.171   4.265 -0.1405  0.2809  0.6069
 4152TIP3    H133871   2.154   5.252   4.280  0.7784 -0.3325  0.9974
 4152TIP3    H233872   2.172   5.107   4.241 -0.7898 -0.5220  0.9036
 4153TIP3   OH233873   5.668   5.170  14.157 -0.2540  0.3954  0.0727
 4153TIP3    H133874   5.574   5.163  14.175 -0.3115  2.1704  0.6136
 4153TIP3    H233875   5.701   5.081  14.170 -1.6918 -0.0650  0.8122
 4154TIP3   OH233876   4.223   1.519   5.020 -0.3879 -0.6047 -0.1933
 4154TIP3    H133877   4.229   1.605   4.979 -0.7806 -0.1230  0.7288
 4154TIP3    H233878   4.177   1.465   4.955 -2.8051  0.6640  0.3241
 4155TIP3   OH233879   0.686   2.133  10.859 -0.0431 -0.5664  0.4250
 4155TIP3    H133880   0.723   2.090  10.782  0.0333  0.3784 -0.0779
 4155TIP3    H233881   0.714   2.224  10.852 -2.2045  0.1530  0.1458
 4156TIP3   OH233882   6.760   5.065   5.669 -0.0858 -0.5334  0.1127
 4156TIP3    H133883   6.726   5.030   5.751 -0.4945 -1.3818 -0.3968
 4156TIP3    H233884   6.759   4.990   5.609 -0.3257  0.1901 -0.8166
 4157TIP3   OH233885   2.394   2.692   0.283  0.6141 -0.2462 -0.5569
 4157TIP3    H133886   2.347   2.740   0.216 -0.0100 -0.5257 -0.3257
 4157TIP3    H233887   2.339   2.616   0.302  0.7292 -0.1198  0.3361
 4158TIP3   OH233888   2.995   3.395  15.011  0.2273 -0.3388 -0.1567
 4158TIP3    H133889   3.067   3.385  15.074  0.1719 -1.5596 -0.2774
 4158TIP3    H233890   2.954   3.309  15.007  0.4246 -0.3850 -2.0988
 4159TIP3   OH233891   0.402   3.363   3.203 -0.1670 -0.2870  0.3338
 4159TIP3    H133892   0.377   3.440   3.153 -1.0822 -0.8076 -0.0127
 4159TIP3    H233893   0.322   3.313   3.214  0.0752 -0.3939  1.9783
 4160TIP3   OH233894   6.697   4.128   1.745 -0.5091  0.0167 -0.0991
 4160TIP3    H133895   6.784   4.122   1.782 -0.8447 -0.3138  0.6488
 4160TIP3    H233896   6.638   4.104   1.817 -1.1807 -0.4269 -0.7825
 4161TIP3   OH233897   6.274   2.708   4.482  0.1283 -0.0695  0.9437
 4161TIP3    H133898   6.347   2.770   4.479 -0.5842  0.8017  1.0910
 4161TIP3    H233899   6.199   2.761   4.508 -0.6500 -0.8683  0.3920
 4162TIP3   OH233900   6.707   4.760   4.710  0.1413 -0.2615  0.4120
 4162TIP3    H133901   6.684   4.769   4.618 -0.7222 -2.5285  0.3472
 4162TIP3    H233902   6.626   4.782   4.757 -0.6445 -2.8494  0.4103
 4163TIP3   OH233903   6.445   3.578  16.311  0.3540  0.0537 -0.0833
 4163TIP3    H133904   6.464   3.529  16.391  0.2497 -1.6645 -1.0465
 4163TIP3    H233905   6.499   3.536  16.244 -1.6216 -0.4215 -1.4724
 4164TIP3   OH233906   5.408   1.774  12.574 -0.1497 -0.0929 -0.2572
 4164TIP3    H133907   5.491   1.799  12.614  0.3966  1.8853 -2.4576
 4164TIP3    H233908   5.342   1.799  12.639  0.8950 -1.9426  1.6339
 4165TIP3   OH233909   2.757   0.625   1.170  0.0440  0.2124  0.5779
 4165TIP3    H133910   2.801   0.659   1.093 -0.6973  1.4557  0.6689
 4165TIP3    H233911   2.800   0.541   1.188 -0.2667 -0.4725 -1.6091
 4166TIP3   OH233912   5.792   1.425  15.790 -0.4055  0.2067  0.6854
 4166TIP3    H133913   5.799   1.426  15.695  1.8263  0.6915  0.8105
 4166TIP3    H233914   5.719   1.365  15.808  0.6022 -1.7544 -1.2713
 4167TIP3   OH233915   4.629   4.025  15.474 -0.4507  0.1283  0.5363
 4167TIP3    H133916   4.544   4.058  15.505 -0.8059  1.5419 -1.6740
 4167TIP3    H233917   4.607   3.970  15.399  0.5958  1.6338 -0.9507
 4168TIP3   OH233918   0.691   5.315   1.367 -0.2413 -0.7513 -0.2899
 4168TIP3    H133919   0.632   5.283   1.435  0.6658 -0.2222  0.7833
 4168TIP3    H233920   0.633   5.352   1.300 -1.1538 -1.2407  0.2115
 4169TIP3   OH233921   2.754   6.741   3.026  0.2941 -0.2234  0.5839
 4169TIP3    H133922   2.839   6.699   3.038 -0.9311 -2.6717  1.2617
 4169TIP3    H233923   2.704   6.716   3.103 -1.8801 -1.0445 -1.0022
 4170TIP3   OH233924   3.569   3.060  14.356 -0.2779  0.0298 -0.1897
 4170TIP3    H133925   3.477   3.086  14.365  0.2281  1.4483  1.3276
 4170TIP3    H233926   3.618   3.130  14.398  1.6844  0.5091 -3.0096
 4171TIP3   OH233927   6.472   1.621  13.340  0.4214 -0.0515 -0.1959
 4171TIP3    H133928   6.421   1.541  13.326  0.5018 -0.3168  0.9839
 4171TIP3    H233929   6.547   1.612  13.281 -0.7924  0.2888 -1.8692
 4172TIP3   OH233930   6.262   2.721  17.160  0.1956 -0.1750 -0.0443
 4172TIP3    H133931   6.311   2.645  17.191  0.6189  0.2548  0.3569
 4172TIP3    H233932   6.294   2.736  17.071  1.4286  0.6116  0.5096
 4173TIP3   OH233933   6.573   3.604  16.919 -0.2675 -0.5156 -0.6634
 4173TIP3    H133934   6.514   3.528  16.914 -0.5334 -0.3201 -0.5196
 4173TIP3    H233935   6.564   3.635  17.009 -1.8190  0.9987 -1.2691
 4174TIP3   OH233936   1.496   3.912   5.916 -0.1706 -0.6564  0.0289
 4174TIP3    H133937   1.504   3.896   5.822 -0.8357  0.6498 -0.2698
 4174TIP3    H233938   1.578   3.879   5.953  0.1107 -1.1622 -1.0066
 4175TIP3   OH233939   5.210   4.355  11.535  0.5477 -0.4349  0.3912
 4175TIP3    H133940   5.227   4.354  11.440  0.4331 -0.4986  0.3713
 4175TIP3    H233941   5.285   4.309  11.573  0.8218 -0.0093  0.3697
 4176TIP3   OH233942   2.487   2.636  12.264  0.2394 -0.2634 -0.6218
 4176TIP3    H133943   2.420   2.680  12.316 -1.5261 -2.2186 -1.1194
 4176TIP3    H233944   2.466   2.657  12.174  0.7462 -0.3290 -0.7617
 4177TIP3   OH233945   2.571   0.245   2.575  0.0426  0.5603  0.1635
 4177TIP3    H133946   2.612   0.212   2.495  0.5192  0.0769  0.6044
 4177TIP3    H233947   2.644   0.275   2.629 -0.2881  0.9763  0.3859
 4178TIP3   OH233948   4.104   5.197   2.438  0.3724 -0.6077  0.3578
 4178TIP3    H133949   4.027   5.198   2.494 -0.0853  0.7362 -0.2680
 4178TIP3    H233950   4.147   5.281   2.453  1.3668 -1.0646  0.2099
 4179TIP3   OH233951   3.305   3.759  16.571 -0.0023 -0.1558 -0.0293
 4179TIP3    H133952   3.344   3.745  16.485 -0.6181 -0.5880 -0.2384
 4179TIP3    H233953   3.217   3.723  16.565  0.2455 -1.0113  1.0515
 4180TIP3   OH233954   4.620   2.815   4.222 -0.6360  0.1726  0.1058
 4180TIP3    H133955   4.535   2.796   4.261  0.6236 -0.5582  2.6760
 4180TIP3    H233956   4.681   2.817   4.295  1.4517  1.6346 -1.5356
 4181TIP3   OH233957   5.860   3.398  15.791 -0.4561  0.3413 -0.5413
 4181TIP3    H133958   5.946   3.432  15.813 -0.1725  0.3726 -1.6208
 4181TIP3    H233959   5.843   3.330  15.855  0.5802  0.0191 -0.6018
 4182TIP3   OH233960   6.679   2.344   4.823  0.2059  0.0912 -0.0290
 4182TIP3    H133961   6.584   2.336   4.836  0.0445 -0.7522 -1.4523
 4182TIP3    H233962   6.702   2.267   4.771  1.7525  0.0940  0.6016
 4183TIP3   OH233963   2.085   5.476   1.105  0.2668  0.2792 -0.1089
 4183TIP3    H133964   2.115   5.435   1.187  2.0563 -2.2480 -1.8493
 4183TIP3    H233965   2.046   5.404   1.056 -1.0542  1.8043 -1.4024
 4184TIP3   OH233966   4.185   5.035   2.941 -0.2821 -0.1737  0.2028
 4184TIP3    H133967   4.112   5.028   2.880 -0.1673 -0.8090  0.1238
 4184TIP3    H233968   4.213   4.944   2.956  0.7843  0.0796 -0.1346
 4185TIP3   OH233969   0.398   4.983  14.676 -0.2474 -0.7504  0.1420
 4185TIP3    H133970   0.447   4.926  14.736 -1.4411 -1.5392  0.3930
 4185TIP3    H233971   0.341   4.924  14.628  0.0886 -0.0128 -1.2059
 4186TIP3   OH233972   5.960   4.455  11.162 -0.4877 -0.1215  0.0220
 4186TIP3    H133973   5.999   4.382  11.113  0.4225 -0.6343  1.4277
 4186TIP3    H233974   6.008   4.532  11.132  0.4975 -0.5195  0.5088
 4187TIP3   OH233975   0.383   3.492  16.039  0.0026 -0.1012  0.2129
 4187TIP3    H133976   0.338   3.576  16.027 -0.7158 -0.4655  0.2915
 4187TIP3    H233977   0.318   3.426  16.014  0.6312 -0.6301 -0.0518
 4188TIP3   OH233978   6.664   2.254  15.388 -0.3044 -0.0050 -0.0643
 4188TIP3    H133979   6.572   2.250  15.414 -0.3340  1.1319  0.0513
 4188TIP3    H233980   6.702   2.320  15.446  0.9515 -1.5444  0.9389
 4189TIP3   OH233981   4.740   0.710   5.725  0.1505 -0.1813  0.0644
 4189TIP3    H133982   4.702   0.705   5.637  1.3318 -1.4498 -0.4119
 4189TIP3    H233983   4.806   0.779   5.719 -0.1533  0.1186  0.1239
 4190TIP3   OH233984   2.301   1.864   6.119  0.6504  0.0597 -0.2454
 4190TIP3    H133985   2.306   1.789   6.059 -0.0680  0.9015 -1.3936
 4190TIP3    H233986   2.390   1.873   6.152  0.7335 -1.3361 -0.0420
 4191TIP3   OH233987   5.719   3.097  13.628 -0.1081 -0.0408  0.3195
 4191TIP3    H133988   5.736   3.010  13.664  0.7355  0.5375  1.3933
 4191TIP3    H233989   5.804   3.141  13.630 -0.1500  0.2493 -1.8429
 4192TIP3   OH233990   2.299   5.643  11.650  0.3091  0.0983  0.0676
 4192TIP3    H133991   2.257   5.619  11.567  1.1332 -0.7709 -0.1258
 4192TIP3    H233992   2.295   5.563  11.703  2.0732 -0.1697 -0.1332
 4193TIP3   OH233993   5.776   1.688  15.081  0.2332  0.3603 -0.2167
 4193TIP3    H133994   5.826   1.764  15.050  0.6944 -0.5157 -1.7347
 4193TIP3    H233995   5.795   1.619  15.017 -2.8564 -0.0559 -0.8398
 4194TIP3   OH233996   3.465   5.423   2.502 -0.4307  0.0494  0.4079
 4194TIP3    H133997   3.525   5.376   2.445 -0.8614 -0.7538  0.6026
 4194TIP3    H233998   3.418   5.355   2.549 -0.5651  0.6925  1.2260
 4195TIP3   OH233999   2.070   5.706   1.296 -0.8122 -0.3280  0.3767
 4195TIP3    H134000   2.075   5.618   1.257 -0.1192  0.2232 -0.8170
 4195TIP3    H234001   2.152   5.716   1.343 -1.5107 -0.8631  1.7880
 4196TIP3   OH234002   4.209   0.099   4.640 -0.0856 -0.1642  0.0970
 4196TIP3    H134003   4.157   0.162   4.591  1.3246  1.2254  0.3119
 4196TIP3    H234004   4.152   0.072   4.712 -0.9147  0.4472 -0.3079
 4197TIP3   OH234005   4.626   3.056   1.450  0.1079 -0.2188 -0.2601
 4197TIP3    H134006   4.575   2.996   1.504  0.6470 -1.2613 -0.8692
 4197TIP3    H234007   4.712   3.060   1.492 -0.1303  0.6781  0.1589
 4198TIP3   OH234008   5.744   5.957   4.211  0.5502  0.5158  0.1946
 4198TIP3    H134009   5.742   5.867   4.179  1.9968  0.7242 -0.5554
 4198TIP3    H234010   5.794   5.953   4.293  1.2958  0.7357 -0.2399
 4199TIP3   OH234011   5.721   3.406   4.795 -0.3843 -0.1317  0.1740
 4199TIP3    H134012   5.790   3.364   4.846 -0.7835 -0.9237  0.0644
 4199TIP3    H234013   5.641   3.393   4.846 -0.1856  2.5584  1.3323
 4200TIP3   OH234014   0.915   6.061  12.461  0.1939  0.3223  0.9486
 4200TIP3    H134015   0.996   6.016  12.483 -0.1845 -0.2285  1.2272
 4200TIP3    H234016   0.846   5.999  12.483 -0.3263  0.9570  1.1438
 4201TIP3   OH234017   5.186   4.485  10.753  0.6536  1.0437 -0.3915
 4201TIP3    H134018   5.223   4.410  10.706  1.3548  0.6978  0.6832
 4201TIP3    H234019   5.095   4.487  10.726  1.2435  1.4648 -2.5398
 4202TIP3   OH234020   1.499   0.451  14.341 -0.0782 -0.4415  0.0363
 4202TIP3    H134021   1.501   0.546  14.348 -1.2050 -0.4462  0.6652
 4202TIP3    H234022   1.457   0.421  14.422  2.0120 -1.6158  0.7618
 4203TIP3   OH234023   2.132   3.956   1.653  0.5615  0.2376  0.2707
 4203TIP3    H134024   2.152   4.009   1.730  0.6277 -0.5892  0.8407
 4203TIP3    H234025   2.210   3.963   1.597  0.2620  1.3446 -0.0245
 4204TIP3   OH234026   0.854   6.252   2.302 -0.5683  0.0404  0.0742
 4204TIP3    H134027   0.861   6.158   2.282 -0.4176  0.0973 -0.1445
 4204TIP3    H234028   0.866   6.257   2.397  0.1885 -0.0875 -0.0083
 4205TIP3   OH234029   4.378   1.726   4.166 -0.1678 -0.2331 -0.0456
 4205TIP3    H134030   4.426   1.805   4.142 -0.7598  0.0716 -0.2517
 4205TIP3    H234031   4.432   1.654   4.132 -0.4214  0.1450 -1.3162
 4206TIP3   OH234032   1.186   1.995  15.542  0.6676  0.6657  0.2717
 4206TIP3    H134033   1.244   2.003  15.466 -0.5019 -0.4049 -0.7757
 4206TIP3    H234034   1.119   2.061  15.527  1.1090  1.3050  1.0377
 4207TIP3   OH234035   0.558   5.579  12.231 -0.6244 -0.8386  0.5277
 4207TIP3    H134036   0.543   5.526  12.153 -1.7522 -1.3911  1.0863
 4207TIP3    H234037   0.646   5.556  12.260 -0.4813 -1.1730 -0.1621
 4208TIP3   OH234038   3.957   4.169   0.125 -0.8364  0.1518  0.1501
 4208TIP3    H134039   3.961   4.074   0.120 -0.7543  0.1548  0.1467
 4208TIP3    H234040   4.012   4.199   0.053 -3.0250  0.2145 -1.5708
 4209TIP3   OH234041   1.016   4.786   2.499 -0.7171  0.3050 -0.1740
 4209TIP3    H134042   1.047   4.706   2.457 -3.6717 -1.8609  1.3913
 4209TIP3    H234043   0.935   4.807   2.453 -0.7845  1.4843  0.4526
 4210TIP3   OH234044   0.281   3.467   2.880 -0.4037  0.0370  0.0069
 4210TIP3    H134045   0.339   3.531   2.923  0.3338  0.1349 -1.0891
 4210TIP3    H234046   0.193   3.503   2.891 -0.0718  0.8603  0.0588
 4211TIP3   OH234047   3.508   5.706  13.189 -0.4408  0.0282  0.6384
 4211TIP3    H134048   3.594   5.676  13.218  0.0897  0.6593 -0.2272
 4211TIP3    H234049   3.447   5.662  13.248  0.4848 -0.1408  1.5122
 4212TIP3   OH234050   5.073   6.226   2.908 -0.3957 -0.7589 -0.6528
 4212TIP3    H134051   5.116   6.231   2.823 -0.6854 -0.1044 -0.7694
 4212TIP3    H234052   5.062   6.318   2.934  1.3193 -0.9373  0.9123
 4213TIP3   OH234053   1.513   1.691  17.107 -0.7222 -0.3183 -0.2679
 4213TIP3    H134054   1.430   1.643  17.098  0.6644 -2.7475 -1.2874
 4213TIP3    H234055   1.580   1.625  17.089  1.4219  1.7585 -0.3575
 4214TIP3   OH234056   5.718   1.063  15.400 -0.2565 -0.2624 -0.5188
 4214TIP3    H134057   5.735   1.069  15.306  0.4917  1.8296 -0.3101
 4214TIP3    H234058   5.626   1.089  15.409 -0.1212  0.2747 -0.6272
 4215TIP3   OH234059   3.649   1.065   3.038 -0.4588  0.0084  0.0352
 4215TIP3    H134060   3.672   0.975   3.062 -1.8397 -0.5240 -0.5269
 4215TIP3    H234061   3.714   1.089   2.973  0.9488  0.0532  1.4021
 4216TIP3   OH234062   2.348   3.838  15.219 -0.3598 -0.0577  0.0435
 4216TIP3    H134063   2.340   3.815  15.126 -1.0618 -1.2872  0.3856
 4216TIP3    H234064   2.355   3.754  15.264  1.2209  0.5568  1.0139
 4217TIP3   OH234065   0.193   3.174   4.188 -0.3526  0.1655  0.1474
 4217TIP3    H134066   0.151   3.208   4.268  0.3379  1.8043 -0.1407
 4217TIP3    H234067   0.120   3.149   4.132 -0.9098  1.0292  0.4571
 4218TIP3   OH234068   2.285   1.480   0.238  0.5044 -0.4478 -0.7724
 4218TIP3    H134069   2.352   1.456   0.302  0.2821  0.4232 -0.2042
 4218TIP3    H234070   2.205   1.438   0.269  0.5416 -0.5634 -0.8338
 4219TIP3   OH234071   6.675   4.456  14.755 -0.1537 -0.2311 -0.8365
 4219TIP3    H134072   6.602   4.442  14.815 -0.8515  1.5553 -1.1916
 4219TIP3    H234073   6.741   4.503  14.807 -0.2890  0.3191 -1.1515
 4220TIP3   OH234074   0.305   0.217  15.921 -0.1816  0.1295 -0.0325
 4220TIP3    H134075   0.221   0.193  15.961  0.1039 -0.1760  0.4013
 4220TIP3    H234076   0.334   0.138  15.875  0.6535 -0.3309  1.2122
 4221TIP3   OH234077   5.988   3.869   4.720 -0.5956  0.4856 -0.4719
 4221TIP3    H134078   5.937   3.884   4.800 -0.2227  1.8633 -0.4660
 4221TIP3    H234079   6.010   3.776   4.723 -0.3725  0.5547  1.1785
 4222TIP3   OH234080   3.875   6.302   5.741 -0.2513 -0.3201 -0.3408
 4222TIP3    H134081   3.910   6.218   5.771  0.5869  0.3960  0.7882
 4222TIP3    H234082   3.794   6.313   5.791 -0.4646 -0.5452 -0.6361
 4223TIP3   OH234083   4.094   1.176  15.564 -0.1061 -0.0095 -0.4753
 4223TIP3    H134084   4.016   1.156  15.511  0.2871 -0.5899 -0.8540
 4223TIP3    H234085   4.062   1.177  15.654 -0.3216 -1.5696 -0.5111
 4224TIP3   OH234086   4.096   1.677   4.568  0.2680 -0.3446 -0.1868
 4224TIP3    H134087   4.128   1.629   4.492 -1.9748 -1.3732 -0.5720
 4224TIP3    H234088   4.010   1.639   4.586 -0.1930  1.3383  1.5532
 4225TIP3   OH234089   1.564   2.054   3.233  0.2658 -0.6011 -0.1463
 4225TIP3    H134090   1.618   1.978   3.213  1.6080 -0.1933  1.6864
 4225TIP3    H234091   1.551   2.050   3.328 -2.2681 -0.2105 -0.4023
 4226TIP3   OH234092   5.288   0.885   5.723 -0.1562  0.0301  0.6491
 4226TIP3    H134093   5.263   0.847   5.807  2.1261 -1.4380  0.7634
 4226TIP3    H234094   5.279   0.812   5.661  0.3341  0.4632  0.0614
 4227TIP3   OH234095   6.567   0.312  16.223 -0.5208  0.4472  0.4930
 4227TIP3    H134096   6.614   0.386  16.184 -0.6645 -0.2042 -1.0039
 4227TIP3    H234097   6.475   0.331  16.207 -0.5577 -0.0462  0.0773
 4228TIP3   OH234098   3.810   0.255   4.797 -0.6678 -0.1283  0.3814
 4228TIP3    H134099   3.793   0.208   4.878 -0.0270  0.1586  0.6957
 4228TIP3    H234100   3.791   0.346   4.818 -1.5046 -0.1834 -0.1035
 4229TIP3   OH234101   0.604   3.655   0.536 -0.3030  0.3447  0.1599
 4229TIP3    H134102   0.616   3.704   0.618  1.1561  0.4962 -0.1051
 4229TIP3    H234103   0.660   3.700   0.473 -0.4476 -0.5113 -0.6001
 4230TIP3   OH234104   3.440   4.184  12.797  0.6361  0.1972  0.1915
 4230TIP3    H134105   3.375   4.185  12.868 -1.1540 -0.0170 -1.3467
 4230TIP3    H234106   3.394   4.142  12.724  2.2688  0.7546 -1.2197
 4231TIP3   OH234107   4.258   0.600   5.566  0.6410 -0.0950 -0.1437
 4231TIP3    H134108   4.301   0.525   5.525  0.9363  1.1774 -2.3635
 4231TIP3    H234109   4.225   0.651   5.492 -1.5312  0.8431  1.3642
 4232TIP3   OH234110   5.312   1.167   5.498  0.1612  0.7832 -0.6334
 4232TIP3    H134111   5.259   1.213   5.563 -1.1312 -1.8883  0.3619
 4232TIP3    H234112   5.403   1.185   5.523 -0.2907  2.2982  0.0037
 4233TIP3   OH234113   6.005   5.501   0.044  0.4348  0.2631  0.3100
 4233TIP3    H134114   5.957   5.580   0.022  1.3099  1.1293  1.4190
 4233TIP3    H234115   5.964   5.469   0.124  0.3857 -0.1521  0.1234
 4234TIP3   OH234116   1.926   4.314  15.771  0.5651  0.5896 -0.0148
 4234TIP3    H134117   1.979   4.249  15.725  1.0333  0.3133  0.8831
 4234TIP3    H234118   1.837   4.298  15.742  0.5704 -0.9690  0.7510
 4235TIP3   OH234119   6.662   4.337  16.709 -0.2036  0.1120 -0.0755
 4235TIP3    H134120   6.590   4.301  16.762 -0.0093 -0.9577 -0.5237
 4235TIP3    H234121   6.686   4.266  16.650  0.1562  1.0143 -1.0305
 4236TIP3   OH234122   6.522   5.496  15.728  0.4528  0.4559 -0.1180
 4236TIP3    H134123   6.602   5.509  15.778 -0.1252  1.9732  0.4556
 4236TIP3    H234124   6.523   5.567  15.664 -0.6529  0.7441  0.1823
 4237TIP3   OH234125   3.471   3.433  14.157  0.2225 -0.1487 -0.5922
 4237TIP3    H134126   3.393   3.395  14.196  1.0954  0.9814  2.5263
 4237TIP3    H234127   3.522   3.357  14.128  0.1384 -1.2231  1.8299
 4238TIP3   OH234128   0.965   0.497  14.436 -0.4348  0.5206  1.4307
 4238TIP3    H134129   0.899   0.507  14.505 -1.3599 -1.0011  0.8121
 4238TIP3    H234130   0.959   0.405  14.410  1.1888  0.6188  0.5927
 4239TIP3   OH234131   5.015   3.652   3.685 -0.4359  0.0536  0.7230
 4239TIP3    H134132   5.105   3.661   3.655 -0.2081 -0.7411  1.1420
 4239TIP3    H234133   4.968   3.723   3.642  0.2100 -0.0658 -0.2051
 4240TIP3   OH234134   6.200   4.168   1.515  0.4590  0.7458  0.4124
 4240TIP3    H134135   6.131   4.122   1.467 -0.0654 -0.9618  2.6282
 4240TIP3    H234136   6.167   4.257   1.525  0.0281  0.8014 -1.2543
 4241TIP3   OH234137   4.989   3.549  10.546  0.0569 -0.3186 -0.5992
 4241TIP3    H134138   5.055   3.493  10.504  1.0230  1.2836 -1.2901
 4241TIP3    H234139   4.987   3.628  10.493 -1.4038  0.2654  0.2693
 4242TIP3   OH234140   6.468   3.595   0.589 -0.5835 -0.4903  0.3848
 4242TIP3    H134141   6.391   3.642   0.619 -1.9462 -1.9041 -0.7072
 4242TIP3    H234142   6.449   3.503   0.608  0.1693 -1.0257 -1.2699
 4243TIP3   OH234143   0.883   4.660  10.317  0.4589 -0.1876 -0.2891
 4243TIP3    H134144   0.928   4.686  10.397  1.5385 -0.5900 -0.7524
 4243TIP3    H234145   0.921   4.715  10.248 -2.3325  2.1279 -0.1873
 4244TIP3   OH234146   6.581   0.596  12.332  0.7266  0.2756  0.3243
 4244TIP3    H134147   6.505   0.597  12.274  0.4602  0.3711  0.6730
 4244TIP3    H234148   6.653   0.564  12.277  0.6321  1.0001 -0.2437
 4245TIP3   OH234149   0.157   5.710   4.970  0.3822 -0.2397 -0.7443
 4245TIP3    H134150   0.157   5.744   5.060 -2.7346  0.6642 -0.9591
 4245TIP3    H234151   0.178   5.786   4.916  1.1472 -0.5235 -0.8515
 4246TIP3   OH234152   2.978   4.184   3.069 -0.2851  0.5210  0.1330
 4246TIP3    H134153   2.905   4.125   3.089  0.6190 -0.2843  1.1480
 4246TIP3    H234154   2.965   4.259   3.126 -1.1057  1.0564 -0.7313
 4247TIP3   OH234155   4.688   2.963   2.221 -0.5260  0.1792  0.0259
 4247TIP3    H134156   4.652   2.921   2.299  1.0203 -0.0978  0.6179
 4247TIP3    H234157   4.755   3.022   2.254  1.3040 -1.1210 -1.1602
 4248TIP3   OH234158   4.380   1.908  10.873 -0.7155 -0.1981 -0.1915
 4248TIP3    H134159   4.389   1.849  10.798 -2.6144 -0.7140 -0.0499
 4248TIP3    H234160   4.389   1.850  10.949 -2.2185 -0.2813 -0.0520
 4249TIP3   OH234161   2.117   4.888  16.511 -0.3595 -0.1442  0.2696
 4249TIP3    H134162   2.131   4.844  16.427 -1.5657  0.2491 -0.1582
 4249TIP3    H234163   2.193   4.864  16.564  1.6714  1.4838 -1.7042
 4250TIP3   OH234164   5.179   6.079  13.864 -0.2874  0.2023 -0.1470
 4250TIP3    H134165   5.198   6.163  13.905 -0.0282 -0.4119  1.0362
 4250TIP3    H234166   5.085   6.083  13.844 -0.1166  1.0572 -0.8096
 4251TIP3   OH234167   5.564   1.971   0.855 -0.5157 -0.1913  0.2219
 4251TIP3    H134168   5.592   2.055   0.818 -1.9201 -0.6938 -2.2064
 4251TIP3    H234169   5.496   1.994   0.918  1.3177  0.6265  2.0477
 4252TIP3   OH234170   2.096   3.147  13.045  0.2941  0.1201 -0.2148
 4252TIP3    H134171   2.135   3.167  13.130  0.3495 -0.4034 -0.1144
 4252TIP3    H234172   2.034   3.219  13.030 -1.0869 -0.7139  1.1424
 4253TIP3   OH234173   0.880   5.209  14.036  0.6011 -0.0222  0.0057
 4253TIP3    H134174   0.874   5.122  14.076  1.5877 -0.7655 -1.3780
 4253TIP3    H234175   0.928   5.195  13.954 -0.6175  1.5654 -1.0532
 4254TIP3   OH234176   4.257   2.352   6.879 -0.5662 -0.0429  0.1622
 4254TIP3    H134177   4.188   2.402   6.923  0.0956  0.8119  0.2370
 4254TIP3    H234178   4.284   2.407   6.806  0.6001 -0.0091  0.6004
 4255TIP3   OH234179   2.470   4.960  14.717  0.6583  0.0608  0.1893
 4255TIP3    H134180   2.452   4.877  14.675 -1.1092  1.0967 -1.2667
 4255TIP3    H234181   2.435   4.951  14.806  0.4876 -0.7339  0.0424
 4256TIP3   OH234182   5.819   0.862   1.458 -0.1845 -0.4798  0.1690
 4256TIP3    H134183   5.913   0.875   1.445 -0.0511 -1.7923 -0.3916
 4256TIP3    H234184   5.778   0.914   1.390  0.1473 -0.0172  0.3220
 4257TIP3   OH234185   6.460   1.492   3.806  0.7883  0.1279 -0.2534
 4257TIP3    H134186   6.434   1.445   3.727 -0.5270  0.4056 -0.0181
 4257TIP3    H234187   6.531   1.549   3.778  0.9395 -0.4220 -1.0293
 4258TIP3   OH234188   3.029   4.692   4.302 -0.3248 -0.3240  0.0025
 4258TIP3    H134189   2.981   4.614   4.329  0.4343 -1.1122 -0.8909
 4258TIP3    H234190   3.121   4.666   4.301  0.1556  1.1214  1.5198
 4259TIP3   OH234191   1.751   0.271  16.685  0.5798  0.3049  0.2032
 4259TIP3    H134192   1.747   0.343  16.747  3.4479  0.0275  0.8214
 4259TIP3    H234193   1.806   0.205  16.727 -1.0494 -1.8382 -0.8036
 4260TIP3   OH234194   6.244   1.853   2.713  0.4883 -0.4167  0.7032
 4260TIP3    H134195   6.259   1.834   2.805  2.0311 -1.4943  0.2730
 4260TIP3    H234196   6.216   1.769   2.676 -1.8219  0.3794  0.4634
 4261TIP3   OH234197   0.292   1.796  12.143 -0.3010  0.1160  0.3485
 4261TIP3    H134198   0.228   1.742  12.096  1.1718 -0.2092 -1.3755
 4261TIP3    H234199   0.362   1.736  12.166  1.3913  1.2042 -1.6283
 4262TIP3   OH234200   4.032   0.043  17.088 -0.1443  0.2779 -0.4568
 4262TIP3    H134201   3.956   0.039  17.029  0.0698  0.0323 -0.7222
 4262TIP3    H234202   3.994   0.040  17.176 -0.5281  1.6755 -0.5550
 4263TIP3   OH234203   1.434   1.779   5.619 -0.2858 -0.1100 -0.2910
 4263TIP3    H134204   1.481   1.837   5.679 -0.4791 -0.3931  0.1364
 4263TIP3    H234205   1.471   1.799   5.533 -0.4399  0.7383 -0.1702
 4264TIP3   OH234206   2.913   5.091   1.060 -0.2057  0.1898 -0.1487
 4264TIP3    H134207   2.899   5.127   0.972  1.1525  0.8301 -0.1353
 4264TIP3    H234208   3.002   5.056   1.057  0.2115  1.0650  1.2445
 4265TIP3   OH234209   6.308   0.292  14.409  0.5741  0.5486 -0.0344
 4265TIP3    H134210   6.347   0.352  14.473  0.8028 -1.1990  1.5459
 4265TIP3    H234211   6.382   0.259  14.358  0.6161  0.5132  0.0510
 4266TIP3   OH234212   5.082   1.256   3.757 -0.0905 -0.1047 -0.2514
 4266TIP3    H134213   5.133   1.246   3.837  0.1439  0.9159 -0.2620
 4266TIP3    H234214   5.090   1.172   3.713  1.7046  0.0738 -0.3175
 4267TIP3   OH234215   5.432   3.942  11.396  0.8319  0.4145 -0.2723
 4267TIP3    H134216   5.497   3.880  11.430  0.4275 -0.4777 -1.0765
 4267TIP3    H234217   5.438   4.018  11.455  2.0837  0.0563  0.0974
 4268TIP3   OH234218   4.696   1.469   5.985 -0.1333  0.1905  0.0739
 4268TIP3    H134219   4.748   1.414   6.042  0.9813 -0.2452 -1.3157
 4268TIP3    H234220   4.627   1.504   6.042  0.3890 -0.9334  1.4538
 4269TIP3   OH234221   5.899   3.201  16.064 -0.3454 -0.8145 -0.6266
 4269TIP3    H134222   5.846   3.141  16.011 -2.4712 -0.6307  1.1485
 4269TIP3    H234223   5.907   3.158  16.149 -0.4258  0.6221  0.1459
 4270TIP3   OH234224   2.880   6.486  14.246 -0.0116 -0.0810  0.0794
 4270TIP3    H134225   2.861   6.556  14.309 -0.8576  0.0496 -0.2957
 4270TIP3    H234226   2.975   6.476  14.248  0.0444  0.5107  0.7470
 4271TIP3   OH234227   3.839   3.527   4.642 -0.2550 -0.3086 -0.3558
 4271TIP3    H134228   3.881   3.594   4.696  0.8218  0.3203 -1.9007
 4271TIP3    H234229   3.893   3.449   4.654 -1.0450 -0.6874  0.8237
 4272TIP3   OH234230   6.636   3.649  13.449  0.6173  0.3923 -0.2978
 4272TIP3    H134231   6.653   3.555  13.446  0.0500  0.2705  0.1047
 4272TIP3    H234232   6.679   3.678  13.530 -1.2689  0.0275  0.8906
 4273TIP3   OH234233   2.749   1.233  11.747  0.4044 -0.3847  0.2415
 4273TIP3    H134234   2.690   1.300  11.781 -0.9539 -2.5091  2.3867
 4273TIP3    H234235   2.713   1.211  11.660  0.6865  1.3535 -0.3515
 4274TIP3   OH234236   1.186   3.062  13.905 -0.0626 -0.1973 -0.0582
 4274TIP3    H134237   1.226   3.013  13.977 -1.1725 -0.5052  0.3673
 4274TIP3    H234238   1.203   3.008  13.827  2.1730  0.7044 -0.2704
 4275TIP3   OH234239   0.160   2.737  10.754  0.2521  0.0014 -0.7290
 4275TIP3    H134240   0.247   2.715  10.720  0.2788  0.2520 -0.8280
 4275TIP3    H234241   0.105   2.663  10.728  0.2780  0.1806 -1.3047
 4276TIP3   OH234242   6.142   5.215   3.263 -0.0606 -0.2639 -0.3992
 4276TIP3    H134243   6.164   5.293   3.315  2.1947 -2.4176  2.1608
 4276TIP3    H234244   6.209   5.211   3.196 -0.4828  0.2141 -0.8659
 4277TIP3   OH234245   4.540   2.002   1.354 -0.4689  0.2516  0.0281
 4277TIP3    H134246   4.610   1.955   1.399  0.3855  2.1784  0.8135
 4277TIP3    H234247   4.493   1.934   1.305  3.1984 -0.9367 -2.2736
 4278TIP3   OH234248   2.180   2.935   2.622  0.1146 -0.6475  0.5358
 4278TIP3    H134249   2.237   2.860   2.637  0.7176  0.1544  2.5513
 4278TIP3    H234250   2.235   2.998   2.576  1.2231  0.4276  3.1395
 4279TIP3   OH234251   0.862   3.502  14.634 -0.0718  0.4889 -0.2157
 4279TIP3    H134252   0.903   3.575  14.679  1.8872 -0.9543  0.4628
 4279TIP3    H234253   0.909   3.494  14.551  1.3410 -1.3639  0.6913
 4280TIP3   OH234254   4.185   0.259  13.828 -0.4902 -0.3329  0.2020
 4280TIP3    H134255   4.099   0.247  13.867 -1.3753  0.3971 -1.4261
 4280TIP3    H234256   4.169   0.265  13.734  1.1427  1.3859 -0.0394
 4281TIP3   OH234257   5.352   5.083  15.999 -0.1124  0.1275 -0.1897
 4281TIP3    H134258   5.316   5.040  16.076  0.1588 -0.7580 -0.5369
 4281TIP3    H234259   5.276   5.118  15.953 -0.4997 -1.1749 -0.5937
 4282TIP3   OH234260   1.149   2.900   1.674  0.8836  0.1983  0.0671
 4282TIP3    H134261   1.168   2.991   1.651  2.3688 -0.5003 -1.7721
 4282TIP3    H234262   1.072   2.905   1.731 -0.0800  2.4693 -1.2951
 4283TIP3   OH234263   6.287   5.187  11.721 -0.8558  0.2842  0.0416
 4283TIP3    H134264   6.363   5.236  11.691 -0.7079  0.9537  1.4400
 4283TIP3    H234265   6.311   5.155  11.808 -1.0030 -2.1792 -0.7384
 4284TIP3   OH234266   6.448   6.249  16.300  0.4644 -0.1464 -0.5353
 4284TIP3    H134267   6.401   6.165  16.303  1.1486 -0.6218 -2.1783
 4284TIP3    H234268   6.426   6.291  16.384 -1.6162 -1.0228 -0.5617
 4285TIP3   OH234269   6.327   3.308  11.160 -0.2125 -0.7065 -0.4815
 4285TIP3    H134270   6.266   3.359  11.213 -0.0176 -2.2218  1.3008
 4285TIP3    H234271   6.410   3.314  11.207  0.4532 -0.5412 -1.6520
 4286TIP3   OH234272   1.204   3.006  16.599 -0.4434  0.4779 -0.2217
 4286TIP3    H134273   1.153   3.010  16.519 -0.0729 -0.7477 -0.5432
 4286TIP3    H234274   1.274   3.069  16.586  0.0371 -0.2187 -1.1958
 4287TIP3   OH234275   3.105   0.694   2.369  0.3633 -0.2185 -0.3930
 4287TIP3    H134276   3.035   0.705   2.434 -0.4224 -2.3921 -0.7878
 4287TIP3    H234277   3.133   0.783   2.349 -2.3550  0.7709 -0.2590
 4288TIP3   OH234278   2.001   4.496  11.795  0.5604 -0.1456 -0.2791
 4288TIP3    H134279   1.922   4.501  11.741 -0.8920  0.2416  1.7438
 4288TIP3    H234280   2.065   4.552  11.751 -0.4239 -0.1414 -1.7501
 4289TIP3   OH234281   1.465   0.983   1.723  0.1270 -0.2458  0.2952
 4289TIP3    H134282   1.436   0.894   1.701  1.0012 -0.3858 -0.2987
 4289TIP3    H234283   1.559   0.982   1.711 -0.0810  1.4499 -2.2376
 4290TIP3   OH234284   0.849   5.166   1.625  0.0928 -0.2893  0.0654
 4290TIP3    H134285   0.865   5.072   1.627  2.0692  0.0014  1.6929
 4290TIP3    H234286   0.891   5.196   1.544  2.2800 -0.4444  1.0832
 4291TIP3   OH234287   2.375   6.056   4.507 -0.1593  0.5866 -0.0093
 4291TIP3    H134288   2.470   6.068   4.506 -0.1724  0.7638 -1.7456
 4291TIP3    H234289   2.355   6.027   4.596  1.5431  0.3015  0.3036
 4292TIP3   OH234290   1.728   5.735   4.978 -1.0178 -0.7339 -0.0483
 4292TIP3    H134291   1.663   5.777   5.033 -1.3320 -1.1133 -0.1227
 4292TIP3    H234292   1.750   5.654   5.025 -0.1529 -0.3211  0.2763
 4293TIP3   OH234293   6.410   6.743  13.351  0.6486 -0.3623  0.1595
 4293TIP3    H134294   6.468   6.707  13.285  2.9005 -0.0466  1.8480
 4293TIP3    H234295   6.454   6.822  13.382 -1.1292  0.3824  0.9054
 4294TIP3   OH234296   6.770   6.238  16.522 -0.2641 -0.5210  0.0691
 4294TIP3    H134297   6.703   6.170  16.534 -0.1973 -0.4870  0.6586
 4294TIP3    H234298   6.756   6.269  16.433 -0.9321 -0.6345  0.1259
 4295TIP3   OH234299   3.482   3.942  13.844  0.5185 -0.0658 -0.4069
 4295TIP3    H134300   3.445   4.006  13.783  1.1789  0.2710 -0.4610
 4295TIP3    H234301   3.406   3.896  13.879  0.0798  0.2907 -0.8739
 4296TIP3   OH234302   3.729   2.394   2.216  0.0171 -0.1765  0.2225
 4296TIP3    H134303   3.732   2.473   2.269 -1.1664  0.6990 -0.9554
 4296TIP3    H234304   3.672   2.335   2.264  2.3956 -1.1398  2.0785
 4297TIP3   OH234305   4.215   6.298   3.930  0.8756  0.3363 -0.0838
 4297TIP3    H134306   4.306   6.283   3.956  0.8856  1.5178  0.6281
 4297TIP3    H234307   4.185   6.369   3.987 -0.7494 -0.5785  0.2520
 4298TIP3   OH234308   5.898   6.669  12.420 -0.1076 -0.5157 -0.9908
 4298TIP3    H134309   5.848   6.737  12.466  1.0841 -0.6586  0.6152
 4298TIP3    H234310   5.963   6.718  12.369  1.8145 -0.3536  1.4096
 4299TIP3   OH234311   4.526   5.171  15.351  0.3278  0.0352  0.7635
 4299TIP3    H134312   4.503   5.081  15.375 -1.8849  0.2252 -0.3891
 4299TIP3    H234313   4.621   5.167  15.335  0.0793 -2.4864 -0.7314
 4300TIP3   OH234314   1.381   1.032   3.746 -0.0785  0.2441  0.0590
 4300TIP3    H134315   1.413   1.054   3.658  0.1306 -0.4808 -0.0589
 4300TIP3    H234316   1.452   1.058   3.804  1.8641 -3.4038 -0.3755
 4301TIP3   OH234317   4.198   4.765  10.590 -0.9604 -0.4050 -0.0984
 4301TIP3    H134318   4.137   4.839  10.588 -0.5407 -0.0619 -0.2824
 4301TIP3    H234319   4.141   4.688  10.588 -1.4094 -0.0937  0.4306
 4302TIP3   OH234320   5.459   0.602   2.248 -0.3161  0.3664  0.3091
 4302TIP3    H134321   5.528   0.608   2.314 -0.3341  0.4686  0.3195
 4302TIP3    H234322   5.377   0.607   2.298 -0.3464 -0.6578  0.3843
 4303TIP3   OH234323   0.881   3.913  13.673  0.0836 -0.0494  0.3023
 4303TIP3    H134324   0.898   3.873  13.588 -0.1615  1.1675 -0.3480
 4303TIP3    H234325   0.796   3.877  13.700 -0.5865  0.7347 -0.7124
 4304TIP3   OH234326   0.508   3.148  16.453  0.2484 -0.3516 -0.6729
 4304TIP3    H134327   0.486   3.227  16.403  1.7811  0.0161 -0.8431
 4304TIP3    H234328   0.562   3.096  16.392 -1.3697 -1.9317 -0.8433
 4305TIP3   OH234329   0.920   5.909   4.181 -0.1634  0.5617  0.6929
 4305TIP3    H134330   0.933   6.000   4.154 -1.2534  0.5987  0.2786
 4305TIP3    H234331   0.933   5.858   4.101  0.0445  0.3771  0.8411
 4306TIP3   OH234332   2.318   5.094  13.670  0.3287  0.2766  0.3384
 4306TIP3    H134333   2.401   5.134  13.697  0.6688  1.3430 -2.0506
 4306TIP3    H234334   2.250   5.151  13.707  0.7579  1.4335 -0.6109
 4307TIP3   OH234335   5.686   1.980  15.660 -0.1290 -0.1816 -0.7937
 4307TIP3    H134336   5.707   1.998  15.751 -1.3595 -0.9028 -0.3383
 4307TIP3    H234337   5.749   2.032  15.610  0.7177  0.0361  0.4536
 4308TIP3   OH234338   2.140   6.457   6.739  0.0009 -0.5222 -0.1681
 4308TIP3    H134339   2.069   6.426   6.682  0.1984  1.6269 -1.6887
 4308TIP3    H234340   2.127   6.551   6.745  0.4282 -0.5596  2.8473
 4309TIP3   OH234341   6.263   5.065  13.085 -0.6695 -0.1703 -0.4930
 4309TIP3    H134342   6.185   5.055  13.030 -1.0317 -1.2624  0.1828
 4309TIP3    H234343   6.331   5.016  13.039 -0.0699  1.6232 -1.6058
 4310TIP3   OH234344   1.185   4.098  11.098 -0.2980 -0.3756 -0.1454
 4310TIP3    H134345   1.126   4.036  11.055  1.5750 -2.1254 -0.3544
 4310TIP3    H234346   1.194   4.066  11.187  1.6698 -1.2602 -0.5930
 4311TIP3   OH234347   0.026   4.602  15.325 -0.1696  0.1506  0.2820
 4311TIP3    H134348  -0.039   4.550  15.277 -0.3651  0.7582 -0.1167
 4311TIP3    H234349   0.096   4.618  15.262  0.6128 -0.8936  0.8377
 4312TIP3   OH234350   1.309   5.086  13.214  1.0472 -0.0221  0.1738
 4312TIP3    H134351   1.312   5.064  13.307 -1.6068 -0.5211  0.2042
 4312TIP3    H234352   1.250   5.161  13.209  2.4506  1.0522 -0.9783
 4313TIP3   OH234353   1.931   4.366  12.547  0.8506  0.2626 -0.0273
 4313TIP3    H134354   1.855   4.414  12.513  1.1880  1.7329  1.2010
 4313TIP3    H234355   1.895   4.281  12.574 -0.7031  1.3716  1.7181
 4314TIP3   OH234356   5.326   6.264   1.543 -0.0472 -0.0456  0.4864
 4314TIP3    H134357   5.379   6.342   1.528 -0.9911  0.3732 -0.9695
 4314TIP3    H234358   5.381   6.192   1.513  0.6044  0.1044  1.2810
 4315TIP3   OH234359   3.505   0.839  11.608 -0.1187  0.6393  0.5883
 4315TIP3    H134360   3.427   0.873  11.564  0.0388  0.5445  0.2309
 4315TIP3    H234361   3.566   0.913  11.608 -0.0636  0.5938  0.5143
 4316TIP3   OH234362   0.985   5.453   1.735 -0.2120 -0.2981  0.3377
 4316TIP3    H134363   1.035   5.371   1.736  2.1214  0.8523 -2.9406
 4316TIP3    H234364   0.996   5.489   1.823  0.8774 -2.2502  1.0669
 4317TIP3   OH234365   6.127   1.174  15.173  0.9402 -0.5731  0.1833
 4317TIP3    H134366   6.112   1.088  15.134  0.5478 -2.0165  3.2268
 4317TIP3    H234367   6.208   1.165  15.223  1.1798  0.9948  0.1462
 4318TIP3   OH234368   6.559   0.318  11.492 -0.3749  0.2105 -0.4623
 4318TIP3    H134369   6.616   0.243  11.475  1.7339  1.7126 -0.4275
 4318TIP3    H234370   6.596   0.359  11.570 -0.4974  2.1602 -1.3700
 4319TIP3   OH234371   5.444   3.528   0.172  0.4179  0.6023 -0.6313
 4319TIP3    H134372   5.490   3.536   0.256 -1.1507  0.6755  0.2454
 4319TIP3    H234373   5.360   3.572   0.185 -0.3675 -0.4483 -1.8530
 4320TIP3   OH234374   0.524   0.174   2.477  0.2905 -0.0681 -0.8493
 4320TIP3    H134375   0.563   0.160   2.391  1.8243 -0.9763 -0.0700
 4320TIP3    H234376   0.595   0.213   2.529 -0.8522  1.2087 -0.2012
 4321TIP3   OH234377   5.097   1.404  14.188  0.3279 -0.1156  0.0844
 4321TIP3    H134378   5.188   1.376  14.195  0.3781 -0.3666 -1.2606
 4321TIP3    H234379   5.057   1.341  14.127 -0.1714  1.2586 -1.0704
 4322TIP3   OH234380   4.434   6.104  14.324  0.4060 -0.5965 -0.0010
 4322TIP3    H134381   4.449   6.056  14.406  0.8424 -1.8950 -0.8069
 4322TIP3    H234382   4.360   6.160  14.343  0.9793 -0.2896  1.5229
 4323TIP3   OH234383   0.539   4.048  13.847 -0.2323  0.1447 -0.4566
 4323TIP3    H134384   0.497   4.105  13.783  0.3063 -0.7799 -1.6796
 4323TIP3    H234385   0.541   3.962  13.804  0.6971 -0.3581  0.5568
 4324TIP3   OH234386   1.227   3.760   2.992 -0.3958 -0.5121  0.3847
 4324TIP3    H134387   1.219   3.742   2.898 -0.1146 -0.2424  0.3057
 4324TIP3    H234388   1.286   3.835   2.997 -0.3101 -0.6005  0.7824
 4325TIP3   OH234389   6.521   6.252  14.168  0.4706 -0.1196  0.2705
 4325TIP3    H134390   6.538   6.175  14.114 -0.9876 -0.2384 -0.0402
 4325TIP3    H234391   6.602   6.265  14.218  0.7436 -1.8371  0.3115
 4326TIP3   OH234392   2.252   3.646  14.084  0.1059 -0.3487  0.4703
 4326TIP3    H134393   2.337   3.666  14.124 -1.0700  0.8916  2.4958
 4326TIP3    H234394   2.233   3.556  14.113  0.0644 -0.0896  1.2737
 4327TIP3   OH234395   5.916   0.271   2.940 -0.4854 -0.3269 -0.0918
 4327TIP3    H134396   5.985   0.266   3.007 -1.1064  1.8108  0.7725
 4327TIP3    H234397   5.835   0.257   2.988 -0.8198 -0.5711 -0.7175
 4328TIP3   OH234398   0.030   4.827  13.910  0.2036 -0.3318 -0.1565
 4328TIP3    H134399  -0.042   4.862  13.857  0.2837  0.8728  0.4885
 4328TIP3    H234400  -0.012   4.765  13.969 -0.6181  1.4746  1.2626
 4329TIP3   OH234401   0.358   4.642  16.164 -0.5879  0.1599  0.3699
 4329TIP3    H134402   0.305   4.579  16.114  0.9500 -0.4052 -0.6257
 4329TIP3    H234403   0.331   4.629  16.255 -0.6434 -1.6305  0.1396
 4330TIP3   OH234404   4.992   1.939  16.126  0.3648 -0.4266  0.3675
 4330TIP3    H134405   4.963   2.029  16.137 -0.3174 -0.5513 -0.3513
 4330TIP3    H234406   4.931   1.887  16.177 -0.0131 -0.5887 -0.2398
 4331TIP3   OH234407   6.327   2.836   2.464  0.2807  0.1419  0.1713
 4331TIP3    H134408   6.367   2.810   2.381 -3.1476 -1.1780 -1.2591
 4331TIP3    H234409   6.363   2.775   2.528  0.5940 -0.9409 -0.9882
 4332TIP3   OH234410   6.566   5.360  11.723 -0.2992  0.2946 -0.0800
 4332TIP3    H134411   6.582   5.439  11.671 -2.4036  1.5099  1.0151
 4332TIP3    H234412   6.635   5.299  11.696  0.1272  1.7398 -2.4781
 4333TIP3   OH234413   4.941   3.333   3.105  0.1814 -0.3671  0.1017
 4333TIP3    H134414   5.002   3.315   3.177  1.4661 -1.1311 -1.1172
 4333TIP3    H234415   4.862   3.284   3.129  0.5903 -0.6274  0.9838
 4334TIP3   OH234416   1.869   2.848   5.440 -0.1526 -0.6221  0.2422
 4334TIP3    H134417   1.960   2.822   5.453  0.1417 -0.0288 -0.5226
 4334TIP3    H234418   1.837   2.791   5.371 -0.9404 -2.0650  1.7320
 4335TIP3   OH234419   0.586   1.623  14.108 -0.5665  0.0570 -0.1070
 4335TIP3    H134420   0.622   1.537  14.085 -2.1871 -1.1653  1.6198
 4335TIP3    H234421   0.662   1.681  14.111  0.7855 -1.6461  0.1584
 4336TIP3   OH234422   2.710   2.565   4.668 -0.7202  0.4172  0.2623
 4336TIP3    H134423   2.647   2.496   4.646 -0.2101  0.1574 -0.4532
 4336TIP3    H234424   2.685   2.594   4.755 -0.9598 -0.6710  0.5719
 4337TIP3   OH234425   4.387   3.074  15.207 -0.3459 -0.1685 -0.3306
 4337TIP3    H134426   4.316   3.090  15.268 -0.8162 -2.0281 -0.3197
 4337TIP3    H234427   4.347   3.084  15.120 -0.2996  0.0473 -0.3269
 4338TIP3   OH234428   2.779   0.445   5.581 -0.1965 -0.1647  0.5472
 4338TIP3    H134429   2.786   0.405   5.668 -0.4580  0.6634  0.9556
 4338TIP3    H234430   2.769   0.538   5.598 -0.2801  0.0020 -0.3748
 4339TIP3   OH234431   5.945   4.036   2.636  0.2198  0.0879 -0.2868
 4339TIP3    H134432   5.952   4.094   2.712  1.4939  2.9291 -2.4226
 4339TIP3    H234433   6.035   4.021   2.609 -0.0697 -2.9987  0.1378
 4340TIP3   OH234434   4.751   5.020  11.624  0.4192 -0.0256  0.4223
 4340TIP3    H134435   4.695   5.006  11.700  0.9904  1.4856  1.1577
 4340TIP3    H234436   4.824   4.960  11.636 -0.1425 -0.7245  0.3809
 4341TIP3   OH234437   4.644   6.102  15.495  0.2456  0.3243 -0.0234
 4341TIP3    H134438   4.730   6.129  15.529  0.2655  0.7892 -0.4274
 4341TIP3    H234439   4.607   6.182  15.459 -0.4811  0.1788  0.3982
 4342TIP3   OH234440   5.752   6.185  13.148 -0.2693  0.0773  0.0116
 4342TIP3    H134441   5.831   6.236  13.167 -0.0052  0.2139 -1.3599
 4342TIP3    H234442   5.682   6.251  13.144 -0.3484  0.0337  0.5855
 4343TIP3   OH234443   4.003   2.250  14.638 -0.2097 -0.0818 -0.6881
 4343TIP3    H134444   3.967   2.309  14.704  1.6286 -0.3412  0.6408
 4343TIP3    H234445   4.000   2.164  14.680  0.8928 -0.2643 -0.9587
 4344TIP3   OH234446   2.114   3.617  13.618  0.1118  0.0919  0.4586
 4344TIP3    H134447   2.026   3.647  13.595 -0.6425 -0.0361  2.9068
 4344TIP3    H234448   2.172   3.677  13.572 -1.2385  0.1831 -1.2078
 4345TIP3   OH234449   6.149   0.288   4.587  0.7991 -0.7721  0.1231
 4345TIP3    H134450   6.133   0.295   4.681 -0.7408  1.2503 -0.2188
 4345TIP3    H234451   6.062   0.270   4.550  1.0206  0.4933 -1.0654
 4346TIP3   OH234452   2.949   2.595  14.541 -0.0371 -0.0680 -0.0544
 4346TIP3    H134453   2.867   2.559  14.508  0.4203 -1.5704  0.3547
 4346TIP3    H234454   2.954   2.683  14.504 -2.9498  1.0045  1.7360
 4347TIP3   OH234455   5.008   3.024   2.793  0.0849  0.1659 -0.1320
 4347TIP3    H134456   4.954   2.951   2.824 -0.2842  0.3029 -0.4366
 4347TIP3    H234457   4.950   3.100   2.797  0.9000  0.7407  1.5622
 4348TIP3   OH234458   6.663   6.360  16.762  0.6711 -0.0401 -0.2684
 4348TIP3    H134459   6.678   6.346  16.669  0.5755  1.2923 -0.5029
 4348TIP3    H234460   6.656   6.272  16.799  2.8755 -0.6597 -1.1455
 4349TIP3   OH234461   0.545   3.158  14.999  0.4077 -0.6132 -0.0032
 4349TIP3    H134462   0.548   3.186  14.908 -0.2167  0.0870  0.1826
 4349TIP3    H234463   0.633   3.123  15.017  0.8392  0.1555 -0.5816
 4350TIP3   OH234464   2.985   4.531   5.571 -0.0714 -0.0514 -0.0400
 4350TIP3    H134465   3.036   4.462   5.528  0.9113  0.6630 -0.0488
 4350TIP3    H234466   2.909   4.544   5.514  0.5442 -0.0294 -0.8728
 4351TIP3   OH234467   1.705   0.396   1.426  0.0761 -0.5591 -0.1216
 4351TIP3    H134468   1.679   0.406   1.335 -0.8845 -2.0192 -0.0334
 4351TIP3    H234469   1.695   0.483   1.464 -0.9107 -0.2508 -1.0611
 4352TIP3   OH234470   5.488   4.848   0.296 -0.2883  0.1433  0.1561
 4352TIP3    H134471   5.504   4.824   0.205  0.2616 -1.2074  0.5870
 4352TIP3    H234472   5.569   4.893   0.323  0.6632 -1.7499  0.6914
 4353TIP3   OH234473   4.450   1.317  11.226  0.0955  0.2643  0.0091
 4353TIP3    H134474   4.449   1.277  11.139  0.6514  1.1079 -0.3925
 4353TIP3    H234475   4.357   1.335  11.245  0.0336  0.6599 -0.6754
 4354TIP3   OH234476   2.005   4.963   2.994 -0.2613 -0.3544 -0.0106
 4354TIP3    H134477   1.915   4.934   3.006 -0.7731  1.2734  0.2726
 4354TIP3    H234478   2.008   5.051   3.031  1.2007  0.0088 -0.8811
 4355TIP3   OH234479   1.513   1.134  16.841 -0.0116  0.5362 -0.7578
 4355TIP3    H134480   1.516   1.217  16.793  0.4993  1.3074  0.5673
 4355TIP3    H234481   1.532   1.157  16.932 -0.5406 -0.9431 -0.2282
 4356TIP3   OH234482   1.803   0.691  10.776  0.0309 -0.1309  0.2306
 4356TIP3    H134483   1.727   0.686  10.718  0.4553  2.2533 -0.6677
 4356TIP3    H234484   1.767   0.717  10.860 -0.2009  1.3015 -0.2703
 4357TIP3   OH234485   5.349   1.566   1.621  0.0117  0.2224 -0.3339
 4357TIP3    H134486   5.331   1.621   1.698  3.2189  2.5915 -1.0835
 4357TIP3    H234487   5.303   1.610   1.550  0.0561  0.1518 -0.4053
 4358TIP3   OH234488   5.978   3.445  13.737 -0.8712 -0.2437 -0.2421
 4358TIP3    H134489   5.976   3.456  13.641 -0.3924  0.3407 -0.1914
 4358TIP3    H234490   6.064   3.478  13.763 -0.9879 -0.4284  0.3933
 4359TIP3   OH234491   3.196   3.997  16.692  0.0798 -0.1263 -0.2712
 4359TIP3    H134492   3.241   4.078  16.669  1.1237 -0.1501  1.4794
 4359TIP3    H234493   3.260   3.928  16.676 -1.2703 -0.8776 -3.1653
 4360TIP3   OH234494   0.767   4.920  11.861  0.3385  0.1071 -0.4090
 4360TIP3    H134495   0.808   4.835  11.846  2.2120  1.1849 -1.8370
 4360TIP3    H234496   0.752   4.924  11.955 -1.1613 -2.3440 -0.4590
 4361TIP3   OH234497   0.750   3.230  14.601  0.0386  0.4569 -0.2250
 4361TIP3    H134498   0.667   3.247  14.557 -0.3457 -1.7764 -0.4534
 4361TIP3    H234499   0.802   3.309  14.584 -1.8810  1.7643 -0.3465
 4362TIP3   OH234500   5.641   1.873  12.675 -0.3317 -0.1790 -0.4381
 4362TIP3    H134501   5.574   1.939  12.664  0.0730  0.3751  0.3098
 4362TIP3    H234502   5.724   1.919  12.660  0.0340 -0.1823  1.2932
 4363TIP3   OH234503   4.767   4.121  11.878 -0.0996 -0.1407 -0.0403
 4363TIP3    H134504   4.793   4.201  11.834  0.9958 -1.7601 -2.5669
 4363TIP3    H234505   4.689   4.092  11.831  1.0664 -1.8901 -1.0268
 4364TIP3   OH234506   2.924   4.139   3.810  0.9341  0.0860 -0.3226
 4364TIP3    H134507   2.996   4.106   3.862 -0.5625 -2.6647  0.1732
 4364TIP3    H234508   2.917   4.078   3.736  1.3200  2.3726 -2.3912
 4365TIP3   OH234509   0.240   5.932  12.944  0.1247 -0.7191 -0.8974
 4365TIP3    H134510   0.243   5.838  12.927 -0.0030 -0.7043 -1.0127
 4365TIP3    H234511   0.262   5.972  12.859  2.0168 -0.6532 -0.4078
 4366TIP3   OH234512   5.202   2.947   4.276 -0.0304 -0.4105  0.2700
 4366TIP3    H134513   5.107   2.956   4.283  0.0589  1.0728 -0.2114
 4366TIP3    H234514   5.217   2.917   4.186 -0.0086 -0.1950  0.2029
 4367TIP3   OH234515   2.792   3.676  16.725  0.5182 -0.5005 -0.3770
 4367TIP3    H134516   2.875   3.724  16.732  0.5056 -0.6159  0.7976
 4367TIP3    H234517   2.791   3.643  16.635  0.7080  1.3305 -1.0903
 4368TIP3   OH234518   3.057   6.658   0.713 -0.1184 -0.8461 -0.4374
 4368TIP3    H134519   2.977   6.695   0.750  0.9307 -1.5288  2.8058
 4368TIP3    H234520   3.026   6.593   0.649 -2.2042 -1.4853  1.1066
 4369TIP3   OH234521   4.195   1.687  13.216  0.1212 -0.4429  0.1486
 4369TIP3    H134522   4.253   1.641  13.277  0.9493  1.3784  0.8145
 4369TIP3    H234523   4.151   1.753  13.271  0.3646  0.7834 -1.0649
 4370TIP3   OH234524   3.271   4.316  14.380  0.1356 -0.2507  0.3634
 4370TIP3    H134525   3.188   4.302  14.335  0.2317  0.3376 -0.0082
 4370TIP3    H234526   3.246   4.354  14.464 -0.0718 -1.7798  1.0209
 4371TIP3   OH234527   3.297   3.565   2.167  0.1427  0.0498  0.3326
 4371TIP3    H134528   3.234   3.543   2.235  0.4529 -0.9615  0.3021
 4371TIP3    H234529   3.244   3.597   2.094 -0.4431 -1.7849 -0.0896
 4372TIP3   OH234530   5.685   5.977  13.732  0.2022  0.0895 -0.5433
 4372TIP3    H134531   5.682   5.931  13.649 -0.9810  0.4147 -0.6889
 4372TIP3    H234532   5.638   6.059  13.716 -0.8226 -0.2386  0.6886
 4373TIP3   OH234533   5.150   0.288   2.373  0.5170 -0.1192  0.4314
 4373TIP3    H134534   5.078   0.243   2.418  1.2813 -0.8094  0.9959
 4373TIP3    H234535   5.146   0.255   2.283  0.1789 -0.2106  0.4776
 4374TIP3   OH234536   0.549   1.583   4.792 -0.3010 -0.7217  0.4656
 4374TIP3    H134537   0.631   1.630   4.807  0.0724 -0.8302 -1.1261
 4374TIP3    H234538   0.482   1.641   4.828  0.2675  0.4418 -0.2850
 4375TIP3   OH234539   1.003   0.503   4.340  0.1456 -0.7101  0.1900
 4375TIP3    H134540   0.944   0.440   4.298 -0.1026  0.2826 -0.9944
 4375TIP3    H234541   1.081   0.502   4.286  0.3284 -0.3422  0.4445
 4376TIP3   OH234542   2.833   0.887  15.641 -0.1892  0.1235  0.3296
 4376TIP3    H134543   2.902   0.935  15.594  1.1529 -0.2226  1.8592
 4376TIP3    H234544   2.754   0.939  15.627  0.0732 -0.0676 -2.4308
 4377TIP3   OH234545   6.659   0.547  15.035  0.1192 -1.0136 -0.1000
 4377TIP3    H134546   6.689   0.541  14.944 -0.1758  0.8828 -0.3642
 4377TIP3    H234547   6.726   0.598  15.080 -1.1414  0.6515  0.0045
 4378TIP3   OH234548   6.769   3.323  13.001 -0.3086  0.5009 -0.4288
 4378TIP3    H134549   6.845   3.344  13.055 -1.0161  0.0861  0.7405
 4378TIP3    H234550   6.700   3.381  13.032 -1.1754 -0.8207  0.2034
 4379TIP3   OH234551   1.092   4.692  16.404 -0.0660  0.1389 -0.1590
 4379TIP3    H134552   1.045   4.660  16.327  0.7414 -1.4428 -0.0324
 4379TIP3    H234553   1.184   4.683  16.381  0.1853 -0.3179  0.9574
 4380TIP3   OH234554   3.961   2.982  11.129  0.2824  0.3136  0.0974
 4380TIP3    H134555   3.903   2.972  11.054  0.6581 -1.3975 -0.0183
 4380TIP3    H234556   3.982   2.892  11.155  1.0405  0.8746  1.5678
 4381TIP3   OH234557   5.411   3.097   6.623 -0.2122  0.1685 -0.0667
 4381TIP3    H134558   5.440   3.022   6.673  0.0666  0.7880  0.7253
 4381TIP3    H234559   5.481   3.161   6.633 -0.8748  0.8896  0.0812
 4382TIP3   OH234560   5.057   0.803   4.324  0.4744 -0.1126 -0.8409
 4382TIP3    H134561   5.009   0.756   4.392  0.3373  1.5777  0.2778
 4382TIP3    H234562   5.022   0.767   4.242 -2.7569  0.9998 -0.0893
 4383TIP3   OH234563   2.538   1.985   6.495 -0.0949 -0.4518 -0.1943
 4383TIP3    H134564   2.449   2.007   6.521  0.0005 -0.5249  0.1976
 4383TIP3    H234565   2.592   2.054   6.534  0.3041 -1.7865  1.7291
 4384TIP3   OH234566   0.322   2.178   3.140 -0.6632  0.5058 -0.1936
 4384TIP3    H134567   0.402   2.211   3.180  1.2288  0.0354 -3.2732
 4384TIP3    H234568   0.280   2.255   3.101 -0.2490  0.4002 -0.8715
 4385TIP3   OH234569   1.395   6.291  13.182  0.4337 -0.0685  0.2182
 4385TIP3    H134570   1.458   6.307  13.252 -0.2051 -0.5177  0.9037
 4385TIP3    H234571   1.311   6.286  13.226 -0.4447  2.8131 -0.9187
 4386TIP3   OH234572   3.953   6.615  13.853  0.5832  0.2194 -0.0701
 4386TIP3    H134573   3.971   6.616  13.759 -0.1538 -0.5868 -0.2289
 4386TIP3    H234574   4.028   6.571  13.892  1.3103  1.3369 -0.1751
 4387TIP3   OH234575   1.727   4.595   0.238  0.5916  0.2611 -0.4092
 4387TIP3    H134576   1.634   4.615   0.229  0.2105 -1.5562 -0.8746
 4387TIP3    H234577   1.768   4.638   0.163  0.1190  0.9772 -0.2616
 4388TIP3   OH234578   5.963   5.545   5.545 -0.0548  0.4874  0.3077
 4388TIP3    H134579   5.894   5.595   5.589 -1.2649  0.8273 -1.8363
 4388TIP3    H234580   5.971   5.586   5.459  1.6199 -0.6636 -0.1449
 4389TIP3   OH234581   1.506   5.199  15.051  0.0212  0.4435 -0.2814
 4389TIP3    H134582   1.542   5.283  15.022  1.7517  0.1758  0.9639
 4389TIP3    H234583   1.543   5.135  14.991  1.3865  0.2166  0.7576
 4390TIP3   OH234584   2.314   0.600  12.437 -0.1831 -0.3338  0.6103
 4390TIP3    H134585   2.365   0.597  12.518  1.2116  1.6449 -0.1176
 4390TIP3    H234586   2.369   0.650  12.376 -2.6242  1.1753 -0.4877
 4391TIP3   OH234587   5.035   4.358  11.893 -0.0224  0.4663 -0.7059
 4391TIP3    H134588   4.946   4.387  11.874 -0.0185  1.2780  0.4162
 4391TIP3    H234589   5.063   4.312  11.814 -2.2097 -1.7392 -0.3141
 4392TIP3   OH234590   5.771   2.393   1.900  0.1318  0.2283  0.3033
 4392TIP3    H134591   5.677   2.378   1.910  0.1350 -0.9174 -1.1021
 4392TIP3    H234592   5.813   2.315   1.938  0.5349  0.7120  0.8851
 4393TIP3   OH234593   2.120   5.943  16.853  0.7914  0.1880  0.2847
 4393TIP3    H134594   2.100   5.979  16.766  1.0671 -0.1668  0.0713
 4393TIP3    H234595   2.047   5.884  16.871  0.1746  1.0790  0.7754
 4394TIP3   OH234596   5.207   5.753  11.255 -0.3096 -0.4531 -0.2351
 4394TIP3    H134597   5.199   5.711  11.341  0.7617 -1.3188 -0.5314
 4394TIP3    H234598   5.126   5.730  11.209 -0.0230 -1.6629 -0.1561
 4395TIP3   OH234599   3.823   2.146  12.155 -0.5092 -0.2227 -0.2238
 4395TIP3    H134600   3.850   2.125  12.065 -0.5925  0.5995 -0.4526
 4395TIP3    H234601   3.900   2.186  12.194 -1.0739  1.2665 -0.5813
 4396TIP3   OH234602   2.284   4.142   3.608 -0.4322  0.1423 -0.1401
 4396TIP3    H134603   2.344   4.125   3.536  0.2331  1.9510 -0.0778
 4396TIP3    H234604   2.324   4.215   3.655 -2.7855  1.6115 -0.2615
 4397TIP3   OH234605   0.537   2.183   5.198  0.6216 -0.1961 -0.8955
 4397TIP3    H134606   0.511   2.171   5.106 -0.0679  0.2785 -0.7763
 4397TIP3    H234607   0.632   2.178   5.197  0.6561  0.3543 -1.7347
 4398TIP3   OH234608   4.713   1.732  11.027 -0.3024 -0.6926 -0.5308
 4398TIP3    H134609   4.717   1.805  11.090 -4.7257 -1.3397  0.8788
 4398TIP3    H234610   4.742   1.770  10.944  0.8878  1.6464  0.8552
 4399TIP3   OH234611   6.293   3.562  11.730 -0.6525 -0.6218  0.3253
 4399TIP3    H134612   6.264   3.643  11.688 -0.1465 -0.5298  0.1454
 4399TIP3    H234613   6.224   3.499  11.711 -1.1785 -0.1585  0.7011
 4400TIP3   OH234614   6.371   0.932   0.440  0.6927 -0.5764  0.1424
 4400TIP3    H134615   6.292   0.949   0.491  1.8360  0.4483  1.6493
 4400TIP3    H234616   6.416   0.863   0.489  0.5800 -1.4057 -0.8992
 4401TIP3   OH234617   5.110   1.030   1.208  0.0297 -0.7043  0.1161
 4401TIP3    H134618   5.043   1.097   1.222 -0.0223 -0.6473 -0.3681
 4401TIP3    H234619   5.164   1.064   1.136 -0.9329 -1.8402 -1.2122
 4402TIP3   OH234620   5.083   1.990  11.875 -0.0959 -0.0334  0.6405
 4402TIP3    H134621   5.113   2.047  11.804  1.3297 -1.7911 -0.2600
 4402TIP3    H234622   5.121   2.029  11.954  2.3700 -0.6034 -0.1608
 4403TIP3   OH234623   5.745   0.493   1.017  0.0719  0.1150 -0.2550
 4403TIP3    H134624   5.702   0.474   1.100 -0.2603  0.2173 -0.4002
 4403TIP3    H234625   5.673   0.506   0.955  0.2481  2.1581 -0.0999
 4404TIP3   OH234626   4.306   4.952   4.343 -0.3204 -0.4969 -0.2710
 4404TIP3    H134627   4.381   4.896   4.361 -0.3876 -0.7725 -0.8106
 4404TIP3    H234628   4.303   5.014   4.416  0.7792 -0.1041 -0.5526
 4405TIP3   OH234629   1.327   2.373  12.886 -0.1853 -0.0912 -0.2087
 4405TIP3    H134630   1.269   2.344  12.816  1.4318  0.0334 -1.6723
 4405TIP3    H234631   1.336   2.467  12.873  0.8439 -0.2043 -0.4338
 4406TIP3   OH234632   1.877   3.123   5.417 -0.0033  0.0420  0.6433
 4406TIP3    H134633   1.896   3.030   5.407  1.4374  0.3618  0.2259
 4406TIP3    H234634   1.870   3.136   5.511  0.8250 -0.3119  0.7651
 4407TIP3   OH234635   0.309   3.356  13.635  0.0750 -0.0873  0.2598
 4407TIP3    H134636   0.267   3.396  13.559 -0.0449 -2.3713 -0.9576
 4407TIP3    H234637   0.402   3.355  13.615 -0.1031 -2.2209 -0.7045
 4408TIP3   OH234638   5.658   2.538   4.323  0.2181  0.4744  0.3864
 4408TIP3    H134639   5.658   2.442   4.327  0.3297  0.4812  0.5822
 4408TIP3    H234640   5.646   2.565   4.414  0.0999  0.6457  0.3184
 4409TIP3   OH234641   5.839   5.369   1.578 -0.3092 -0.2272  0.1815
 4409TIP3    H134642   5.797   5.303   1.632  0.1936 -1.2603 -0.6671
 4409TIP3    H234643   5.932   5.345   1.578  0.1985  1.5196  1.3250
 4410TIP3   OH234644   3.883   3.290   1.197 -0.0672  0.5163  0.1319
 4410TIP3    H134645   3.799   3.271   1.240  0.9047  1.5825  2.6657
 4410TIP3    H234646   3.900   3.382   1.219  0.8739  0.9025 -2.0050
 4411TIP3   OH234647   2.463   6.232   0.097  0.3176  0.1373  0.3153
 4411TIP3    H134648   2.461   6.178   0.018 -0.6182  0.2188  0.2697
 4411TIP3    H234649   2.509   6.178   0.162 -0.2617 -0.5648  0.1574
 4412TIP3   OH234650   3.803   6.187  12.879  0.2642 -0.4961 -0.5402
 4412TIP3    H134651   3.824   6.277  12.902  2.4414 -0.7031 -1.4435
 4412TIP3    H234652   3.836   6.176  12.790  0.1196 -2.1858 -0.4218
 4413TIP3   OH234653   3.608   5.730   4.689 -0.1561  0.6765  0.5700
 4413TIP3    H134654   3.695   5.692   4.698 -0.4430 -0.1746 -0.1275
 4413TIP3    H234655   3.588   5.767   4.775  0.8354  0.7699  0.7709
 4414TIP3   OH234656   6.337   3.525   1.798 -0.2463 -0.1197  0.2298
 4414TIP3    H134657   6.385   3.563   1.872 -2.3516 -0.5309  1.9124
 4414TIP3    H234658   6.304   3.441   1.831 -3.4548  0.8225 -0.1718
 4415TIP3   OH234659   0.628   5.279   2.481  0.3418 -0.0987 -0.0064
 4415TIP3    H134660   0.659   5.287   2.391 -0.4199 -2.4019 -0.5557
 4415TIP3    H234661   0.578   5.359   2.497  0.4139  0.3111 -1.6606
 4416TIP3   OH234662   6.418   1.751  13.956  0.1911 -0.7836 -0.0773
 4416TIP3    H134663   6.479   1.677  13.957  0.8171 -0.2807  0.8906
 4416TIP3    H234664   6.343   1.722  14.008  0.3490 -0.8096  0.1356
 4417TIP3   OH234665   2.436   3.623   0.455  0.2650 -0.3551 -0.2058
 4417TIP3    H134666   2.528   3.597   0.452  0.2217 -0.4901 -0.3744
 4417TIP3    H234667   2.435   3.701   0.511  0.3773 -0.7679  0.3727
 4418TIP3   OH234668   4.707   5.756   4.588 -0.3970  0.1599 -0.1841
 4418TIP3    H134669   4.737   5.690   4.651  1.7799 -0.6765 -1.9847
 4418TIP3    H234670   4.667   5.824   4.642  0.2470 -1.0942  1.9914
 4419TIP3   OH234671   3.037   4.957   3.739 -0.2945 -0.8048  0.4386
 4419TIP3    H134672   3.011   5.045   3.711 -0.0740 -0.2807  1.8124
 4419TIP3    H234673   2.968   4.931   3.801 -0.9194 -2.0470 -0.7324
 4420TIP3   OH234674   1.165   5.337  16.305 -0.7328 -0.1722  0.0114
 4420TIP3    H134675   1.233   5.271  16.319 -0.8750 -0.1318  0.9439
 4420TIP3    H234676   1.086   5.298  16.342 -1.0335  0.1363 -0.2969
 4421TIP3   OH234677   1.712   6.510   1.466 -0.3558 -0.5579  0.2318
 4421TIP3    H134678   1.718   6.585   1.406  0.8413 -0.9919 -0.2060
 4421TIP3    H234679   1.654   6.541   1.536 -0.5682  0.4816 -0.3787
 4422TIP3   OH234680   0.829   6.660   5.244 -0.6264  0.1488 -0.1927
 4422TIP3    H134681   0.740   6.634   5.221 -0.3294 -0.4911 -0.6339
 4422TIP3    H234682   0.841   6.745   5.202 -0.4910 -0.4745 -1.4424
 4423TIP3   OH234683   3.414   2.625  14.981  0.7811  0.1514  0.1057
 4423TIP3    H134684   3.475   2.676  14.928  0.2413  0.2447 -0.4360
 4423TIP3    H234685   3.428   2.535  14.954  0.1493  0.2460 -0.5901
 4424TIP3   OH234686   3.258   2.991  12.911  0.0387  0.0775 -0.0288
 4424TIP3    H134687   3.218   3.017  12.994  1.7318 -0.7839  1.1270
 4424TIP3    H234688   3.254   3.069  12.857  1.3356  1.5498  1.8754
 4425TIP3   OH234689   6.375   3.108   2.715 -0.6611  0.4291  0.1042
 4425TIP3    H134690   6.320   3.060   2.653 -1.2526  1.1456  0.0629
 4425TIP3    H234691   6.465   3.086   2.689 -0.8948 -1.3861  0.6678
 4426TIP3   OH234692   3.479   5.111   3.616  0.2681 -0.1131 -0.1487
 4426TIP3    H134693   3.465   5.195   3.659 -3.8337 -0.7763  0.2250
 4426TIP3    H234694   3.471   5.131   3.522  0.9060  0.1335 -0.1531
 4427TIP3   OH234695   0.407   0.027   3.946 -1.0326 -0.2381  0.1680
 4427TIP3    H134696   0.424   0.095   3.881 -0.6638 -0.5168 -0.0347
 4427TIP3    H234697   0.469   0.045   4.016 -1.0563 -0.2563  0.1932
 4428TIP3   OH234698   2.508   4.024  15.374  0.2481 -0.2730 -0.2282
 4428TIP3    H134699   2.471   4.022  15.463  0.0299 -1.3463 -0.3299
 4428TIP3    H234700   2.474   3.945  15.333 -0.9000  0.9741 -1.7842
 4429TIP3   OH234701   4.234   0.979   4.732  0.8431  0.4652 -0.5251
 4429TIP3    H134702   4.250   0.925   4.810  0.7002  2.1625  0.7272
 4429TIP3    H234703   4.313   0.967   4.679  1.3158 -0.0848  0.2613
 4430TIP3   OH234704   0.398   0.830   5.462 -0.3992 -0.0694 -0.0698
 4430TIP3    H134705   0.424   0.920   5.480 -0.0561 -0.0549 -0.6319
 4430TIP3    H234706   0.387   0.791   5.549 -1.9957  0.9146  0.2078
 4431TIP3   OH234707   0.821   1.504   3.711 -0.2874 -0.1765  0.5005
 4431TIP3    H134708   0.861   1.572   3.657  1.4076  0.1563  2.0699
 4431TIP3    H234709   0.820   1.541   3.799 -0.8009 -1.5786  1.1139
 4432TIP3   OH234710   1.677   6.621   4.202 -0.6310  0.3926 -0.0831
 4432TIP3    H134711   1.739   6.591   4.269  0.0008  2.0403  0.1088
 4432TIP3    H234712   1.656   6.711   4.228 -0.4260  1.0456 -2.0823
 4433TIP3   OH234713   2.791   5.539  16.432  0.4007  0.2534 -0.1264
 4433TIP3    H134714   2.737   5.613  16.461 -0.3431 -0.6604  0.9265
 4433TIP3    H234715   2.782   5.475  16.502 -0.9122 -1.8228 -2.0615
 4434TIP3   OH234716   2.207   3.324   4.594 -0.0589  0.1793 -0.4570
 4434TIP3    H134717   2.170   3.412   4.590 -0.4934 -0.0374 -1.4667
 4434TIP3    H234718   2.167   3.286   4.673  0.3614  0.9731  0.1532
 4435TIP3   OH234719   0.088   4.038   3.750 -0.3767 -0.3251  0.8045
 4435TIP3    H134720   0.133   4.097   3.811 -3.3417 -1.1860  4.1949
 4435TIP3    H234721   0.151   3.969   3.733  0.7781  0.2122  2.5770
 4436TIP3   OH234722   3.943   1.697  17.264 -0.2067  0.1152 -0.2921
 4436TIP3    H134723   3.977   1.769  17.317 -1.7913 -0.0449  1.0402
 4436TIP3    H234724   3.903   1.740  17.188  1.6245  0.3829 -1.1610
 4437TIP3   OH234725   5.938   5.469   3.654 -0.5058 -0.0597  0.2843
 4437TIP3    H134726   5.945   5.402   3.721 -1.5168  0.0478  0.5106
 4437TIP3    H234727   5.891   5.426   3.582 -1.2618  0.4258  0.4768
 4438TIP3   OH234728   2.418   0.628  17.265 -0.0689  0.2467  0.9691
 4438TIP3    H134729   2.396   0.560  17.329 -0.6751 -1.5436 -1.0087
 4438TIP3    H234730   2.334   0.670  17.246 -0.2222 -0.4202  0.1054
 4439TIP3   OH234731   4.696   4.503  16.853  0.2640 -0.1314 -0.0877
 4439TIP3    H134732   4.674   4.572  16.791 -0.7164  0.5400  0.9648
 4439TIP3    H234733   4.653   4.424  16.819 -1.6253  0.5746  0.5261
 4440TIP3   OH234734   1.796   1.720   5.788  0.1548 -0.2686  0.6771
 4440TIP3    H134735   1.762   1.637   5.822  1.7638 -1.0742  0.3999
 4440TIP3    H234736   1.790   1.780   5.862  0.0442 -0.9459  1.2294
 4441TIP3   OH234737   1.646   2.932   3.078  0.0532  0.0110  0.4220
 4441TIP3    H134738   1.717   2.986   3.042 -0.8619  0.6181 -0.5435
 4441TIP3    H234739   1.672   2.842   3.058  0.8239  0.1806  0.6052
 4442TIP3   OH234740   0.363   1.604  11.521  0.4621 -0.0212  0.1347
 4442TIP3    H134741   0.388   1.669  11.587  1.8082 -1.1240  0.7679
 4442TIP3    H234742   0.327   1.656  11.449 -0.2919  1.2776  1.3884
 4443TIP3   OH234743   2.476   6.499  11.245  0.2330  0.0869 -0.0514
 4443TIP3    H134744   2.398   6.510  11.191 -0.7724 -0.5842  1.1908
 4443TIP3    H234745   2.529   6.577  11.227 -0.2496  0.0800 -1.6451
 4444TIP3   OH234746   0.570   0.006  15.417 -0.2499  0.6257  0.1357
 4444TIP3    H134747   0.502  -0.025  15.477 -0.4936  0.9710  0.0440
 4444TIP3    H234748   0.534  -0.009  15.329  0.2282 -0.1529  0.0621
 4445TIP3   OH234749   2.517   0.778   5.149  0.2403 -0.1580 -0.5901
 4445TIP3    H134750   2.602   0.777   5.192 -0.7241  0.7963  1.4769
 4445TIP3    H234751   2.469   0.705   5.187  0.0052 -0.4925 -1.4969
 4446TIP3   OH234752   3.708   6.223  11.751  0.3717  0.3653  0.2339
 4446TIP3    H134753   3.711   6.203  11.658 -0.5336  0.4531  0.1765
 4446TIP3    H234754   3.629   6.177  11.783  0.3317  0.8338  0.8275
 4447TIP3   OH234755   1.658   3.348  16.983  0.0680 -0.0575 -0.4553
 4447TIP3    H134756   1.584   3.408  16.974  1.1135  1.4388  0.5591
 4447TIP3    H234757   1.735   3.404  16.983  1.1856 -1.5251 -0.7876
 4448TIP3   OH234758   3.897   4.758   5.731 -0.1018 -0.1511 -0.4202
 4448TIP3    H134759   3.915   4.697   5.803 -1.1945 -1.1016 -0.9241
 4448TIP3    H234760   3.983   4.774   5.691  0.5545  0.5664  1.2011
 4449TIP3   OH234761   5.414   5.253  13.936  0.5225 -0.1160  0.1132
 4449TIP3    H134762   5.420   5.214  13.849  2.9011 -0.4116  0.3291
 4449TIP3    H234763   5.323   5.282  13.944 -0.6646 -3.0914 -1.1486
 4450TIP3   OH234764   0.409   4.630  12.381  0.0829  0.2519  0.0206
 4450TIP3    H134765   0.406   4.538  12.407  0.9379  0.4221  0.8124
 4450TIP3    H234766   0.419   4.629  12.286  1.9459 -0.5210  0.1947
 4451TIP3   OH234767   4.928   6.580   4.768 -0.0804 -0.8113  0.0028
 4451TIP3    H134768   4.889   6.554   4.852 -2.3168  0.8136 -0.4337
 4451TIP3    H234769   4.878   6.532   4.702 -0.2745  0.0676 -0.5091
 4452TIP3   OH234770   3.106   2.307   2.605 -0.1385  0.0204  0.2916
 4452TIP3    H134771   3.051   2.248   2.553  0.1504  1.3307 -1.5762
 4452TIP3    H234772   3.113   2.386   2.552 -0.4035  1.7178  2.6742
 4453TIP3   OH234773   4.952   4.384  12.817 -0.1496 -0.1298  0.4801
 4453TIP3    H134774   5.045   4.372  12.796  0.4025  2.1580  1.2812
 4453TIP3    H234775   4.934   4.319  12.885  0.9680 -0.3374  0.5934
 4454TIP3   OH234776   1.809   1.532  15.274  0.3657  0.2777 -0.1280
 4454TIP3    H134777   1.884   1.481  15.244  0.6088 -1.5451  3.1329
 4454TIP3    H234778   1.838   1.571  15.357 -2.3762 -0.8993  1.5041
 4455TIP3   OH234779   5.809   3.970  11.070 -0.0504  0.3562 -0.3222
 4455TIP3    H134780   5.816   4.010  10.983 -0.3772 -0.6426 -0.8140
 4455TIP3    H234781   5.900   3.956  11.096  0.0470  0.5490 -0.5445
 4456TIP3   OH234782   1.206   5.695  11.991 -0.1949  0.0309 -0.7814
 4456TIP3    H134783   1.219   5.656  12.078  2.2294  2.7243  0.2200
 4456TIP3    H234784   1.127   5.748  12.000  0.0769  0.3398 -0.1848
 4457TIP3   OH234785   0.031   2.555  15.078 -0.9120 -0.0117  0.3773
 4457TIP3    H134786   0.089   2.599  15.017  0.4741  1.3628  2.5545
 4457TIP3    H234787  -0.057   2.585  15.054 -0.4013  0.5578 -0.8286
 4458TIP3   OH234788   6.246   5.877   3.129 -0.6165  0.5488 -0.0433
 4458TIP3    H134789   6.169   5.829   3.100 -1.2969  0.5106  1.7443
 4458TIP3    H234790   6.220   5.919   3.211  1.3544  0.2562  0.7866
 4459TIP3   OH234791   2.434   1.096  15.374  0.3418 -0.4993 -0.0740
 4459TIP3    H134792   2.461   1.128  15.288  0.0285 -2.1000 -0.8055
 4459TIP3    H234793   2.515   1.095  15.426  0.5851  0.2071 -0.4290
 4460TIP3   OH234794   6.717   6.621  16.536 -0.2996  0.1129  0.3949
 4460TIP3    H134795   6.639   6.584  16.494 -0.0979 -0.2295  0.3198
 4460TIP3    H234796   6.722   6.710  16.501 -0.2350 -0.1093 -0.1808
 4461TIP3   OH234797   0.974   5.434  14.690 -0.5984 -0.3335 -0.5621
 4461TIP3    H134798   1.011   5.366  14.746  0.7800  0.8001 -0.0259
 4461TIP3    H234799   0.958   5.391  14.606 -0.3359 -1.4607 -0.0409
 4462TIP3   OH234800   2.732   6.389   1.337  0.2435 -0.7432 -0.3118
 4462TIP3    H134801   2.809   6.376   1.393  0.5073 -1.7445 -0.8851
 4462TIP3    H234802   2.750   6.470   1.290  1.5231 -1.5566 -1.3140
 4463TIP3   OH234803   2.351   6.545  15.494 -0.1565 -0.2248 -0.4325
 4463TIP3    H134804   2.389   6.550  15.406  0.0864 -0.4082 -0.3398
 4463TIP3    H234805   2.404   6.479  15.539 -1.6674 -1.7905 -0.8318
 4464TIP3   OH234806   5.969   5.993  12.756  0.0552  0.1520 -0.1079
 4464TIP3    H134807   5.885   5.977  12.714  0.0885  0.2689 -0.2211
 4464TIP3    H234808   5.948   6.014  12.847 -0.0822  0.7914 -0.2837
 4465TIP3   OH234809   5.449   3.433  11.221 -0.1551  0.5101  0.4484
 4465TIP3    H134810   5.353   3.430  11.228 -0.1432 -1.5492  0.3254
 4465TIP3    H234811   5.465   3.458  11.130 -0.5482  1.5643  0.6522
 4466TIP3   OH234812   2.827   0.555  14.540 -0.2317  0.1172  0.2261
 4466TIP3    H134813   2.907   0.504  14.555  0.7394  1.1810 -1.0275
 4466TIP3    H234814   2.821   0.561  14.444 -0.2211  2.4212  0.3097
 4467TIP3   OH234815   0.012   5.347   3.973 -0.1810 -0.8398 -0.0162
 4467TIP3    H134816  -0.083   5.334   3.983 -0.8895  1.6595 -2.3248
 4467TIP3    H234817   0.031   5.425   4.026  0.3312 -0.5711 -0.5937
 4468TIP3   OH234818   2.140   3.676   1.458 -0.1955  0.1410 -0.2500
 4468TIP3    H134819   2.112   3.604   1.401 -0.7307 -0.0084  0.1930
 4468TIP3    H234820   2.176   3.632   1.535  0.5565  0.3427 -0.4807
 4469TIP3   OH234821   5.810   4.668   1.128 -0.0222 -0.0707  0.0956
 4469TIP3    H134822   5.718   4.679   1.150 -0.2673 -0.6578 -0.6117
 4469TIP3    H234823   5.843   4.757   1.115 -1.2109  0.0750 -2.5236
 4470TIP3   OH234824   1.674   5.727  13.504  0.8280  0.5615 -0.3379
 4470TIP3    H134825   1.729   5.731  13.582  1.8649  1.1528 -1.0683
 4470TIP3    H234826   1.586   5.707  13.537  1.4149 -0.1169  0.8851
 4471TIP3   OH234827   5.237   1.648   0.271  0.2280  0.6481  1.0016
 4471TIP3    H134828   5.221   1.646   0.365 -2.4211  3.7676  0.8139
 4471TIP3    H234829   5.152   1.630   0.231  1.0727  0.3219 -0.7781
 4472TIP3   OH234830   2.327   6.018   4.202 -0.3714  0.5145  0.1471
 4472TIP3    H134831   2.336   6.041   4.295  0.1042  0.8164  0.0340
 4472TIP3    H234832   2.288   6.096   4.162  3.3091  2.1933 -0.6440
 4473TIP3   OH234833   1.351   2.638   1.431 -0.2412 -0.0480 -0.1443
 4473TIP3    H134834   1.403   2.583   1.373  2.0109 -0.1932  1.8257
 4473TIP3    H234835   1.347   2.589   1.513  1.6098  2.4717  1.6088
 4474TIP3   OH234836   0.902   2.916  13.757 -0.8245 -0.5431 -0.5931
 4474TIP3    H134837   0.932   2.877  13.675  0.5551 -0.1251 -0.3013
 4474TIP3    H234838   0.932   2.855  13.825 -0.1250  0.1679 -0.2553
 4475TIP3   OH234839   4.509   0.133  14.503  0.2190 -0.1700  0.6274
 4475TIP3    H134840   4.503   0.203  14.568 -0.1985 -0.1803  0.5975
 4475TIP3    H234841   4.488   0.053  14.550  2.1916 -0.5146  1.0410
 4476TIP3   OH234842   0.624   1.531  16.719  0.3442  0.1930  0.9013
 4476TIP3    H134843   0.676   1.469  16.769  1.4739  1.1059  0.8869
 4476TIP3    H234844   0.687   1.591  16.680 -0.7319  1.9047  1.6280
 4477TIP3   OH234845   5.769   4.916   0.277  0.4116  0.4262  0.2728
 4477TIP3    H134846   5.755   4.821   0.280 -0.1382  0.4540  4.4965
 4477TIP3    H234847   5.861   4.926   0.250  1.2138 -1.5197  2.0089
 4478TIP3   OH234848   1.609   3.933   3.454  0.4058  0.4035  0.0360
 4478TIP3    H134849   1.663   3.874   3.506  0.2754  0.2529 -0.0001
 4478TIP3    H234850   1.637   4.021   3.481 -1.3989  0.3925  2.2420
 4479TIP3   OH234851   4.897   3.892   3.588  0.6753  0.4323 -0.2978
 4479TIP3    H134852   4.930   3.919   3.502  1.1222 -2.8511 -1.3316
 4479TIP3    H234853   4.802   3.900   3.581  0.7695  1.2834 -0.6687
 4480TIP3   OH234854   1.325   3.294  11.429 -0.2440  0.5931  0.4503
 4480TIP3    H134855   1.291   3.364  11.374 -0.1695 -0.3970 -0.9005
 4480TIP3    H234856   1.248   3.241  11.452 -0.0791  0.1742  0.0609
 4481TIP3   OH234857   2.488   5.908  16.383  0.7310  0.5860 -0.7104
 4481TIP3    H134858   2.420   5.901  16.316  1.0163  2.9370 -1.3451
 4481TIP3    H234859   2.471   5.993  16.425  2.6835  0.7917 -0.2504
 4482TIP3   OH234860   3.757   5.771  12.767 -0.6232 -0.3047 -0.3501
 4482TIP3    H134861   3.726   5.839  12.827 -0.4469  0.1842 -0.8084
 4482TIP3    H234862   3.766   5.815  12.683 -0.9420 -1.0046 -0.7587
 4483TIP3   OH234863   3.242   5.929   1.860 -0.0212  0.3754  0.1571
 4483TIP3    H134864   3.325   5.952   1.902  0.9187 -0.2651 -1.2734
 4483TIP3    H234865   3.209   6.012   1.826  0.2219  0.5737  0.3965
 4484TIP3   OH234866   6.059   5.392  16.684 -0.3758 -0.0065 -0.4443
 4484TIP3    H134867   6.052   5.310  16.733 -0.8364  0.6588  0.6467
 4484TIP3    H234868   6.097   5.367  16.600 -1.4222 -1.4814 -0.5038
 4485TIP3   OH234869   3.592   6.053   0.169 -0.3078  0.2210  0.0018
 4485TIP3    H134870   3.531   6.113   0.212 -3.4977 -2.8806  0.3204
 4485TIP3    H234871   3.592   5.975   0.225  1.7296 -1.0180 -1.5704
 4486TIP3   OH234872   2.111   5.358   1.389  0.1435  0.0553 -0.8882
 4486TIP3    H134873   2.185   5.310   1.426  0.4776 -0.1012 -1.7403
 4486TIP3    H234874   2.035   5.303   1.407 -0.0830  1.0010  1.5309
 4487TIP3   OH234875   3.984   3.124  14.614  0.2111  0.0002 -0.7993
 4487TIP3    H134876   3.895   3.090  14.625 -0.0719  0.5269 -1.4120
 4487TIP3    H234877   3.974   3.219  14.614  0.8832  0.0864 -0.0667
 4488TIP3   OH234878   6.342   3.333  16.532 -0.2650  0.4189 -0.0619
 4488TIP3    H134879   6.315   3.256  16.482  1.8327 -0.8384  0.6255
 4488TIP3    H234880   6.267   3.353  16.588 -1.8370  0.5437 -2.1041
 4489TIP3   OH234881   5.663   1.072   3.538  0.0472 -0.7846 -1.0218
 4489TIP3    H134882   5.685   0.986   3.502 -0.2018 -1.1999 -0.2048
 4489TIP3    H234883   5.734   1.090   3.600  0.3351 -0.1956 -1.5212
 4490TIP3   OH234884   1.068   6.505  14.235  0.3585 -0.0231 -0.5974
 4490TIP3    H134885   1.156   6.501  14.274 -0.6602 -3.4430  1.8947
 4490TIP3    H234886   1.069   6.438  14.167 -0.4479 -0.6527 -0.0225
 4491TIP3   OH234887   0.739   2.286  16.981 -0.4512 -0.2662  0.3639
 4491TIP3    H134888   0.816   2.231  16.965 -0.4357 -0.0810 -0.2234
 4491TIP3    H234889   0.700   2.298  16.895 -1.5210 -0.9050  0.7329
 4492TIP3   OH234890   5.512   3.098  11.391  0.2915 -0.5933  0.5088
 4492TIP3    H134891   5.434   3.148  11.365  0.1526 -0.4745  1.1190
 4492TIP3    H234892   5.488   3.007  11.375  0.3667 -0.4972 -0.1603
 4493TIP3   OH234893   3.178   0.532   2.574  0.0326 -0.2833 -0.7150
 4493TIP3    H134894   3.093   0.514   2.535  0.0145 -0.2147 -0.7072
 4493TIP3    H234895   3.193   0.625   2.557  0.7743 -0.6216 -2.0145
 4494TIP3   OH234896   4.666   3.711  11.292 -0.5006 -0.1508  0.2932
 4494TIP3    H134897   4.579   3.672  11.302 -1.0769  0.9245 -0.4036
 4494TIP3    H234898   4.707   3.661  11.221 -0.4041 -0.8819  0.8524
 4495TIP3   OH234899   1.571   3.652   2.878 -0.0413 -0.0366  0.1017
 4495TIP3    H134900   1.540   3.743   2.869  0.6406  0.1569 -0.4165
 4495TIP3    H234901   1.507   3.601   2.828 -1.5235 -0.1143  1.9504
 4496TIP3   OH234902   2.048   3.341   1.747  0.2200  0.1010 -0.1605
 4496TIP3    H134903   2.096   3.291   1.814  0.4351 -0.2128 -0.5397
 4496TIP3    H234904   2.111   3.406   1.715 -0.0735  0.6432  0.3598
 4497TIP3   OH234905   5.958   3.394  12.030 -0.4073 -0.3137  0.1719
 4497TIP3    H134906   5.879   3.383  12.084 -0.3424 -1.2027  0.1014
 4497TIP3    H234907   6.005   3.311  12.040  0.6297  0.2802  0.3809
 4498TIP3   OH234908   4.606   0.581  15.696  0.0480 -0.4620  0.1880
 4498TIP3    H134909   4.656   0.509  15.735 -0.3052 -0.6911  0.2234
 4498TIP3    H234910   4.518   0.572  15.733  0.8851  2.3761  3.4731
 4499TIP3   OH234911   0.667   1.769   2.681  0.0476 -0.7068 -0.3162
 4499TIP3    H134912   0.608   1.811   2.618 -1.2178  1.0883  1.9283
 4499TIP3    H234913   0.615   1.698   2.719  0.8913 -1.9452 -1.3716
 4500TIP3   OH234914   1.650   3.054   4.998 -0.5532  0.3419 -0.7049
 4500TIP3    H134915   1.738   3.053   5.035 -0.9191  0.2077  0.1766
 4500TIP3    H234916   1.600   3.111   5.055 -1.1732 -0.0052 -0.8856
 4501TIP3   OH234917   5.426   1.592  17.016 -0.1681 -0.2448  0.6744
 4501TIP3    H134918   5.414   1.597  17.111  0.9819 -0.3230  0.8311
 4501TIP3    H234919   5.479   1.513  17.003 -2.3399 -1.6706 -0.2416
 4502TIP3   OH234920   6.156   6.245  13.626  0.2639  0.3388  0.1429
 4502TIP3    H134921   6.147   6.340  13.637 -1.0710  0.0729  1.7919
 4502TIP3    H234922   6.078   6.218  13.578 -0.5958 -0.1796  1.7516
 4503TIP3   OH234923   0.466   5.992   1.087 -0.1374 -0.3225  0.3302
 4503TIP3    H134924   0.452   5.902   1.057 -0.5260 -0.4266  0.8256
 4503TIP3    H234925   0.479   6.042   1.006  1.4754 -1.0546  0.0948
 4504TIP3   OH234926   2.165   2.301  13.382  0.1038  0.1544 -0.4352
 4504TIP3    H134927   2.199   2.212  13.378  0.1204  0.1456 -0.1538
 4504TIP3    H234928   2.073   2.291  13.406 -0.0194  0.1922 -0.8871
 4505TIP3   OH234929   1.823   0.135  14.127 -0.2929 -0.2896  0.0748
 4505TIP3    H134930   1.867   0.219  14.138  0.1540 -0.7325  1.8816
 4505TIP3    H234931   1.738   0.146  14.169 -0.9726 -0.2235 -1.2414
 4506TIP3   OH234932   2.832   6.024   4.664  0.0173  0.0261  0.0210
 4506TIP3    H134933   2.827   6.079   4.742 -0.5576  0.6347 -0.4380
 4506TIP3    H234934   2.922   5.991   4.664  0.0323  0.0294  0.9280
 4507TIP3   OH234935   5.995   6.674  13.148  0.4921  0.0579 -0.3694
 4507TIP3    H134936   6.077   6.695  13.102  1.5037  0.2154  1.4112
 4507TIP3    H234937   5.982   6.580  13.131  0.5125  0.2266 -1.4211
 4508TIP3   OH234938   1.865   3.204  15.092 -0.3715  0.8373  0.5363
 4508TIP3    H134939   1.853   3.191  15.186 -1.5675 -2.5820  0.0495
 4508TIP3    H234940   1.776   3.216  15.058 -0.3488 -1.3770 -0.4721
 4509TIP3   OH234941   4.199   0.796   4.209 -0.6101 -0.1676  0.0490
 4509TIP3    H134942   4.227   0.882   4.240  0.7441  0.0682 -1.6514
 4509TIP3    H234943   4.110   0.809   4.178 -0.1418  0.8706 -0.9404
 4510TIP3   OH234944   0.079   3.623   2.956 -0.4776  0.7893  0.2050
 4510TIP3    H134945   0.083   3.703   2.905 -0.7490 -0.1382 -1.3270
 4510TIP3    H234946  -0.007   3.586   2.936 -0.6913  0.5150  1.5378
 4511TIP3   OH234947   6.600   3.156   4.244  0.1810  0.7837 -0.5251
 4511TIP3    H134948   6.505   3.146   4.252  0.3981 -0.7543  0.6348
 4511TIP3    H234949   6.615   3.250   4.240 -1.3308  1.0805  0.2677
 4512TIP3   OH234950   3.638   0.371   5.714  0.4427  0.1030 -0.2123
 4512TIP3    H134951   3.652   0.431   5.787 -1.7441  0.7058 -0.2189
 4512TIP3    H234952   3.641   0.426   5.636 -0.8028  0.1109 -0.2775
 4513TIP3   OH234953   0.445   0.486   6.302  0.1731 -0.0196  0.0144
 4513TIP3    H134954   0.394   0.412   6.334  0.1357 -0.7153 -1.5846
 4513TIP3    H234955   0.513   0.500   6.369  1.1298 -2.4775 -0.3637
 4514TIP3   OH234956   4.756   6.212   2.960 -0.1538 -0.0367 -0.2272
 4514TIP3    H134957   4.821   6.179   2.898 -0.5133 -1.7650  0.2397
 4514TIP3    H234958   4.776   6.305   2.970  2.6400 -0.6150  0.3677
 4515TIP3   OH234959   4.392   5.329   5.699  0.7150  0.8528  0.1899
 4515TIP3    H134960   4.454   5.279   5.751  1.0378  1.0822  0.0275
 4515TIP3    H234961   4.319   5.268   5.684 -0.0421  1.2408  2.0947
 4516TIP3   OH234962   3.913   0.132   1.241 -0.1346  0.4517 -0.1766
 4516TIP3    H134963   3.966   0.176   1.308  0.4155  1.7070 -1.3943
 4516TIP3    H234964   3.978   0.097   1.179 -0.6455 -0.4850 -0.1964
 4517TIP3   OH234965   4.925   6.145   3.378 -0.4259 -0.0958 -0.5280
 4517TIP3    H134966   4.839   6.172   3.408  1.1844  4.6570  0.6241
 4517TIP3    H234967   4.911   6.116   3.288 -3.1475  1.2552 -0.6308
 4518TIP3   OH234968   3.053   3.909   0.085 -0.0425  0.0482 -0.5940
 4518TIP3    H134969   3.016   3.898  -0.002 -0.8359 -0.7090 -0.1737
 4518TIP3    H234970   3.043   3.823   0.127 -0.2931  0.5840  0.4837
 4519TIP3   OH234971   6.293   4.742   5.430 -0.2187  0.3074 -0.5439
 4519TIP3    H134972   6.322   4.700   5.348 -0.5719  0.0026 -0.5124
 4519TIP3    H234973   6.319   4.833   5.419  2.0249 -0.1835  0.0505
 4520TIP3   OH234974   2.424   5.882   5.636  0.1753  0.0119  0.1058
 4520TIP3    H134975   2.449   5.971   5.662 -0.7131  0.1087  0.6515
 4520TIP3    H234976   2.398   5.840   5.718  0.6419 -0.7735 -0.1450
 4521TIP3   OH234977   5.676   1.958  12.261  0.4584 -0.3520 -0.0023
 4521TIP3    H134978   5.581   1.945  12.264  0.0977  1.1480 -2.4848
 4521TIP3    H234979   5.695   2.016  12.335 -0.5620 -0.5798  0.4506
 4522TIP3   OH234980   3.427   2.417   0.977  0.3155  0.6747 -0.3025
 4522TIP3    H134981   3.416   2.388   0.886 -0.4095  2.1639 -0.7222
 4522TIP3    H234982   3.503   2.475   0.974  1.6790 -0.9656  0.5046
 4523TIP3   OH234983   1.684   1.367  16.334  0.4492 -0.1918 -0.5058
 4523TIP3    H134984   1.695   1.313  16.256 -0.1340 -0.3188 -0.5050
 4523TIP3    H234985   1.726   1.450  16.313  1.1731 -0.5643 -0.5854
 4524TIP3   OH234986   0.760   0.902   4.532 -0.4477 -0.0994 -0.0471
 4524TIP3    H134987   0.745   0.987   4.490  0.4439  0.8064  1.3704
 4524TIP3    H234988   0.774   0.842   4.459 -0.5122  1.0820 -1.0784
 4525TIP3   OH234989   0.123   1.204   5.454 -0.2901  0.0487  0.1270
 4525TIP3    H134990   0.195   1.154   5.416  0.8308  1.3498  0.4315
 4525TIP3    H234991   0.119   1.284   5.402 -1.0389  0.3094  0.5700
 4526TIP3   OH234992   3.929   0.353  14.698  0.4695 -0.2415 -0.0616
 4526TIP3    H134993   3.919   0.262  14.724 -1.3010 -0.2360 -0.5210
 4526TIP3    H234994   3.849   0.372  14.648  0.2677  1.8727  0.9591
 4527TIP3   OH234995   1.427   6.004  12.439 -0.6743 -0.4074 -0.0808
 4527TIP3    H134996   1.441   6.078  12.499 -1.0405 -0.5206  0.1451
 4527TIP3    H234997   1.494   5.940  12.464 -0.7805 -0.4255  0.1580
 4528TIP3   OH234998   2.965   2.465  11.850 -0.2570 -0.1769 -0.4520
 4528TIP3    H134999   2.944   2.373  11.835  2.0331 -0.8427  0.0307
 4528TIP3    H235000   2.976   2.472  11.945  0.9350  0.2543 -0.6062
 4529TIP3   OH235001   5.937   4.351   4.763  0.2025  0.0615  0.3012
 4529TIP3    H135002   5.909   4.287   4.698 -0.4765  0.1553  0.4910
 4529TIP3    H235003   5.856   4.382   4.802  0.5939  0.1734  1.0379
 4530TIP3   OH235004   6.334   0.723  14.074  0.0075  0.2206 -0.5934
 4530TIP3    H135005   6.316   0.748  13.983  0.8203  1.0546 -0.5524
 4530TIP3    H235006   6.309   0.800  14.125  0.7169  0.2292 -0.2470
 4531TIP3   OH235007   1.965   5.192   0.344  0.1741 -0.2332 -0.3986
 4531TIP3    H135008   2.044   5.213   0.294 -1.0310  2.0446 -1.4808
 4531TIP3    H235009   1.909   5.269   0.334 -1.7859 -1.3603  1.1851
 4532TIP3   OH235010   3.406   5.865  11.714  0.3598  0.0133 -0.3616
 4532TIP3    H135011   3.422   5.953  11.678  0.2862 -0.3637 -1.3586
 4532TIP3    H235012   3.442   5.806  11.648 -1.3433 -0.7608 -0.6329
 4533TIP3   OH235013   2.419   6.427   3.452  0.0948  0.0328 -0.0325
 4533TIP3    H135014   2.365   6.404   3.376  0.2904  2.1057 -0.8463
 4533TIP3    H235015   2.356   6.448   3.521 -0.0948 -0.3093 -0.0966
 4534TIP3   OH235016   1.124   4.882   5.897  0.3570 -0.0707 -0.0066
 4534TIP3    H135017   1.076   4.831   5.962 -0.0864  0.9318  0.4667
 4534TIP3    H235018   1.057   4.934   5.852  0.3954 -1.9425 -2.4448
 4535TIP3   OH235019   0.721   1.974   2.905 -0.5914  0.5353 -0.1268
 4535TIP3    H135020   0.678   1.926   2.834  0.0220  1.3252 -1.0748
 4535TIP3    H235021   0.660   1.970   2.978 -0.6560 -1.4769 -0.2333
 4536TIP3   OH235022   1.746   1.946  14.249  0.5420 -0.3123  0.4801
 4536TIP3    H135023   1.671   1.916  14.198  0.5780 -0.5576  0.5714
 4536TIP3    H235024   1.813   1.965  14.184  0.1137  0.7483  0.3310
 4537TIP3   OH235025   3.649   3.923   5.779 -0.3536 -0.1386  0.3721
 4537TIP3    H135026   3.616   3.945   5.865  0.1406 -1.2725  0.8767
 4537TIP3    H235027   3.573   3.927   5.722 -0.8469 -0.2102  1.0184
 4538TIP3   OH235028   2.727   3.569   2.239  0.0406 -0.8715  0.0561
 4538TIP3    H135029   2.639   3.563   2.276 -0.2406 -2.5876 -0.7799
 4538TIP3    H235030   2.757   3.657   2.262 -2.1776  0.0422 -0.2954
 4539TIP3   OH235031   5.788   4.215   4.109  0.1666 -0.9965  0.5147
 4539TIP3    H135032   5.819   4.304   4.124  0.6485 -1.3267  1.5495
 4539TIP3    H235033   5.750   4.188   4.193 -1.5146 -1.1762 -0.2507
 4540TIP3   OH235034   3.639   2.863  15.369 -0.4769 -0.1819  1.0683
 4540TIP3    H135035   3.672   2.773  15.370 -1.9339 -0.7893 -0.7987
 4540TIP3    H235036   3.560   2.860  15.424 -1.3738 -0.4327 -0.1996
 4541TIP3   OH235037   4.087   2.620  10.866  0.4784  0.7708  0.4145
 4541TIP3    H135038   4.067   2.684  10.798  0.0299  1.2022  0.9515
 4541TIP3    H235039   4.019   2.553  10.856 -0.5894  1.6540  1.4826
 4542TIP3   OH235040   5.027   0.438  17.242  0.5206 -0.1278 -0.6772
 4542TIP3    H135041   5.030   0.529  17.272 -2.0910 -0.4671  0.9544
 4542TIP3    H235042   5.038   0.386  17.321  1.4570 -1.2586 -1.5146
 4543TIP3   OH235043   2.295   0.073  13.609  0.2286 -0.1440  0.0929
 4543TIP3    H135044   2.380   0.055  13.648  0.4093  1.0615  0.2802
 4543TIP3    H235045   2.249  -0.011  13.611  0.3651 -0.2107  2.5670
 4544TIP3   OH235046   1.207   2.274  15.196  0.7944 -0.3249 -0.1362
 4544TIP3    H135047   1.283   2.233  15.157  1.1382  1.0566 -1.0000
 4544TIP3    H235048   1.141   2.205  15.201  1.5611 -1.1196 -0.9160
 4545TIP3   OH235049   5.419   6.003   0.707 -0.2559  0.1453 -0.3605
 4545TIP3    H135050   5.398   6.073   0.645 -1.7656 -0.2834 -0.3668
 4545TIP3    H235051   5.343   5.945   0.704  0.0272 -0.3501  1.2458
 4546TIP3   OH235052   2.240   3.385   2.546 -0.5942 -0.6737 -0.3359
 4546TIP3    H135053   2.287   3.450   2.493 -1.4173 -0.6959 -1.1152
 4546TIP3    H235054   2.222   3.313   2.485 -2.8175 -0.0846 -0.4436
 4547TIP3   OH235055   0.750   3.410   0.233 -0.0494 -0.2995  0.2569
 4547TIP3    H135056   0.790   3.406   0.146  0.4374 -1.0625  0.5098
 4547TIP3    H235057   0.819   3.381   0.293 -0.1675  0.8388  0.9761
 4548TIP3   OH235058   5.648   4.354  12.570  0.4623 -0.0127  0.1286
 4548TIP3    H135059   5.697   4.435  12.553 -0.3406  0.3412 -0.6175
 4548TIP3    H235060   5.639   4.351  12.665 -0.4213  1.3699  0.1232
 4549TIP3   OH235061   2.653   2.112   3.420 -0.0266 -0.6608 -0.1974
 4549TIP3    H135062   2.676   2.058   3.495  1.1737 -1.1321 -0.8836
 4549TIP3    H235063   2.708   2.080   3.349 -1.0244 -0.1251 -1.2522
 4550TIP3   OH235064   5.102   6.081   5.334  0.8270 -0.0488 -0.1490
 4550TIP3    H135065   5.128   6.082   5.426 -2.4107 -2.8254  1.0093
 4550TIP3    H235066   5.071   5.992   5.319 -0.7592  0.8946 -3.3155
 4551TIP3   OH235067   1.100   3.383   3.479  0.5624  0.0087  0.6850
 4551TIP3    H135068   1.009   3.358   3.462  0.3117  0.5555  1.1909
 4551TIP3    H235069   1.145   3.367   3.396 -0.0922  0.1520  0.2936
 4552TIP3   OH235070   0.003   4.497  16.905 -0.6436 -0.6358  0.1024
 4552TIP3    H135071  -0.086   4.532  16.918 -0.3182 -0.1779  1.1395
 4552TIP3    H235072  -0.007   4.402  16.912 -1.2012 -0.6494 -0.7298
 4553TIP3   OH235073   4.196   6.634  13.091 -0.2970 -0.5596 -0.4008
 4553TIP3    H135074   4.223   6.624  13.182 -0.6045  0.7495 -0.1336
 4553TIP3    H235075   4.152   6.552  13.070 -3.8665  0.4743  1.9558
 4554TIP3   OH235076   4.993   3.672  11.993  0.3842  0.2495  0.3021
 4554TIP3    H135077   4.981   3.761  12.026  1.8166 -0.0370  1.7520
 4554TIP3    H235078   4.917   3.624  12.025  0.0789  0.7273  0.3132
 4555TIP3   OH235079   0.947   4.760  12.187  0.4044 -0.1279 -0.0294
 4555TIP3    H135080   0.952   4.670  12.155  0.5639 -0.5735  1.2008
 4555TIP3    H235081   1.030   4.776  12.230 -0.2285  0.0409  1.1747
 4556TIP3   OH235082   1.855   4.146  16.012  0.2627 -0.0418  0.4843
 4556TIP3    H135083   1.875   4.210  15.944 -1.5827 -0.7444 -0.8003
 4556TIP3    H235084   1.941   4.114  16.041  1.1278  0.1118 -1.6983
 4557TIP3   OH235085   4.099   1.146   2.412  0.4099 -0.8693 -0.2163
 4557TIP3    H135086   4.091   1.091   2.333 -1.3107 -0.8701 -0.0765
 4557TIP3    H235087   4.043   1.221   2.394  1.4080  0.0296  0.3093
 4558TIP3   OH235088   2.473   1.295   0.113 -0.1546 -0.1427 -0.2702
 4558TIP3    H135089   2.417   1.368   0.089  1.2637  1.9310  2.3060
 4558TIP3    H235090   2.413   1.230   0.151 -1.0455  1.3692  1.0236
 4559TIP3   OH235091   3.458   6.339   6.422 -0.1571 -0.1407  0.0232
 4559TIP3    H135092   3.377   6.384   6.446  0.5892 -0.1569  2.8831
 4559TIP3    H235093   3.519   6.409   6.402 -0.7774 -0.1283 -2.1438
 4560TIP3   OH235094   6.081   1.595  13.777 -0.1888 -0.0765 -0.1336
 4560TIP3    H135095   6.034   1.637  13.705 -1.7963 -0.8371  0.4320
 4560TIP3    H235096   6.156   1.653  13.794  1.4761 -0.8521 -3.7172
 4561TIP3   OH235097   2.687   3.851  11.443 -0.0585  0.5650  0.1577
 4561TIP3    H135098   2.699   3.790  11.370 -0.0560 -0.2474  0.8208
 4561TIP3    H235099   2.639   3.924  11.405  1.6201  1.0713 -1.1090
 4562TIP3   OH235100   2.762   4.438  12.494 -0.4425  0.2126  0.3596
 4562TIP3    H135101   2.823   4.424  12.566  0.0879 -1.1453 -0.3135
 4562TIP3    H235102   2.810   4.493  12.432 -1.0192  1.6602  1.1618
 4563TIP3   OH235103   1.506   5.664  12.527 -0.2310 -0.0571  0.1233
 4563TIP3    H135104   1.536   5.703  12.445 -0.3348  0.2099  0.2127
 4563TIP3    H235105   1.582   5.615  12.559 -0.1977 -0.1810 -0.1443
 4564TIP3   OH235106   4.087   5.159  11.522 -0.0648  0.2833 -0.0738
 4564TIP3    H135107   4.053   5.136  11.435  0.0423 -1.1667  0.2301
 4564TIP3    H235108   4.152   5.227  11.505  2.0355 -1.9106 -1.5272
 4565TIP3   OH235109   3.823   4.935   0.107 -0.7258 -0.0228 -0.0750
 4565TIP3    H135110   3.887   5.004   0.125  1.0264 -1.7225  0.5766
 4565TIP3    H235111   3.856   4.890   0.030 -2.9144  0.9938 -1.7308
 4566TIP3   OH235112   6.177   1.340   2.103 -0.4287  0.0303  0.0527
 4566TIP3    H135113   6.162   1.361   2.011  0.4337 -1.0109 -0.3387
 4566TIP3    H235114   6.089   1.342   2.142 -0.8384  0.2024 -0.8465
 4567TIP3   OH235115   1.226   2.214   3.255 -1.1712  0.3439 -0.4033
 4567TIP3    H135116   1.266   2.299   3.271 -2.3580  0.6282  1.3330
 4567TIP3    H235117   1.154   2.233   3.194  0.2923  0.0617 -2.3338
 4568TIP3   OH235118   2.910   1.538  15.176  0.0833  0.2905 -0.0835
 4568TIP3    H135119   2.963   1.506  15.249  1.1100 -1.3883 -1.4774
 4568TIP3    H235120   2.971   1.587  15.121 -0.1810 -0.1933 -0.8321
 4569TIP3   OH235121   3.341   5.179   5.455 -0.5117 -0.2781  0.2483
 4569TIP3    H135122   3.378   5.253   5.503  0.2003 -1.5462  1.7057
 4569TIP3    H235123   3.319   5.114   5.522 -3.1082 -0.6008 -0.7864
 4570TIP3   OH235124   3.484   6.419  16.241  0.1986  0.2223 -0.3504
 4570TIP3    H135125   3.557   6.357  16.243  0.2511  0.1941 -1.8820
 4570TIP3    H235126   3.478   6.446  16.149 -0.0010  2.2852  0.2150
 4571TIP3   OH235127   2.774   0.718   1.999 -0.4582 -0.2824  0.2418
 4571TIP3    H135128   2.820   0.644   2.039 -0.7486 -0.2955  0.5572
 4571TIP3    H235129   2.699   0.679   1.954 -1.3577 -0.0676  1.5092
 4572TIP3   OH235130   4.716   2.146   0.519  0.3953 -0.1116  0.2145
 4572TIP3    H135131   4.625   2.175   0.510  0.7024  0.4989 -1.1136
 4572TIP3    H235132   4.736   2.102   0.436  1.6422  0.7604  0.0195
 4573TIP3   OH235133   6.201   4.404  16.813  0.0775  0.1758  0.0354
 4573TIP3    H135134   6.226   4.328  16.866  0.4594  1.3680  1.6519
 4573TIP3    H235135   6.264   4.405  16.741  1.2561 -0.0095  1.0254
 4574TIP3   OH235136   4.411   0.067   2.294 -0.3060  0.4613 -0.4534
 4574TIP3    H135137   4.385   0.029   2.378 -0.0038 -1.9062 -1.3332
 4574TIP3    H235138   4.493   0.112   2.312  0.0342 -0.4739  0.4459
 4575TIP3   OH235139   5.108   2.397   3.959 -0.0383 -0.2827  0.1010
 4575TIP3    H135140   5.064   2.359   3.883 -2.2763 -0.2344  1.3230
 4575TIP3    H235141   5.195   2.420   3.926 -1.5673  1.6678 -3.0654
 4576TIP3   OH235142   6.746   3.614   4.751  0.1234  0.0066 -0.3635
 4576TIP3    H135143   6.828   3.591   4.795  0.4492 -0.3293 -1.1335
 4576TIP3    H235144   6.709   3.530   4.724  1.5411  0.2806 -3.6011
 4577TIP3   OH235145   5.538   0.250  15.289  0.3454 -0.4460 -0.1403
 4577TIP3    H135146   5.473   0.259  15.358  0.8341  0.7458  0.1898
 4577TIP3    H235147   5.554   0.340  15.260 -0.9369 -1.0042 -2.8508
 4578TIP3   OH235148   1.060   2.384   6.348  0.2788 -0.4751  0.3696
 4578TIP3    H135149   1.110   2.342   6.278  1.2051  0.5549  0.3917
 4578TIP3    H235150   1.104   2.357   6.428 -0.4959 -1.2632  0.5520
 4579TIP3   OH235151   0.969   1.426   2.841 -0.6492  0.0087 -0.3253
 4579TIP3    H135152   1.027   1.444   2.915 -0.4924 -0.4612 -0.3289
 4579TIP3    H235153   0.967   1.508   2.791 -2.1823  0.9301  1.1498
 4580TIP3   OH235154   3.870   1.249   1.972 -0.5529 -0.5130 -0.1092
 4580TIP3    H135155   3.943   1.302   2.003 -0.6041 -0.3617 -0.2449
 4580TIP3    H235156   3.835   1.298   1.897  0.3058 -1.4518 -1.1560
 4581TIP3   OH235157   3.249   3.670   1.593 -0.3513  0.4084  0.0719
 4581TIP3    H135158   3.308   3.726   1.645 -0.2542  0.4024 -0.0322
 4581TIP3    H235159   3.168   3.668   1.644 -0.0082 -0.2211  0.6123
 4582TIP3   OH235160   3.110   5.858  14.142 -1.0400  0.0239  0.2318
 4582TIP3    H135161   3.151   5.800  14.206 -1.8955 -1.3056 -0.3826
 4582TIP3    H235162   3.173   5.864  14.070 -1.0791 -0.4176  0.1586
 4583TIP3   OH235163   5.452   3.004   5.165 -0.7679  0.8438  0.4733
 4583TIP3    H135164   5.369   3.029   5.123 -1.3493 -1.1406  0.3083
 4583TIP3    H235165   5.471   3.075   5.226 -2.4568  1.4808  0.3074
 4584TIP3   OH235166   0.225   1.501  15.005  0.0525 -0.1602  0.5226
 4584TIP3    H135167   0.191   1.590  14.997 -1.3209 -0.7485 -0.7244
 4584TIP3    H235168   0.257   1.480  14.917  0.9620 -0.6886  0.9656
 4585TIP3   OH235169   5.760   6.721  12.891 -0.3401  0.4230 -0.1408
 4585TIP3    H135170   5.690   6.754  12.834 -1.7593 -1.2938  0.4934
 4585TIP3    H235171   5.752   6.773  12.972 -1.8227 -0.6297  0.4354
 4586TIP3   OH235172   1.307   4.204   5.761  0.1945 -0.1656  1.0605
 4586TIP3    H135173   1.356   4.284   5.742 -3.3881  2.2853  1.1971
 4586TIP3    H235174   1.325   4.186   5.853  0.7083  0.7817  1.1630
 4587TIP3   OH235175   4.843   0.340  13.988  0.0238  0.1800  0.1302
 4587TIP3    H135176   4.853   0.428  13.952 -0.8754  0.5188  0.6946
 4587TIP3    H235177   4.822   0.353  14.080 -0.1713 -0.6263  0.2120
 4588TIP3   OH235178   5.060   0.287  12.442 -0.8319  0.5174 -0.3965
 4588TIP3    H135179   4.994   0.349  12.473 -0.3800  1.0808 -0.5295
 4588TIP3    H235180   5.079   0.317  12.353  0.4641  1.1043  0.0578
 4589TIP3   OH235181   0.583   0.253   6.242  0.1499  0.3696 -0.2732
 4589TIP3    H135182   0.571   0.163   6.214 -0.4526  0.7196 -1.1866
 4589TIP3    H235183   0.494   0.289   6.244  0.2964  0.7084  0.9186
 4590TIP3   OH235184   4.156   5.945   5.680 -0.4416  0.7381 -0.2927
 4590TIP3    H135185   4.095   5.969   5.750 -0.2663  1.7776 -0.4745
 4590TIP3    H235186   4.179   5.854   5.698  0.5527  1.3345  1.7007
 4591TIP3   OH235187   4.367   2.320  14.715 -0.2480  0.2419 -0.2847
 4591TIP3    H135188   4.328   2.408  14.716 -0.4052  0.2009 -1.2442
 4591TIP3    H235189   4.461   2.336  14.705  0.0635  0.3476  2.2958
 4592TIP3   OH235190   2.297   4.522   4.464 -0.4529  0.5675 -0.0577
 4592TIP3    H135191   2.223   4.530   4.405 -0.3258 -0.9733 -0.4685
 4592TIP3    H235192   2.271   4.454   4.526  0.9643 -0.6842 -0.7899
 4593TIP3   OH235193   4.237   4.859   1.736 -1.2021  0.0996 -0.1615
 4593TIP3    H135194   4.155   4.877   1.781 -0.8272  1.6860 -0.0612
 4593TIP3    H235195   4.297   4.831   1.806 -1.3842 -0.1336 -0.0970
 4594TIP3   OH235196   6.149   2.467  15.313 -0.6036  0.5505 -0.2931
 4594TIP3    H135197   6.222   2.430  15.263 -1.1822  0.5389 -1.1588
 4594TIP3    H235198   6.187   2.491  15.397  0.1713 -0.3771 -0.3646
 4595TIP3   OH235199   6.745   3.187   3.162 -0.6188  0.0543 -0.7744
 4595TIP3    H135200   6.654   3.210   3.184 -0.9987 -1.8312 -0.1468
 4595TIP3    H235201   6.756   3.099   3.199  1.7700  0.6009 -0.0455
 4596TIP3   OH235202   6.484   1.335   5.582 -0.0899 -0.7373 -0.5676
 4596TIP3    H135203   6.408   1.387   5.608 -0.1338 -1.1093  0.0878
 4596TIP3    H235204   6.447   1.249   5.559  0.2140 -1.2716  0.8049
 4597TIP3   OH235205   3.773   1.174  13.290  0.0615  0.2787  0.4023
 4597TIP3    H135206   3.831   1.218  13.227  0.5743 -0.2323  0.5090
 4597TIP3    H235207   3.833   1.136  13.355 -0.4300  0.2817  0.8644
 4598TIP3   OH235208   0.519   6.776   5.179 -0.3726  0.0667 -0.4351
 4598TIP3    H135209   0.430   6.767   5.146 -1.2354  0.1079  1.7261
 4598TIP3    H235210   0.528   6.706   5.244  1.6454 -0.7370 -1.4830
 4599TIP3   OH235211   0.741   0.098  12.785  0.7661 -0.6032 -0.3499
 4599TIP3    H135212   0.715   0.012  12.752  0.0092 -1.3344  1.9544
 4599TIP3    H235213   0.712   0.159  12.718 -0.0531 -2.0267 -1.3524
 4600TIP3   OH235214   5.584   5.326   3.168 -0.4619  0.2737 -0.5663
 4600TIP3    H135215   5.516   5.378   3.209 -1.4216  0.7421 -2.6254
 4600TIP3    H235216   5.626   5.385   3.106  0.6640 -0.5130 -0.6022
 4601TIP3   OH235217   3.233   3.745   3.716 -0.2771  0.0014 -0.0401
 4601TIP3    H135218   3.139   3.732   3.728 -0.5607  0.1220 -1.9230
 4601TIP3    H235219   3.269   3.656   3.711 -0.0116 -0.0898  2.1935
 4602TIP3   OH235220   3.200   5.165  10.243 -0.0556 -0.4721  0.1387
 4602TIP3    H135221   3.120   5.113  10.251  0.2524 -1.1164 -0.8583
 4602TIP3    H235222   3.229   5.177  10.334  0.7562 -3.4609  0.3714
 4603TIP3   OH235223   0.690   3.626   5.844 -0.3056  0.1691  0.6906
 4603TIP3    H135224   0.783   3.621   5.825 -0.5423 -0.3433 -0.4686
 4603TIP3    H235225   0.658   3.696   5.788 -0.7162 -0.0726  0.6175
 4604TIP3   OH235226   4.336   1.889   3.432  0.5892 -0.5336 -0.1439
 4604TIP3    H135227   4.405   1.827   3.455  0.0131 -0.5233  1.7923
 4604TIP3    H235228   4.352   1.964   3.489 -0.4939 -0.1686 -0.3017
 4605TIP3   OH235229   1.040   1.324  11.778  0.2509 -0.5346  0.0480
 4605TIP3    H135230   0.945   1.308  11.771  0.3134 -0.7239 -0.4454
 4605TIP3    H235231   1.078   1.236  11.781  0.5401 -0.5079 -1.7370
 4606TIP3   OH235232   4.807   1.534  15.579 -0.4503  0.8645  0.1314
 4606TIP3    H135233   4.826   1.481  15.657  0.5527 -1.0429 -1.3171
 4606TIP3    H235234   4.748   1.479  15.527 -0.4835  1.7634 -0.8100
 4607TIP3   OH235235   6.765   0.778  11.893 -0.4579 -0.2491  0.7638
 4607TIP3    H135236   6.749   0.784  11.987  1.4973  0.5503  1.0964
 4607TIP3    H235237   6.824   0.851  11.874 -1.3321  0.0059 -1.2234
 4608TIP3   OH235238   1.596   6.738   1.895  0.2619 -0.1160 -0.0280
 4608TIP3    H135239   1.585   6.832   1.908  0.8288 -0.0968  0.3367
 4608TIP3    H235240   1.507   6.705   1.883  0.1269  0.6271 -1.3568
 4609TIP3   OH235241   1.070   0.693   1.337 -0.4527 -0.1382 -0.2524
 4609TIP3    H135242   1.136   0.757   1.311 -0.5692  0.5696  1.1010
 4609TIP3    H235243   1.038   0.725   1.422 -2.5269 -0.4423 -0.8536
 4610TIP3   OH235244   0.690   3.056  14.080 -0.1560 -0.2814 -0.4414
 4610TIP3    H135245   0.616   3.062  14.019 -1.1923 -1.4501  0.6351
 4610TIP3    H235246   0.649   3.052  14.167  1.2564  0.6310  0.2944
 4611TIP3   OH235247   5.862   2.939  12.971 -0.2371  0.4520  0.0357
 4611TIP3    H135248   5.950   2.904  12.955  0.3614  1.2589  1.3560
 4611TIP3    H235249   5.871   3.033  12.960 -0.8612  0.5726  0.4977
 4612TIP3   OH235250   1.727   3.901  15.970 -0.2389  0.1440  0.3245
 4612TIP3    H135251   1.760   3.987  15.944 -0.9060  0.2988 -0.0292
 4612TIP3    H235252   1.761   3.889  16.059 -0.5300  0.9827  0.5630
 4613TIP3   OH235253   5.425   4.438   1.989  0.4550 -0.0250 -0.4314
 4613TIP3    H135254   5.521   4.431   1.991  0.5582  1.3139  0.0369
 4613TIP3    H235255   5.405   4.467   1.900  0.6244  1.2466 -0.0749
 4614TIP3   OH235256   4.923   0.376  11.391  0.1831  0.3035  0.6578
 4614TIP3    H135257   5.004   0.410  11.428  0.6903 -1.0739  0.8609
 4614TIP3    H235258   4.906   0.432  11.315  1.6815  0.2208  0.2297
 4615TIP3   OH235259   5.941   3.105  16.324 -0.1581  0.0912 -0.0778
 4615TIP3    H135260   5.986   3.059  16.395  0.6902 -0.1497 -0.7409
 4615TIP3    H235261   5.849   3.085  16.336 -0.1229  0.7256  1.4263
 4616TIP3   OH235262   3.438   5.793  14.548 -0.0632 -0.1339 -0.5912
 4616TIP3    H135263   3.448   5.739  14.470  0.9272 -0.3807 -0.3130
 4616TIP3    H235264   3.463   5.881  14.520  0.6949 -0.3014 -0.4656
 4617TIP3   OH235265   4.317   2.830   5.341 -0.0310  0.4285 -0.0275
 4617TIP3    H135266   4.406   2.857   5.319 -0.5710  1.5658 -0.9404
 4617TIP3    H235267   4.274   2.820   5.256 -0.5113 -1.0839  0.3746
 4618TIP3   OH235268   1.152   3.037  11.480  0.4712  0.8183 -0.2576
 4618TIP3    H135269   1.092   3.107  11.451  0.5801  1.5338  1.1565
 4618TIP3    H235270   1.126   2.961  11.428 -0.6036  1.5311 -0.8268
 4619TIP3   OH235271   5.248   4.359  17.147 -0.1559 -0.0506  0.9536
 4619TIP3    H135272   5.333   4.377  17.187  1.3531  0.6974 -2.2200
 4619TIP3    H235273   5.185   4.397  17.207  2.0757  3.6773  1.2926
 4620TIP3   OH235274   1.418   2.098  15.162  0.1826  0.3979  0.1831
 4620TIP3    H135275   1.463   2.182  15.179  2.7032 -0.9291  0.5947
 4620TIP3    H235276   1.399   2.100  15.069  1.3083  0.9785 -0.0600
 4621TIP3   OH235277   4.827   1.742  13.112  0.3197  0.3506 -0.6050
 4621TIP3    H135278   4.785   1.816  13.069  2.2736  1.3217 -0.9499
 4621TIP3    H235279   4.895   1.714  13.051 -0.6169 -2.0454 -0.6738
 4622TIP3   OH235280   3.097   4.420  16.206  0.0420 -0.0843  0.2542
 4622TIP3    H135281   3.161   4.472  16.255 -1.0263  0.9515  0.6083
 4622TIP3    H235282   3.120   4.434  16.114 -0.5021  1.4207  0.3262
 4623TIP3   OH235283   3.816   4.808  12.652 -0.2041  0.1851  0.3990
 4623TIP3    H135284   3.775   4.730  12.690 -0.6747  0.6946  0.9507
 4623TIP3    H235285   3.763   4.881  12.685  0.9237  0.8307  0.8280
 4624TIP3   OH235286   2.741   1.139   0.185  0.3545  0.1753  0.5741
 4624TIP3    H135287   2.753   1.179   0.271 -1.2732  1.3377  0.3214
 4624TIP3    H235288   2.658   1.176   0.153  0.9609 -0.1616 -1.5302
 4625TIP3   OH235289   0.512   5.062  13.897  0.2272  0.3767 -0.0015
 4625TIP3    H135290   0.444   4.995  13.902  0.9177 -0.3922 -0.6611
 4625TIP3    H235291   0.544   5.070  13.987 -0.8675  0.9033  0.3545
 4626TIP3   OH235292   0.024   3.028   4.949 -0.4295 -0.1160  0.4143
 4626TIP3    H135293   0.004   3.014   5.042 -0.2273 -0.6698  0.3786
 4626TIP3    H235294  -0.040   3.094   4.921 -0.7856 -0.2718  0.8350
 4627TIP3   OH235295   5.440   4.251   3.042  0.4724 -0.6820 -0.3546
 4627TIP3    H135296   5.498   4.277   2.971  0.4556 -0.0402 -0.1408
 4627TIP3    H235297   5.483   4.284   3.121 -0.7457  0.8763 -0.2819
 4628TIP3   OH235298   5.038   2.095   3.773  0.5593 -0.6754 -0.8425
 4628TIP3    H135299   4.960   2.146   3.751 -0.2746 -1.2337  0.6745
 4628TIP3    H235300   5.015   2.005   3.751  0.2039 -1.0530  0.8982
 4629TIP3   OH235301   4.916   4.185   1.248 -0.3930  0.0067  0.2176
 4629TIP3    H135302   4.935   4.273   1.279  0.9951  0.1808 -1.0501
 4629TIP3    H235303   4.827   4.191   1.214 -0.8833  0.5091  1.5020
 4630TIP3   OH235304   1.890   3.837  13.962 -0.2064 -0.3174 -0.5869
 4630TIP3    H135305   1.801   3.873  13.959 -0.0960  0.0557  0.3831
 4630TIP3    H235306   1.944   3.905  13.922 -0.4887 -1.0292 -2.2564
 4631TIP3   OH235307   4.516   3.399  11.759  0.6206  0.4650 -0.5275
 4631TIP3    H135308   4.607   3.395  11.790  0.0397  0.7028  1.3297
 4631TIP3    H235309   4.492   3.307  11.744  1.4497  0.4626 -2.0000
 4632TIP3   OH235310   3.124   0.404  11.122 -0.2314 -0.1536  0.2969
 4632TIP3    H135311   3.186   0.457  11.071  2.7724 -0.6203  3.1315
 4632TIP3    H235312   3.087   0.466  11.185 -1.1447 -0.2895 -0.1029
 4633TIP3   OH235313   5.362   6.240  16.105  0.0558 -0.3239 -0.0910
 4633TIP3    H135314   5.365   6.190  16.024 -0.8614  0.3208 -0.5361
 4633TIP3    H235315   5.292   6.304  16.092  0.2614  0.1539  0.9973
 4634TIP3   OH235316   0.577   6.028  13.417  0.5353 -0.1481  0.5855
 4634TIP3    H135317   0.571   6.105  13.359 -1.3173 -0.4517  0.3002
 4634TIP3    H235318   0.486   6.009  13.439  1.0276 -1.8251  1.2538
 4635TIP3   OH235319   1.407   1.425  13.834  0.9940 -0.6489  0.1746
 4635TIP3    H135320   1.438   1.352  13.887  0.9620 -0.6469  0.1961
 4635TIP3    H235321   1.313   1.429  13.852  1.2902  0.5818  1.6254
 4636TIP3   OH235322   1.581   3.952  13.326 -0.4053  0.0951 -0.3287
 4636TIP3    H135323   1.493   3.987  13.339  0.2253  1.6280  0.0171
 4636TIP3    H235324   1.636   4.004  13.385  0.7218 -0.9050 -0.4645
 4637TIP3   OH235325   0.898   3.293   2.773  0.2574 -1.0517 -0.1812
 4637TIP3    H135326   0.866   3.365   2.718 -0.3630 -0.0733  1.3733
 4637TIP3    H235327   0.854   3.215   2.739  1.4048 -0.8457 -2.2895
 4638TIP3   OH235328   5.104   1.750   1.044 -0.1216  0.1502 -0.4913
 4638TIP3    H135329   5.037   1.695   1.084  0.3935 -0.3212 -0.2736
 4638TIP3    H235330   5.056   1.800   0.977 -0.7690  0.1278 -0.0562
 4639TIP3   OH235331   4.580   3.058  12.442 -0.3083  0.6055 -0.1453
 4639TIP3    H135332   4.665   3.028  12.472 -0.5341  2.5509  2.9027
 4639TIP3    H235333   4.592   3.151  12.423 -1.3933  0.5305 -1.3913
 4640TIP3   OH235334   6.121   3.021   1.693  0.3121 -0.0816 -0.0379
 4640TIP3    H135335   6.145   3.094   1.636  2.1482 -0.7933 -0.2454
 4640TIP3    H235336   6.060   2.969   1.641 -1.0609  1.2779  0.1310
 4641TIP3   OH235337   3.063   2.415   2.857 -0.2729  0.2802  0.1376
 4641TIP3    H135338   3.092   2.351   2.922  0.0961 -1.5436 -1.6860
 4641TIP3    H235339   3.084   2.374   2.773  0.8568  3.2400 -1.1604
 4642TIP3   OH235340   0.779   2.616  15.435  0.1267 -0.1339 -0.1605
 4642TIP3    H135341   0.740   2.685  15.381 -1.0842 -1.1491 -0.6513
 4642TIP3    H235342   0.718   2.606  15.508  0.5399 -0.3520  0.1551
 4643TIP3   OH235343   4.078   4.715  15.540 -0.5191  0.2461 -0.6361
 4643TIP3    H135344   4.045   4.677  15.622 -1.1821  0.2344 -0.9010
 4643TIP3    H235345   4.169   4.739  15.560  0.1877 -2.1148 -0.6700
 4644TIP3   OH235346   0.207   1.091  16.822 -0.9577 -0.1962  0.5782
 4644TIP3    H135347   0.234   1.157  16.757  0.2370 -0.4809  0.7508
 4644TIP3    H235348   0.287   1.074  16.873 -1.2345 -1.7788  0.5373
 4645TIP3   OH235349   0.260   3.535   1.588  0.8945 -0.1675  0.1954
 4645TIP3    H135350   0.191   3.471   1.574 -1.4667  1.8720  1.6255
 4645TIP3    H235351   0.296   3.551   1.501 -1.4410 -0.3070 -0.8828
 4646TIP3   OH235352   4.281   1.967  16.766 -0.0703 -0.1337  0.7038
 4646TIP3    H135353   4.343   2.039  16.774  1.4302 -1.4894  1.9854
 4646TIP3    H235354   4.205   2.005  16.722  0.3188  2.4039  2.0944
 4647TIP3   OH235355   5.527   4.655  13.006  0.2803 -0.3841 -0.4584
 4647TIP3    H135356   5.510   4.678  12.914 -0.5110  0.1575 -0.1861
 4647TIP3    H235357   5.610   4.699  13.026  0.0989  0.0790 -0.7095
 4648TIP3   OH235358   3.826   2.209  16.788  0.0113 -0.3109  0.0637
 4648TIP3    H135359   3.916   2.241  16.791 -1.0867  2.9805  0.9649
 4648TIP3    H235360   3.781   2.268  16.728 -2.1323 -0.1814  1.6731
 4649TIP3   OH235361   2.859   6.456  11.862 -0.0825 -0.2022 -0.2539
 4649TIP3    H135362   2.912   6.401  11.919  0.0265 -0.6155 -0.7425
 4649TIP3    H235363   2.910   6.536  11.850 -0.2865  0.0510  0.5401
 4650TIP3   OH235364   1.870   2.720  13.780 -0.0534  0.0158  0.0223
 4650TIP3    H135365   1.914   2.778  13.843  0.3597  1.1484 -1.2694
 4650TIP3    H235366   1.941   2.684  13.727 -0.3437 -1.4213  0.5446
 4651TIP3   OH235367   6.493   2.240   2.322  0.1586  0.1739  0.7508
 4651TIP3    H135368   6.542   2.302   2.269  0.2059  0.1916  0.8150
 4651TIP3    H235369   6.546   2.161   2.323  0.4121  0.3480  1.2055
 4652TIP3   OH235370   1.041   6.476   5.168 -0.3502 -0.5842 -0.5822
 4652TIP3    H135371   1.009   6.387   5.158  1.9094 -1.9471  2.7252
 4652TIP3    H235372   0.966   6.526   5.200 -0.4998 -2.5870  2.5659
 4653TIP3   OH235373   6.342   0.246  15.971  0.3268  0.0638  0.4348
 4653TIP3    H135374   6.427   0.207  15.953  0.2301  0.9730 -2.6797
 4653TIP3    H235375   6.356   0.300  16.049  2.9785  1.0793 -0.6151
 4654TIP3   OH235376   4.150   0.942  15.690  0.1528 -0.4209  0.0708
 4654TIP3    H135377   4.180   0.873  15.631  0.2226  0.5024 -1.0016
 4654TIP3    H235378   4.157   1.022  15.639 -0.7732  0.2740  0.9950
 4655TIP3   OH235379   4.584   1.576   4.053  0.5250 -0.2733 -0.0640
 4655TIP3    H135380   4.668   1.615   4.077  0.3563 -0.1334  0.3107
 4655TIP3    H235381   4.601   1.482   4.049  0.1433 -0.5139  2.4865
 4656TIP3   OH235382   6.743   6.265  13.018 -0.2116 -0.9565  0.2531
 4656TIP3    H135383   6.823   6.247  12.968 -0.0817 -0.7489  0.3828
 4656TIP3    H235384   6.672   6.244  12.958 -0.1942  3.4427 -1.7454
 4657TIP3   OH235385   2.276   3.719   4.417  0.1189 -0.0232  0.2494
 4657TIP3    H135386   2.246   3.666   4.342  0.7476  1.2689 -0.9563
 4657TIP3    H235387   2.227   3.684   4.491  0.0618 -1.8882 -0.5985
 4658TIP3   OH235388   2.667   4.172  16.704  0.9022 -0.3680  0.2304
 4658TIP3    H135389   2.748   4.211  16.671 -0.3579  1.1349 -1.2883
 4658TIP3    H235390   2.637   4.232  16.772  1.3099 -1.2239  1.1979
 4659TIP3   OH235391   2.143   5.223   0.948 -0.0155  0.0041  0.3700
 4659TIP3    H135392   2.149   5.154   1.014  1.9463  1.5689  1.9514
 4659TIP3    H235393   2.192   5.188   0.873 -0.4818 -0.9513  0.4898
 4660TIP3   OH235394   3.777   6.398  16.018  1.1350 -0.4115  0.5657
 4660TIP3    H135395   3.731   6.476  15.985 -0.0019 -1.4328 -0.3251
 4660TIP3    H235396   3.848   6.384  15.954  0.0446 -1.3187 -0.4912
 4661TIP3   OH235397   6.503   3.407  12.426  0.5347 -0.7805 -0.0699
 4661TIP3    H135398   6.490   3.322  12.467  1.0630 -0.6637  0.3570
 4661TIP3    H235399   6.481   3.471  12.494  0.0120 -0.5738 -0.4307
 4662TIP3   OH235400   3.687   3.355  11.882  0.4980  0.1846  0.7715
 4662TIP3    H135401   3.739   3.425  11.843 -0.7078 -0.3185 -1.9171
 4662TIP3    H235402   3.598   3.392  11.888  0.0334 -0.7880  0.1202
 4663TIP3   OH235403   1.953   5.006   4.090 -0.6106 -0.6086 -0.2409
 4663TIP3    H135404   1.970   4.995   4.184  0.8583  1.6950 -0.1549
 4663TIP3    H235405   1.938   5.100   4.079  1.3813 -0.4656 -2.5743
 4664TIP3   OH235406   0.828   2.722  12.690 -0.3253 -0.0875  0.1176
 4664TIP3    H135407   0.915   2.718  12.729 -0.6502 -1.2080  0.7618
 4664TIP3    H235408   0.816   2.636  12.650 -1.5869 -0.3581  1.0300
 4665TIP3   OH235409   2.858   4.951   3.524 -0.2851 -0.8913  0.6731
 4665TIP3    H135410   2.771   4.944   3.565 -0.6535  1.3794  0.4492
 4665TIP3    H235411   2.873   4.866   3.484 -2.0103 -1.6395  1.5039
 4666TIP3   OH235412   2.866   1.682   5.641 -0.2992  0.0463 -0.2600
 4666TIP3    H135413   2.876   1.588   5.630 -1.6365 -0.2922  1.0619
 4666TIP3    H235414   2.898   1.720   5.559 -1.0035 -1.6349 -1.3714
 4667TIP3   OH235415   5.145   1.119   0.523 -0.6018 -0.0895 -0.5561
 4667TIP3    H135416   5.141   1.138   0.429  3.2580  0.0762 -0.8599
 4667TIP3    H235417   5.208   1.183   0.557 -1.7831 -0.2463  2.1749
 4668TIP3   OH235418   4.736   2.643   0.145 -0.1888 -0.0993 -0.0300
 4668TIP3    H135419   4.779   2.704   0.085 -1.8247 -0.5142 -1.7093
 4668TIP3    H235420   4.788   2.563   0.140 -0.4983 -0.2483 -1.2217
 4669TIP3   OH235421   4.749   0.605   0.094  0.1055 -0.2264  0.2102
 4669TIP3    H135422   4.818   0.671   0.101  0.5379 -0.7467  1.1706
 4669TIP3    H235423   4.749   0.578   0.002  0.5763  0.4125  0.0201
 4670TIP3   OH235424   0.329   4.632  11.898 -1.1550  0.1062 -0.2845
 4670TIP3    H135425   0.319   4.727  11.888  1.0446  0.5958  1.2246
 4670TIP3    H235426   0.417   4.614  11.863 -1.1500 -1.2020  0.3350
 4671TIP3   OH235427   1.539   4.383  14.097  0.3515  0.0390  0.4709
 4671TIP3    H135428   1.491   4.345  14.024 -2.0216 -0.7957  2.3343
 4671TIP3    H235429   1.522   4.477  14.091 -0.0558 -0.0545  0.1125
 4672TIP3   OH235430   4.442   0.602   0.081  0.0201 -0.0883 -0.2193
 4672TIP3    H135431   4.528   0.562   0.097 -0.1075 -0.6877 -1.0006
 4672TIP3    H235432   4.434   0.605  -0.014  0.5722  3.0363 -0.2750
 4673TIP3   OH235433   6.152   6.566  16.425  0.0913 -0.7326  0.2700
 4673TIP3    H135434   6.077   6.546  16.369  0.0168  0.0626  0.0731
 4673TIP3    H235435   6.114   6.587  16.510  0.1520 -1.1645  0.4053
 4674TIP3   OH235436   2.991   5.222  12.329 -0.2960  0.1806 -0.5875
 4674TIP3    H135437   3.083   5.248  12.318 -0.5019  0.5594 -1.4660
 4674TIP3    H235438   2.995   5.145  12.386  0.4211  1.3520  1.0514
 4675TIP3   OH235439   0.851   6.423  12.868  0.0260 -0.0818  0.4381
 4675TIP3    H135440   0.878   6.359  12.802 -0.4290  0.1886 -0.0154
 4675TIP3    H235441   0.816   6.371  12.939 -2.0789 -0.3067 -0.6898
 4676TIP3   OH235442   4.088   5.567  11.472 -0.2538  0.5233 -0.4833
 4676TIP3    H135443   4.021   5.543  11.409 -1.0760 -1.9190  1.1604
 4676TIP3    H235444   4.166   5.519  11.443 -0.5232 -0.2890  0.1148
 4677TIP3   OH235445   4.956   6.742   2.322 -0.0885  0.5474  0.2207
 4677TIP3    H135446   4.941   6.809   2.388 -0.0462  0.9962 -0.2139
 4677TIP3    H235447   4.977   6.792   2.242 -0.4662  0.0313 -0.2086
 4678TIP3   OH235448   3.210   5.142  15.774  0.5121 -0.1764  0.5232
 4678TIP3    H135449   3.245   5.139  15.685  0.7374 -1.1540  0.6323
 4678TIP3    H235450   3.288   5.143  15.830  0.3656 -0.8922  0.7403
 4679TIP3   OH235451   2.679   4.274  12.083  0.4647 -0.5165  0.1431
 4679TIP3    H135452   2.646   4.187  12.064 -1.9630  1.0492 -3.8622
 4679TIP3    H235453   2.603   4.322  12.116  0.3182  1.3408 -2.6271
 4680TIP3   OH235454   3.842   3.184   5.815 -0.4221  0.4273 -0.7087
 4680TIP3    H135455   3.878   3.152   5.898  0.1617 -1.2691 -1.5630
 4680TIP3    H235456   3.907   3.158   5.749 -1.4563  0.6301 -1.8476
 4681TIP3   OH235457   3.202   6.339  11.841  0.0548 -0.2991 -0.1186
 4681TIP3    H135458   3.200   6.354  11.746 -0.4493  1.7500  0.1574
 4681TIP3    H235459   3.281   6.287  11.856 -0.1545 -1.1342 -1.7029
 4682TIP3   OH235460   0.131   4.742  15.907 -0.4264 -0.0480 -0.0083
 4682TIP3    H135461   0.201   4.693  15.949  0.9215 -0.9705 -3.0205
 4682TIP3    H235462   0.057   4.682  15.905 -1.1749  0.6543  2.4788
 4683TIP3   OH235463   4.165   4.635   2.505  0.3438 -0.4215  0.3950
 4683TIP3    H135464   4.194   4.727   2.501 -1.3637  0.1932  1.0731
 4683TIP3    H235465   4.187   4.600   2.419  1.4536  0.4894  0.2842
 4684TIP3   OH235466   4.387   4.941  15.411  0.2785 -0.0062  0.3469
 4684TIP3    H135467   4.330   4.975  15.342  0.2592 -0.0317  0.3503
 4684TIP3    H235468   4.331   4.881  15.461  0.9188 -1.8790 -1.0483
 4685TIP3   OH235469   6.041   1.819  15.927 -0.3720  0.4199 -0.0376
 4685TIP3    H135470   5.953   1.812  15.892 -0.2638  0.5181 -0.3365
 4685TIP3    H235471   6.089   1.871  15.862  0.0478 -0.0977 -0.1538
 4686TIP3   OH235472   0.526   2.746  15.851  0.1333 -0.4949 -0.4955
 4686TIP3    H135473   0.495   2.667  15.805 -1.7930  0.2965 -0.6647
 4686TIP3    H235474   0.493   2.736  15.940  0.3440 -0.1379 -0.3772
 4687TIP3   OH235475   0.424   5.524  11.784 -0.0881  0.1203 -0.2771
 4687TIP3    H135476   0.331   5.527  11.760 -0.2122  0.3141  0.2253
 4687TIP3    H235477   0.457   5.446  11.739 -1.0082 -1.2696  1.3538
 4688TIP3   OH235478   1.370   3.109  12.807  0.1254  0.1708 -0.1549
 4688TIP3    H135479   1.368   3.124  12.713 -0.8921 -1.0084 -0.3548
 4688TIP3    H235480   1.448   3.055  12.821  0.8205  1.1488 -0.1669
 4689TIP3   OH235481   6.172   1.338  14.788  0.1612  0.1568 -0.1378
 4689TIP3    H135482   6.154   1.246  14.809 -1.7855  0.8841  1.7803
 4689TIP3    H235483   6.267   1.346  14.796  0.2971 -1.5063  0.4459
 4690TIP3   OH235484   1.870   5.919  10.652  0.2469 -0.6068 -0.0839
 4690TIP3    H135485   1.829   5.855  10.710  1.5485 -1.1496  0.2791
 4690TIP3    H235486   1.929   5.867  10.597  2.1247  0.3382  0.9117
 4691TIP3   OH235487   2.595   0.208   0.964 -0.8818 -0.0095  0.0505
 4691TIP3    H135488   2.685   0.204   0.930 -0.6014 -0.1622  0.7837
 4691TIP3    H235489   2.606   0.234   1.055 -1.7225  2.1770 -0.4207
 4692TIP3   OH235490   2.902   4.373  14.126 -0.5699 -0.2068 -0.0190
 4692TIP3    H135491   2.942   4.299  14.079 -2.1592 -0.7826 -0.5165
 4692TIP3    H235492   2.846   4.332  14.191  0.2781  0.6027  1.2573
 4693TIP3   OH235493   5.201   1.508  11.433 -0.2287  0.0888  0.0449
 4693TIP3    H135494   5.176   1.478  11.346  0.8545 -1.8231  0.3435
 4693TIP3    H235495   5.295   1.496  11.437 -0.3239 -0.4470  1.6765
 4694TIP3   OH235496   2.722   1.446   2.399 -0.1495 -0.1043  0.3956
 4694TIP3    H135497   2.640   1.483   2.365 -0.1695  0.5056  1.0886
 4694TIP3    H235498   2.755   1.391   2.328 -0.2824  0.9893 -0.5321
 4695TIP3   OH235499   5.210   1.545   6.313  0.0977 -0.3753  0.5463
 4695TIP3    H135500   5.299   1.560   6.281  0.6181 -1.5780  1.3465
 4695TIP3    H235501   5.215   1.562   6.407 -0.2388 -1.5294  0.7834
 4696TIP3   OH235502   2.655   4.925   0.031  0.3546  0.1672 -0.0251
 4696TIP3    H135503   2.679   4.911   0.122  0.1065 -0.8776 -0.1126
 4696TIP3    H235504   2.573   4.877   0.019  0.0029  0.8840 -0.6171
 4697TIP3   OH235505   5.442   4.246   6.187 -0.4001  0.4480  0.5592
 4697TIP3    H135506   5.348   4.235   6.201 -0.3279 -0.2940  0.5421
 4697TIP3    H235507   5.478   4.158   6.200  0.1322  0.4786 -0.5839
 4698TIP3   OH235508   5.212   3.966   3.415  0.3845  0.5239 -0.5810
 4698TIP3    H135509   5.126   3.986   3.378 -0.4646  1.6239  1.8095
 4698TIP3    H235510   5.264   3.939   3.340 -1.0486  3.1036 -2.6709
 4699TIP3   OH235511   5.773   0.191   5.546 -0.2433 -0.0540 -0.2850
 4699TIP3    H135512   5.772   0.171   5.639 -0.2282  2.0909  0.2204
 4699TIP3    H235513   5.691   0.238   5.530  1.2038  2.5957 -0.5632
 4700TIP3   OH235514   5.161   2.634  15.998 -0.1725  0.4288  0.3008
 4700TIP3    H135515   5.163   2.539  16.010 -0.8142  0.0753 -1.9061
 4700TIP3    H235516   5.251   2.656  15.972 -0.2658  0.2440 -0.1973
 4701TIP3   OH235517   3.650   0.665   3.459 -0.2120 -0.7969 -0.3266
 4701TIP3    H135518   3.642   0.656   3.364  0.9181  0.0904 -0.5250
 4701TIP3    H235519   3.561   0.688   3.488 -0.3485 -0.0025 -1.3099
 4702TIP3   OH235520   3.003   1.691   1.499  0.0356 -0.4065 -0.0565
 4702TIP3    H135521   3.069   1.622   1.499  0.9586  0.4549  0.1322
 4702TIP3    H235522   3.046   1.765   1.457 -1.6404 -0.5686 -2.2422
 4703TIP3   OH235523   3.310   2.004  11.939 -0.2703 -0.0890 -0.3595
 4703TIP3    H135524   3.291   2.097  11.948  0.5524  0.4264 -3.1543
 4703TIP3    H235525   3.347   1.979  12.024 -0.4356  2.1298  0.4209
 4704TIP3   OH235526   0.466   3.453  12.234  0.2922  0.1211 -0.4619
 4704TIP3    H135527   0.461   3.483  12.143 -0.2886  1.6711  0.0487
 4704TIP3    H235528   0.376   3.453  12.264  0.4127 -1.0159 -0.0537
 4705TIP3   OH235529   4.387   1.339  12.635 -0.0800 -0.3605  0.4251
 4705TIP3    H135530   4.375   1.427  12.670 -0.6504  0.0441 -0.7389
 4705TIP3    H235531   4.422   1.352  12.547 -2.3653 -1.1865 -0.6759
 4706TIP3   OH235532   1.498   1.298   1.904  0.7696 -0.5275 -0.8460
 4706TIP3    H135533   1.408   1.297   1.872  0.4065  1.1833 -0.0095
 4706TIP3    H235534   1.548   1.343   1.836  0.9765 -1.2974 -1.2176
 4707TIP3   OH235535   2.667   4.799  13.061 -0.3846 -0.1147  0.3787
 4707TIP3    H135536   2.640   4.820  12.971  1.6239 -2.1133 -0.7879
 4707TIP3    H235537   2.748   4.848  13.074 -0.2935 -0.3820  0.8453
 4708TIP3   OH235538   4.108   2.909   0.413  0.3391  0.1194 -0.0565
 4708TIP3    H135539   4.157   2.939   0.336 -1.4801  1.7792 -0.6794
 4708TIP3    H235540   4.033   2.968   0.417  0.5370  0.3385  3.2524
 4709TIP3   OH235541   0.065   0.881  15.567  0.1505 -0.0900  0.3043
 4709TIP3    H135542   0.001   0.888  15.496  0.0642  2.0676  0.5170
 4709TIP3    H235543   0.121   0.807  15.543  0.1706  0.6319 -2.0582
 4710TIP3   OH235544   2.022   4.711   0.302  0.1283  0.2846  0.0391
 4710TIP3    H135545   2.054   4.654   0.232  0.1258  0.8607 -0.4264
 4710TIP3    H235546   2.092   4.709   0.368  0.0001 -0.4945  0.1685
 4711TIP3   OH235547   6.254   3.332   3.525 -0.2076  0.5791  0.3907
 4711TIP3    H135548   6.270   3.411   3.474  1.0783  0.5274  0.6751
 4711TIP3    H235549   6.261   3.360   3.616  1.1171  0.0128  0.4936
 4712TIP3   OH235550   3.565   1.625   1.532  0.1385 -0.5669 -0.2414
 4712TIP3    H135551   3.549   1.541   1.488  0.0057 -1.1735  0.9238
 4712TIP3    H235552   3.547   1.691   1.466 -1.7523 -1.3994 -0.6028
 4713TIP3   OH235553   0.304   2.083  12.077  0.8871 -0.0045 -0.3642
 4713TIP3    H135554   0.224   2.119  12.116  2.0363  1.0464  1.1335
 4713TIP3    H235555   0.295   1.988  12.088 -1.1230 -0.1301 -2.2567
 4714TIP3   OH235556   6.037   6.478   0.976  0.2539  0.0239  0.2790
 4714TIP3    H135557   6.083   6.511   1.053 -0.5757  0.9524  0.3858
 4714TIP3    H235558   5.948   6.510   0.985 -0.0879 -0.6229 -0.6184
 4715TIP3   OH235559   4.100   1.087  16.672  0.3541 -0.4574 -0.8028
 4715TIP3    H135560   4.089   1.176  16.638  0.4233  0.1546  0.6612
 4715TIP3    H235561   4.195   1.072  16.670  0.4106 -0.1895 -0.3577
 4716TIP3   OH235562   3.960   6.543   4.337  0.2329 -0.2226 -0.3241
 4716TIP3    H135563   4.014   6.579   4.407 -0.8566  1.3876 -0.2428
 4716TIP3    H235564   3.928   6.460   4.372  3.0653 -1.5381 -0.6194
 4717TIP3   OH235565   5.901   6.040   1.293  0.6240  0.0262 -0.3766
 4717TIP3    H135566   5.826   5.982   1.307  1.0392 -0.0095  2.0331
 4717TIP3    H235567   5.901   6.055   1.198 -1.1918 -1.5988 -0.7152
 4718TIP3   OH235568   5.061   6.046  14.404  0.2025  0.2902 -0.4852
 4718TIP3    H135569   5.038   5.953  14.399 -2.2540  0.8411 -0.8761
 4718TIP3    H235570   5.061   6.075  14.313 -1.2149  1.1021 -0.2543
 4719TIP3   OH235571   0.040   6.293  14.594 -0.1476  0.0714  0.5435
 4719TIP3    H135572   0.087   6.211  14.606 -1.1682 -0.6032  0.0929
 4719TIP3    H235573   0.000   6.311  14.680 -0.5932 -0.3442  0.4270
 4720TIP3   OH235574   3.777   0.031  16.945  0.2264  0.1875  0.7549
 4720TIP3    H135575   3.735  -0.031  17.006 -0.9271  0.7899  0.6081
 4720TIP3    H235576   3.708   0.094  16.925  0.4389 -0.2061 -1.4830
 4721TIP3   OH235577   3.845   6.662  10.463 -0.2129 -0.3231 -0.5621
 4721TIP3    H135578   3.933   6.665  10.425  0.0171 -0.9928 -0.0905
 4721TIP3    H235579   3.825   6.754  10.484  1.1648 -0.3502  1.0865
 4722TIP3   OH235580   5.994   0.622  16.465 -0.7841 -0.2981  0.2480
 4722TIP3    H135581   5.990   0.612  16.369  1.0135  1.3609 -0.0600
 4722TIP3    H235582   5.903   0.612  16.493 -1.6236  0.7561 -1.8336
 4723TIP3   OH235583   3.540   1.761  14.377 -0.3067 -0.0008  0.3295
 4723TIP3    H135584   3.575   1.680  14.414  1.5687  0.8461  0.5236
 4723TIP3    H235585   3.617   1.815  14.361 -1.5780  2.2622  1.4102
 4724TIP3   OH235586   3.146   3.603   5.822  0.1841  0.5680  0.2380
 4724TIP3    H135587   3.166   3.682   5.772 -2.3189  0.7423 -0.6386
 4724TIP3    H235588   3.157   3.532   5.760  1.0620  0.3401  0.6372
 4725TIP3   OH235589   4.937   0.655   4.035 -0.2189  0.2335 -0.0727
 4725TIP3    H135590   4.948   0.748   4.015  1.0453  0.3398  0.9738
 4725TIP3    H235591   4.865   0.653   4.097 -0.0620  0.5512  0.1246
 4726TIP3   OH235592   1.304   4.485   0.241 -0.1909 -0.1298  0.4565
 4726TIP3    H135593   1.292   4.579   0.238 -1.4308 -0.1096  3.1236
 4726TIP3    H235594   1.332   4.461   0.153  0.7423  2.7766 -0.1387
 4727TIP3   OH235595   5.096   1.509  12.366 -0.3359 -0.6551 -0.7576
 4727TIP3    H135596   5.137   1.466  12.441  0.4204  1.5609  0.1605
 4727TIP3    H235597   5.002   1.494  12.378 -0.2556  0.0293  0.8795
 4728TIP3   OH235598   3.583   0.145  12.334  0.4018  0.3186 -0.0308
 4728TIP3    H135599   3.654   0.124  12.394  0.8570 -0.4231 -0.7965
 4728TIP3    H235600   3.625   0.147  12.248  0.2305  3.5465 -0.1779
 4729TIP3   OH235601   0.887   3.583  16.246  0.3203  0.1234  0.1822
 4729TIP3    H135602   0.854   3.633  16.321 -0.4389 -1.6681  1.0927
 4729TIP3    H235603   0.979   3.570  16.266  0.8461  2.1349 -0.6629
 4730TIP3   OH235604   3.303   0.583   1.334  0.0339 -0.6262 -0.4283
 4730TIP3    H135605   3.271   0.559   1.421 -2.2111 -0.5773 -1.1700
 4730TIP3    H235606   3.376   0.642   1.351  0.0230 -1.0708  1.4171
 4731TIP3   OH235607   2.342   6.055   3.032 -0.1769 -1.0841  0.5750
 4731TIP3    H135608   2.399   6.127   3.006  0.3418 -1.0733  1.7173
 4731TIP3    H235609   2.391   5.976   3.010 -0.5861 -1.1055 -0.3186
 4732TIP3   OH235610   3.708   0.541  15.369 -0.2523  0.2172 -0.7588
 4732TIP3    H135611   3.711   0.637  15.361 -1.6702  0.3628  0.0474
 4732TIP3    H235612   3.777   0.520  15.432 -0.4987  0.8152 -0.2747
 4733TIP3   OH235613   4.414   3.337  14.567 -0.3195  0.0429 -0.3327
 4733TIP3    H135614   4.335   3.381  14.535 -0.6260 -2.1757 -2.9883
 4733TIP3    H235615   4.452   3.296  14.489  4.3042  2.0850  0.4913
 4734TIP3   OH235616   6.330   3.605  11.415  0.2069 -0.1843  0.0683
 4734TIP3    H135617   6.273   3.530  11.430  0.5151 -0.5068 -0.3402
 4734TIP3    H235618   6.273   3.671  11.375 -0.3140  0.2051  1.3688
 4735TIP3   OH235619   2.359   2.580   2.095  0.5995  0.4346 -0.0303
 4735TIP3    H135620   2.357   2.505   2.155  2.8778  0.3540  0.0089
 4735TIP3    H235621   2.308   2.647   2.141  0.5151 -0.3206  1.0262
 4736TIP3   OH235622   6.346   6.438  14.078 -0.2959 -0.6005 -0.4709
 4736TIP3    H135623   6.416   6.399  14.131  1.7535  3.5939  0.3301
 4736TIP3    H235624   6.367   6.410  13.988  0.1286 -2.4074  0.1391
 4737TIP3   OH235625   1.400   1.796  11.612 -0.5912 -0.3803 -0.2946
 4737TIP3    H135626   1.444   1.727  11.562 -0.6095 -1.2154  0.7873
 4737TIP3    H235627   1.467   1.864  11.622  0.3023 -1.3558  0.7774
 4738TIP3   OH235628   5.441   4.671   6.095  0.3403  0.0990 -0.0397
 4738TIP3    H135629   5.520   4.626   6.127  0.0733 -0.3367  0.0142
 4738TIP3    H235630   5.369   4.617   6.126 -0.0750  1.3971  1.3595
 4739TIP3   OH235631   4.706   2.492   5.001  0.3557  0.1144 -0.0859
 4739TIP3    H135632   4.684   2.585   5.003  1.0999  0.3095 -0.4295
 4739TIP3    H235633   4.710   2.467   5.093 -1.3771  0.0269 -0.0011
 4740TIP3   OH235634   1.561   0.641   4.618  0.2218 -0.1243  0.1707
 4740TIP3    H135635   1.643   0.673   4.655 -0.1064  0.0330  0.7732
 4740TIP3    H235636   1.549   0.555   4.659  0.2296 -0.2740 -0.1372
 4741TIP3   OH235637   5.411   2.547  11.330 -0.0391 -0.0388  0.8606
 4741TIP3    H135638   5.363   2.510  11.404 -0.5584 -0.8738  0.1182
 4741TIP3    H235639   5.458   2.473  11.293 -0.7878  0.1008 -0.4143
 4742TIP3   OH235640   4.202   6.026   0.705 -0.6472 -0.1617 -0.1528
 4742TIP3    H135641   4.137   5.987   0.764 -1.9415  0.2212 -1.2666
 4742TIP3    H235642   4.263   5.954   0.686 -0.6071 -0.4735  1.0671
 4743TIP3   OH235643   5.171   1.107   6.450  0.5525  0.1036 -0.0805
 4743TIP3    H135644   5.235   1.179   6.448 -0.7897  1.4229  1.5212
 4743TIP3    H235645   5.211   1.038   6.397  3.8918  0.3963  1.7678
 4744TIP3   OH235646   2.813   6.742  15.337  0.2369  0.3072  0.3818
 4744TIP3    H135647   2.891   6.713  15.384 -0.1978  0.5873  1.2940
 4744TIP3    H235648   2.815   6.837  15.345 -0.3915  0.2918  0.7265
 4745TIP3   OH235649   5.206   1.532  13.602  0.1678  0.3550 -0.1478
 4745TIP3    H135650   5.288   1.570  13.572 -0.1680  0.2401 -1.2615
 4745TIP3    H235651   5.138   1.588  13.564 -0.2871  0.0072  0.1377
 4746TIP3   OH235652   0.226   6.579  13.617  0.0567  0.2187 -0.0968
 4746TIP3    H135653   0.320   6.564  13.617 -0.0906 -0.8390 -0.4352
 4746TIP3    H235654   0.213   6.653  13.676  0.9116 -0.8818  1.5541
 4747TIP3   OH235655   4.766   1.062   4.011 -0.1829  0.3780  0.3393
 4747TIP3    H135656   4.736   1.046   3.922 -0.0593 -3.0550  0.7985
 4747TIP3    H235657   4.704   1.015   4.066  0.8810  0.8024  1.9550
 4748TIP3   OH235658   4.161   6.547  14.048  0.2006  0.1395 -0.0165
 4748TIP3    H135659   4.095   6.521  14.113 -1.8692  0.7143 -1.7567
 4748TIP3    H235660   4.169   6.642  14.059  1.6061 -0.0653  0.9091
 4749TIP3   OH235661   4.135   0.328  11.058  0.3017  0.0188 -0.0765
 4749TIP3    H135662   4.161   0.248  11.103  1.4949  1.0847  1.2233
 4749TIP3    H235663   4.194   0.395  11.092 -1.9655  1.8829  0.3930
 4750TIP3   OH235664   4.406   3.942   4.489 -0.2958 -0.1607 -0.0438
 4750TIP3    H135665   4.468   3.978   4.426 -0.4580 -1.0552 -0.7384
 4750TIP3    H235666   4.333   4.004   4.488  0.8427  1.2706  1.2944
 4751TIP3   OH235667   4.490   1.713   3.829  0.7823 -0.9582  0.8056
 4751TIP3    H135668   4.543   1.675   3.900  2.2239 -1.4317 -0.4682
 4751TIP3    H235669   4.532   1.796   3.810  1.4508 -1.5894 -0.5960
 4752TIP3   OH235670   0.663   5.855   4.848 -0.2266 -0.3178 -0.1884
 4752TIP3    H135671   0.719   5.857   4.771 -0.4506 -0.7804 -0.3689
 4752TIP3    H235672   0.658   5.762   4.872 -0.8643 -0.2788 -0.1405
 4753TIP3   OH235673   5.229   2.946  12.502 -0.5238  0.4251  0.4301
 4753TIP3    H135674   5.211   2.928  12.410 -1.8781  1.6221  0.4198
 4753TIP3    H235675   5.310   2.898  12.521 -1.3406 -1.5257 -0.7947
 4754TIP3   OH235676   4.808   2.728   1.776  0.4635  0.2129  0.2180
 4754TIP3    H135677   4.888   2.771   1.805 -0.0841  0.8156  0.8772
 4754TIP3    H235678   4.837   2.647   1.734  1.4536  0.8001 -0.2506
 4755TIP3   OH235679   0.622   6.579   2.286  0.0523 -0.3039  0.6354
 4755TIP3    H135680   0.618   6.487   2.259  1.4178 -0.7091  1.7086
 4755TIP3    H235681   0.634   6.627   2.204  0.4360 -1.1818  0.1584
 4756TIP3   OH235682   6.382   2.294  15.430  0.2761  0.1164 -0.5400
 4756TIP3    H135683   6.299   2.256  15.401  1.2300 -2.0306 -0.6575
 4756TIP3    H235684   6.381   2.285  15.525 -0.0159  0.9844 -0.4528
 4757TIP3   OH235685   0.100   1.191  14.372 -0.3952  0.0681 -0.3367
 4757TIP3    H135686   0.017   1.193  14.325 -1.7136 -0.8130  1.7986
 4757TIP3    H235687   0.117   1.282  14.395 -0.9815  0.2141 -0.4682
 4758TIP3   OH235688   2.049   3.925   1.333 -0.4213 -0.3711  0.2783
 4758TIP3    H135689   2.064   3.849   1.388  0.4435 -0.4505 -0.0590
 4758TIP3    H235690   2.094   3.905   1.251 -1.3267 -0.0714 -0.3045
 4759TIP3   OH235691   5.676   5.571   3.740 -0.0076  0.1406 -0.5068
 4759TIP3    H135692   5.733   5.522   3.681 -0.3043 -0.7387 -0.0791
 4759TIP3    H235693   5.733   5.594   3.815  0.1807  0.6370 -0.7940
 4760TIP3   OH235694   3.523   0.926  16.632 -0.5096  0.0521  0.3631
 4760TIP3    H135695   3.565   0.906  16.548 -1.3794 -2.0731  0.3622
 4760TIP3    H235696   3.582   0.889  16.698 -1.6596 -1.8442  0.4218
 4761TIP3   OH235697   6.027   6.074   5.261 -0.2769 -0.1613  0.3122
 4761TIP3    H135698   6.088   6.032   5.322 -0.0889 -1.5801 -0.8000
 4761TIP3    H235699   6.042   6.030   5.178 -1.4313  0.8436 -0.4616
 4762TIP3   OH235700   1.353   0.453  12.099  0.2009 -0.1392 -0.7161
 4762TIP3    H135701   1.259   0.470  12.105  0.6518  3.1988 -1.0322
 4762TIP3    H235702   1.384   0.456  12.189  0.2313  0.6232 -0.7461
 4763TIP3   OH235703   3.226   6.279   4.373 -0.4253 -0.0564 -0.1991
 4763TIP3    H135704   3.311   6.259   4.334 -0.1162 -0.1870  0.5366
 4763TIP3    H235705   3.173   6.312   4.299  1.6319  4.5200 -0.0044
 4764TIP3   OH235706   2.551   6.066   5.946  0.0718 -0.3468 -0.0995
 4764TIP3    H135707   2.482   6.067   6.012 -0.4054  2.3033 -0.5424
 4764TIP3    H235708   2.505   6.063   5.862  0.5866 -0.9158 -0.3714
 4765TIP3   OH235709   2.873   5.693   4.759  0.0548 -0.6618 -0.4435
 4765TIP3    H135710   2.939   5.737   4.706  0.3908 -0.7510 -0.1037
 4765TIP3    H235711   2.790   5.715   4.717  0.1361  0.9291  0.1578
 4766TIP3   OH235712   3.482   6.027   0.952 -0.4073  0.3299  0.0687
 4766TIP3    H135713   3.517   5.942   0.979 -3.3079 -1.1010 -0.3013
 4766TIP3    H235714   3.515   6.039   0.863 -0.8224 -0.9633 -0.2849
 4767TIP3   OH235715   4.083   5.182   4.844  0.0341 -0.0207 -0.3383
 4767TIP3    H135716   4.048   5.100   4.879 -1.7032  0.2368 -1.3530
 4767TIP3    H235717   4.100   5.235   4.922  1.5884 -1.4505  0.3616
 4768TIP3   OH235718   1.647   2.968   2.579  0.2231 -1.3217  0.4899
 4768TIP3    H135719   1.738   2.975   2.607  0.9134  2.3442 -1.8312
 4768TIP3    H235720   1.598   3.020   2.642  0.1457 -1.3017  0.4141
 4769TIP3   OH235721   6.186   3.019  11.825  0.3896 -0.1292  0.0202
 4769TIP3    H135722   6.276   3.052  11.829  0.4444 -0.2681 -0.0324
 4769TIP3    H235723   6.194   2.925  11.843  0.0677  0.1270  1.6477
 4770TIP3   OH235724   4.478   0.210  11.045 -0.0664 -0.0256 -0.1959
 4770TIP3    H135725   4.513   0.149  11.111  0.7578  0.4276 -0.1968
 4770TIP3    H235726   4.502   0.296  11.078  0.2783  0.2115 -1.0490
 4771TIP3   OH235727   6.602   5.561   5.613  0.0321  0.3100 -0.1742
 4771TIP3    H135728   6.588   5.652   5.585 -2.0149  1.0812  2.7947
 4771TIP3    H235729   6.538   5.511   5.563 -1.4377  1.1606  0.7646
 4772TIP3   OH235730   5.335   0.965  16.712 -0.0671 -0.4993 -0.0785
 4772TIP3    H135731   5.429   0.980  16.722 -0.1424 -0.1459  0.1221
 4772TIP3    H235732   5.295   1.050  16.730 -0.5004 -0.9121  0.9897
 4773TIP3   OH235733   3.953   1.296  17.138  0.1562  0.4158 -0.0690
 4773TIP3    H135734   4.017   1.225  17.136 -1.2492 -0.8902 -0.3986
 4773TIP3    H235735   3.871   1.254  17.163 -1.1462  1.5452 -2.1200
 4774TIP3   OH235736   0.135   0.712   3.143  1.0364 -0.3663  0.4011
 4774TIP3    H135737   0.216   0.731   3.097 -0.4944 -0.0972 -2.4277
 4774TIP3    H235738   0.091   0.797   3.151 -0.1840 -0.8615 -0.7086
 4775TIP3   OH235739   2.463   4.869   3.311  0.1712  0.1064 -0.4658
 4775TIP3    H135740   2.377   4.867   3.268 -0.0768  0.6992 -0.0262
 4775TIP3    H235741   2.508   4.791   3.280 -0.5728 -0.2717 -0.6214
 4776TIP3   OH235742   3.426   2.314   4.219 -0.2173  0.4643 -0.8237
 4776TIP3    H135743   3.432   2.400   4.262  0.7408  0.3767 -0.7738
 4776TIP3    H235744   3.354   2.324   4.156  0.4954  1.6008 -1.4934
 4777TIP3   OH235745   1.910   3.002   1.342 -0.0010  0.2076  0.1600
 4777TIP3    H135746   1.987   2.950   1.319 -0.3167  0.1829 -0.9082
 4777TIP3    H235747   1.837   2.941   1.336 -0.2628  0.5459 -0.1759
 4778TIP3   OH235748   1.957   2.054  16.674 -0.3115 -0.2503  0.4289
 4778TIP3    H135749   1.887   2.024  16.617  0.9300 -0.6748 -0.9355
 4778TIP3    H235750   1.990   2.134  16.633  0.0509 -0.0857  1.0152
 4779TIP3   OH235751   0.282   0.225  12.376 -0.0826  0.4334  0.1169
 4779TIP3    H135752   0.195   0.249  12.410  0.8227  1.6258  1.7668
 4779TIP3    H235753   0.264   0.161  12.307 -2.2784  0.8140  0.2487
 4780TIP3   OH235754   5.133   4.938   5.767 -0.1154  0.2650  0.6215
 4780TIP3    H135755   5.060   4.981   5.811 -0.4961  1.2607 -0.8757
 4780TIP3    H235756   5.094   4.903   5.686  1.0210  0.6577 -0.1139
 4781TIP3   OH235757   5.787   1.769   5.677 -0.4977  0.7157  0.4413
 4781TIP3    H135758   5.802   1.850   5.629  0.2331  0.0095 -0.5604
 4781TIP3    H235759   5.873   1.727   5.682 -0.9838 -0.3344  0.3204
 4782TIP3   OH235760   5.823   2.507   4.869 -0.2275  0.3449 -0.1367
 4782TIP3    H135761   5.792   2.420   4.895  0.4407 -0.1368 -0.8807
 4782TIP3    H235762   5.917   2.506   4.891 -0.2687  0.9669  0.0660
 4783TIP3   OH235763   1.570   4.912   1.475 -0.0701  0.6389  0.4509
 4783TIP3    H135764   1.522   4.988   1.443 -0.0104 -0.0224 -1.2854
 4783TIP3    H235765   1.527   4.837   1.433 -0.5291 -0.3812  2.5917
 4784TIP3   OH235766   6.431   4.510  11.197 -0.1012  0.3473  0.1364
 4784TIP3    H135767   6.356   4.502  11.257 -0.3529  1.3819 -0.0145
 4784TIP3    H235768   6.454   4.420  11.175  0.6640 -0.1369  2.6082
 4785TIP3   OH235769   4.186   0.224   2.169 -0.5124 -0.0118 -0.0854
 4785TIP3    H135770   4.265   0.196   2.216  0.1499 -0.6104 -1.5035
 4785TIP3    H235771   4.215   0.293   2.110 -1.0052 -0.3424 -0.7355
 4786TIP3   OH235772   0.607   1.962   4.842 -1.0761  0.5628 -0.4431
 4786TIP3    H135773   0.685   1.982   4.791 -0.5276  0.4548  0.3232
 4786TIP3    H235774   0.563   2.046   4.854 -0.6765  0.7533 -0.2611
 4787TIP3   OH235775   5.207   1.100   3.197 -0.4242  0.1055 -0.0984
 4787TIP3    H135776   5.270   1.094   3.125 -2.1675 -0.2999 -1.6483
 4787TIP3    H235777   5.211   1.015   3.240  1.8622  0.8965  1.4566
 4788TIP3   OH235778   1.638   5.435   0.149  0.2950  0.0841  0.3203
 4788TIP3    H135779   1.565   5.429   0.211 -0.2633  1.7269 -0.1288
 4788TIP3    H235780   1.634   5.353   0.101 -0.9626 -0.0732  0.6371
 4789TIP3   OH235781   5.088   4.729   4.762 -0.1636  0.2405  0.0222
 4789TIP3    H135782   5.165   4.681   4.794 -1.0986 -1.1340  0.2968
 4789TIP3    H235783   5.122   4.786   4.694  1.0246 -0.7825 -0.2891
 4790TIP3   OH235784   3.977   2.118  11.835  0.2985 -0.7434 -0.5588
 4790TIP3    H135785   4.032   2.158  11.903 -0.0306  1.4276 -1.4938
 4790TIP3    H235786   3.971   2.184  11.767 -1.8069 -1.7202 -1.4152
 4791TIP3   OH235787   4.803   2.205   3.695 -0.0449  0.5778 -0.0799
 4791TIP3    H135788   4.752   2.180   3.618 -0.3553  0.2748  0.2233
 4791TIP3    H235789   4.739   2.242   3.755  0.1319  0.4322  0.1978
 4792TIP3   OH235790   0.857   2.239  16.214  0.2997  0.0442 -0.0548
 4792TIP3    H135791   0.793   2.265  16.279  0.1582  1.7957 -0.8295
 4792TIP3    H235792   0.933   2.210  16.264 -0.1796  0.3733  0.8730
 4793TIP3   OH235793   1.925   5.329   4.401  0.3184  0.4101  0.3150
 4793TIP3    H135794   1.935   5.420   4.372  0.0730 -0.1316 -1.5714
 4793TIP3    H235795   1.985   5.279   4.346 -0.3822 -0.7163  0.5356
 4794TIP3   OH235796   1.085   1.504  16.642 -0.4834 -0.2371  0.4861
 4794TIP3    H135797   1.159   1.529  16.697  0.6092 -0.2373 -0.9398
 4794TIP3    H235798   1.026   1.580  16.645  1.1732  1.1929 -1.0201
 4795TIP3   OH235799   1.183   0.283  16.698 -0.5881  0.0912  0.1143
 4795TIP3    H135800   1.278   0.294  16.705 -0.6894  0.8987  0.2513
 4795TIP3    H235801   1.151   0.367  16.667 -1.2468 -0.2325 -0.1041
 4796TIP3   OH235802   0.866   2.612   1.753 -0.0423  0.3694  0.0631
 4796TIP3    H135803   0.935   2.600   1.819  0.2350  0.3353 -0.2277
 4796TIP3    H235804   0.902   2.675   1.692  0.2021 -0.5005 -0.7185
 4797TIP3   OH235805   5.769   0.852   3.331  0.4044  0.9769  0.0194
 4797TIP3    H135806   5.742   0.763   3.307  1.0799  1.0593 -1.1040
 4797TIP3    H235807   5.863   0.845   3.346  0.7039  1.7492 -1.3652
 4798TIP3   OH235808   5.593   2.749  11.764  0.3349 -0.7759 -0.3440
 4798TIP3    H135809   5.636   2.787  11.687  1.5812 -1.0181  0.1994
 4798TIP3    H235810   5.658   2.759  11.834 -0.6207 -0.9146  0.5834
 4799TIP3   OH235811   2.902   3.247  17.162 -0.1734  0.5277 -0.4196
 4799TIP3    H135812   2.826   3.300  17.185 -1.2953 -1.5424  0.9671
 4799TIP3    H235813   2.864   3.168  17.122  1.0514 -1.2956  1.7685
 4800TIP3   OH235814   1.988   1.842  11.858  0.4332  0.1772  0.4265
 4800TIP3    H135815   2.015   1.842  11.766  0.6511  1.2919  0.4844
 4800TIP3    H235816   2.068   1.819  11.906  0.4146 -0.0157  0.3661
 4801TIP3   OH235817   1.035   3.943   2.433 -0.5085 -0.1507  0.3791
 4801TIP3    H135818   1.049   3.911   2.344 -0.0297 -0.2878  0.5041
 4801TIP3    H235819   1.019   3.864   2.484  0.9749 -0.2396  0.7473
 4802TIP3   OH235820   6.609   6.687  13.881 -0.0535  0.1989 -0.1141
 4802TIP3    H135821   6.658   6.620  13.929  1.0354  0.7509 -0.3990
 4802TIP3    H235822   6.676   6.752  13.859 -0.7141  0.4263 -1.5262
 4803TIP3   OH235823   1.540   3.018   1.406 -0.1634 -0.3456  0.3079
 4803TIP3    H135824   1.571   2.983   1.489 -1.5358  0.2890  1.1199
 4803TIP3    H235825   1.587   2.967   1.340  2.2970  0.3100  1.4154
 4804TIP3   OH235826   1.999   2.152   2.730 -0.0031 -0.7527  0.1876
 4804TIP3    H135827   2.085   2.129   2.697 -0.1957 -2.7797  0.9959
 4804TIP3    H235828   2.015   2.180   2.821 -0.3479 -3.0883  1.0395
 4805TIP3   OH235829   6.467   5.291  13.172 -0.0887  0.2358 -0.4329
 4805TIP3    H135830   6.556   5.267  13.200 -0.0443  1.1364  0.2256
 4805TIP3    H235831   6.426   5.207  13.150  0.8327 -0.2195 -0.4972
 4806TIP3   OH235832   1.974   1.596  15.481  0.2908 -0.5478 -0.5157
 4806TIP3    H135833   2.025   1.644  15.416  0.5068 -0.6806 -0.4462
 4806TIP3    H235834   2.035   1.581  15.554  0.3632 -1.3258 -0.7281
 4807TIP3   OH235835   1.927   3.552  16.407 -0.6248 -0.0492  0.5957
 4807TIP3    H135836   2.021   3.539  16.400 -0.7837 -1.3022  0.5329
 4807TIP3    H235837   1.911   3.568  16.500 -0.2056  1.7365  0.4116
 4808TIP3   OH235838   4.789   5.111  13.049  0.3893  0.1406  0.0404
 4808TIP3    H135839   4.714   5.052  13.056  1.1428 -0.9770 -0.9144
 4808TIP3    H235840   4.824   5.117  13.138  0.7882 -1.5378  0.0285
 4809TIP3   OH235841   3.861   1.037   6.016 -0.3179  0.2230  0.0901
 4809TIP3    H135842   3.811   0.955   6.018  0.6713 -0.3881  0.6675
 4809TIP3    H235843   3.856   1.066   5.925 -0.2423 -0.7602 -0.2454
 4810TIP3   OH235844   4.736   2.471   6.649 -0.3436 -0.0741 -0.1967
 4810TIP3    H135845   4.799   2.514   6.706 -0.9423 -0.1142  0.5135
 4810TIP3    H235846   4.709   2.393   6.697 -2.1986  0.8166  0.2999
 4811TIP3   OH235847   1.031   2.342  14.831  0.3781 -0.2754 -0.1146
 4811TIP3    H135848   1.065   2.266  14.879 -0.5018 -0.4800  0.2124
 4811TIP3    H235849   0.942   2.353  14.864  0.2071  0.3938 -0.7682
 4812TIP3   OH235850   5.674   0.865  12.217 -0.0495 -0.2782  0.1804
 4812TIP3    H135851   5.624   0.822  12.148 -0.4378  0.8215 -0.2382
 4812TIP3    H235852   5.753   0.811  12.226 -0.7643 -1.3743  0.0518
 4813TIP3   OH235853   2.586   3.847  11.088  0.0686  0.1522 -0.5292
 4813TIP3    H135854   2.618   3.767  11.047 -0.1408 -1.0386  1.5183
 4813TIP3    H235855   2.663   3.903  11.097  0.2385  0.1478 -1.8490
 4814TIP3   OH235856   0.695   3.381  16.106  0.6658  0.1787  0.0757
 4814TIP3    H135857   0.615   3.428  16.083  2.5392  2.9612 -1.4286
 4814TIP3    H235858   0.745   3.443  16.159  2.0119 -1.2895  0.6096
 4815TIP3   OH235859   3.466   3.245   1.603  0.1434 -0.1688 -0.7269
 4815TIP3    H135860   3.452   3.320   1.661  0.1214 -0.6864 -0.0488
 4815TIP3    H235861   3.397   3.253   1.536 -1.2853 -0.7721  0.5962
 4816TIP3   OH235862   2.683   2.650   5.225 -0.0781  0.6060  0.0074
 4816TIP3    H135863   2.666   2.576   5.284 -0.8434  0.1577 -0.7649
 4816TIP3    H235864   2.770   2.682   5.252  0.6245 -1.0663 -0.1571
 4817TIP3   OH235865   3.629   0.234  14.445 -0.1591  0.5047 -0.5779
 4817TIP3    H135866   3.535   0.242  14.460  0.0668 -1.0665  2.3922
 4817TIP3    H235867   3.666   0.316  14.476 -0.3582  0.0383  0.9686
 4818TIP3   OH235868   0.784   3.447  14.341 -0.2208  0.2716  0.8551
 4818TIP3    H135869   0.697   3.486  14.332 -0.3520  0.1572  1.5418
 4818TIP3    H235870   0.795   3.394  14.262  0.2571  2.2375 -0.4426
 4819TIP3   OH235871   0.473   4.712  14.768 -0.3310  0.8040  0.4071
 4819TIP3    H135872   0.561   4.679  14.789 -0.9633 -1.0072  0.3960
 4819TIP3    H235873   0.457   4.682  14.678 -1.4303 -0.0157  0.8466
 4820TIP3   OH235874   0.864   2.697   5.434  0.3048 -0.3254 -0.1892
 4820TIP3    H135875   0.906   2.726   5.353 -0.1895  0.4950 -0.1568
 4820TIP3    H235876   0.770   2.714   5.420  0.0198 -1.6945 -0.0817
 4821TIP3   OH235877   0.156   2.160  12.658 -0.4261 -0.4121  0.0606
 4821TIP3    H135878   0.144   2.095  12.588  2.0777 -0.2964 -0.5655
 4821TIP3    H235879   0.177   2.108  12.735 -2.0273 -0.4765  0.4881
 4822TIP3   OH235880   2.244   3.190   4.329  0.1288 -0.0169  0.3158
 4822TIP3    H135881   2.222   3.239   4.408 -0.2589 -1.0056  0.8245
 4822TIP3    H235882   2.337   3.168   4.339  0.4637  1.0784 -0.1825
 4823TIP3   OH235883   1.494   1.639  16.672 -0.3629  0.0323  0.0592
 4823TIP3    H135884   1.435   1.706  16.638  0.7247  2.1615  2.0855
 4823TIP3    H235885   1.575   1.649  16.621 -1.0146 -1.6521 -1.4531
 4824TIP3   OH235886   2.756   4.492   2.777 -0.2359 -0.1013  0.9009
 4824TIP3    H135887   2.766   4.445   2.694  0.8051  1.1016  0.2991
 4824TIP3    H235888   2.697   4.438   2.829 -0.4397 -1.1804 -0.4033
 4825TIP3   OH235889   5.788   6.301  12.501 -0.2971 -0.1971 -0.1415
 4825TIP3    H135890   5.799   6.372  12.564  1.6249 -1.0367  0.5444
 4825TIP3    H235891   5.841   6.230  12.536 -0.1165 -1.0971 -2.1210
 4826TIP3   OH235892   4.746   1.175   1.917 -0.2765  0.4130  0.7140
 4826TIP3    H135893   4.834   1.149   1.890  0.8735  3.3690  1.2834
 4826TIP3    H235894   4.742   1.151   2.010  0.0946  0.6812  0.7998
 4827TIP3   OH235895   1.135   1.582   4.050  0.1526  0.2613  0.2586
 4827TIP3    H135896   1.230   1.598   4.044 -0.3773  3.7532 -1.4415
 4827TIP3    H235897   1.115   1.589   4.143  1.3780  1.0226  0.4826
 4828TIP3   OH235898   4.785   5.922  16.935  0.2028 -0.2735  1.4188
 4828TIP3    H135899   4.841   5.848  16.914  0.5543  0.1447  0.8534
 4828TIP3    H235900   4.845   5.991  16.964 -0.1720 -0.4184  2.5881
 4829TIP3   OH235901   3.131   4.593  11.829  0.0599  0.3749  0.3673
 4829TIP3    H135902   3.160   4.503  11.846  0.5596  0.5806  0.6033
 4829TIP3    H235903   3.098   4.624  11.913 -0.5325  0.2618  0.1819
 4830TIP3   OH235904   4.909   3.454   2.463  0.0243 -0.3281  0.0017
 4830TIP3    H135905   4.924   3.486   2.552  3.0172  0.5303 -0.6976
 4830TIP3    H235906   4.893   3.360   2.474  1.0412 -0.3701  1.4273
 4831TIP3   OH235907   3.311   5.669   0.129 -0.0230  0.6886  0.0835
 4831TIP3    H135908   3.231   5.711   0.097 -1.2710 -1.1284  0.6634
 4831TIP3    H235909   3.294   5.653   0.222 -1.2834 -4.3153 -0.7156
 4832TIP3   OH235910   2.816   2.769  14.110  0.0071  0.3053  0.1790
 4832TIP3    H135911   2.783   2.772  14.200 -2.3912 -0.3175 -0.5930
 4832TIP3    H235912   2.801   2.678  14.083 -0.0432  0.6740 -1.0797
 4833TIP3   OH235913   0.777   3.416   3.063 -0.3804  0.1589 -0.7586
 4833TIP3    H135914   0.792   3.434   3.156 -2.3052  1.3632 -0.6142
 4833TIP3    H235915   0.850   3.457   3.018 -0.4681  1.3393  0.1225
 4834TIP3   OH235916   1.938   6.223   1.820 -0.6533  0.6117  0.2998
 4834TIP3    H135917   1.921   6.317   1.812 -1.0839  0.5039 -0.0689
 4834TIP3    H235918   1.902   6.185   1.740  1.4094  0.3675 -0.5681
 4835TIP3   OH235919   1.918   0.577  14.736  0.0318  0.1940 -0.0973
 4835TIP3    H135920   1.965   0.659  14.721  0.5575 -0.1295 -0.2600
 4835TIP3    H235921   1.904   0.574  14.831 -1.0002  1.0045 -0.2012
 4836TIP3   OH235922   0.345   1.187   4.824  0.4723  0.2295 -0.1313
 4836TIP3    H135923   0.274   1.133   4.859 -2.2616  2.6901 -1.5227
 4836TIP3    H235924   0.421   1.128   4.822 -1.0936 -2.1487  2.7235
 4837TIP3   OH235925   3.929   2.442   4.600 -0.6741  0.5011  0.5388
 4837TIP3    H135926   3.880   2.502   4.544  0.0050  0.0088 -0.6074
 4837TIP3    H235927   3.988   2.498   4.650 -2.2071  1.0854  1.7812
 4838TIP3   OH235928   4.926   2.829   0.055  0.0927 -0.3449  0.2613
 4838TIP3    H135929   4.982   2.797  -0.016  0.5620 -0.1444  0.5398
 4838TIP3    H235930   4.970   2.907   0.088 -1.7380  1.4558 -1.3263
 4839TIP3   OH235931   6.567   6.272   2.099  0.2934 -0.1901  0.1362
 4839TIP3    H135932   6.585   6.267   2.193 -1.2311  1.1798  0.5386
 4839TIP3    H235933   6.579   6.364   2.077  1.7118 -0.6614 -1.2935
 4840TIP3   OH235934   4.252   1.921   1.444  0.5704  0.0109 -0.1466
 4840TIP3    H135935   4.343   1.930   1.415  0.9621 -0.1393  0.9920
 4840TIP3    H235936   4.245   1.981   1.519 -0.5525  0.7641 -0.8157
 4841TIP3   OH235937   5.674   1.022   0.302 -0.0083 -0.6029 -0.5098
 4841TIP3    H135938   5.764   1.044   0.326  0.6340 -1.6381 -1.8009
 4841TIP3    H235939   5.679   1.003   0.209 -1.9042  0.8783 -0.9630
 4842TIP3   OH235940   1.477   5.961  15.499 -0.0716 -0.1857 -0.7353
 4842TIP3    H135941   1.549   5.984  15.558 -0.2986 -0.4912 -0.3362
 4842TIP3    H235942   1.401   6.005  15.536 -0.6962 -2.2147  0.5280
 4843TIP3   OH235943   3.178   5.323  16.254 -0.2884 -0.7412  0.1206
 4843TIP3    H135944   3.111   5.342  16.319  1.5679  1.0231  1.6744
 4843TIP3    H235945   3.150   5.369  16.176 -1.2476 -0.6560  0.5001
 4844TIP3   OH235946   5.639   4.934  10.849 -0.3062 -0.0932  0.4974
 4844TIP3    H135947   5.612   5.026  10.848 -1.7117 -0.4615 -1.8804
 4844TIP3    H235948   5.692   4.924  10.770 -4.0105 -2.2628 -2.0044
 4845TIP3   OH235949   0.292   4.526  13.363 -0.3265  0.4304 -0.2501
 4845TIP3    H135950   0.376   4.558  13.331  0.2371 -0.3067  0.4319
 4845TIP3    H235951   0.300   4.530  13.458 -0.3602 -1.3185 -0.1407
 4846TIP3   OH235952   6.591   0.192  15.862 -0.2203 -0.3292 -0.5633
 4846TIP3    H135953   6.589   0.132  15.937  0.1109 -0.1386 -0.3972
 4846TIP3    H235954   6.670   0.244  15.876  0.3237 -0.8741 -1.5016
 4847TIP3   OH235955   0.935   2.723  14.180 -0.1648 -0.2630 -0.0015
 4847TIP3    H135956   0.846   2.699  14.208 -0.7883  0.8842 -0.9202
 4847TIP3    H235957   0.932   2.818  14.172  0.9532 -0.2816 -0.7544
 4848TIP3   OH235958   3.019   3.297  13.768  0.5170  0.0249  0.2982
 4848TIP3    H135959   3.024   3.203  13.781 -1.1380 -0.0903  0.3510
 4848TIP3    H235960   3.095   3.333  13.814  1.5985 -1.3231 -0.3806
 4849TIP3   OH235961   4.204   4.286   6.495  0.2820 -0.1443 -0.5106
 4849TIP3    H135962   4.173   4.352   6.433 -1.6754 -2.0282 -1.6244
 4849TIP3    H235963   4.125   4.256   6.540  1.5181  0.4465  2.2935
 4850TIP3   OH235964   1.340   6.630   1.146  0.0466  0.5018 -0.3277
 4850TIP3    H135965   1.410   6.592   1.094  0.6577  2.1003 -0.7214
 4850TIP3    H235966   1.286   6.678   1.083 -0.4123  0.7033  0.2048
 4851TIP3   OH235967   2.002   3.783   6.179  0.0858  0.0567  0.2754
 4851TIP3    H135968   1.953   3.703   6.195 -0.4851  0.1318 -0.9543
 4851TIP3    H235969   1.943   3.853   6.206 -0.4370  0.1390 -1.0086
 4852TIP3   OH235970   3.621   1.942   4.126 -0.3177  0.4535  0.0115
 4852TIP3    H135971   3.566   1.979   4.195  1.7709 -0.4092  2.2486
 4852TIP3    H235972   3.605   1.848   4.130 -1.0542  0.4803 -1.5415
 4853TIP3   OH235973   1.583   2.184  14.021  0.3148  0.2103  0.2642
 4853TIP3    H135974   1.494   2.168  13.989  0.3437  1.1860 -0.3478
 4853TIP3    H235975   1.570   2.234  14.102  0.2987 -0.0498  0.4235
 4854TIP3   OH235976   6.089   4.738  11.390  0.1124 -0.0478 -0.0293
 4854TIP3    H135977   6.007   4.737  11.439 -0.2509  1.9935 -0.5091
 4854TIP3    H235978   6.135   4.658  11.417 -0.5326  0.4553  2.7699
 4855TIP3   OH235979   1.381   3.621  11.429 -0.2210  0.3425  0.3145
 4855TIP3    H135980   1.288   3.601  11.439 -0.3737  0.7634 -0.2025
 4855TIP3    H235981   1.383   3.698  11.373  0.3398  1.8292  2.2516
 4856TIP3   OH235982   5.298   4.343  15.280  0.3849 -0.0826 -0.2847
 4856TIP3    H135983   5.236   4.393  15.332  1.3058  1.3943 -0.5660
 4856TIP3    H235984   5.363   4.313  15.343  0.9556  0.8570 -0.4116
 4857TIP3   OH235985   3.859   2.404  12.951  0.1529 -0.0585 -0.2763
 4857TIP3    H135986   3.798   2.338  12.984  0.2848 -0.4007 -0.7043
 4857TIP3    H235987   3.813   2.487  12.959 -0.1116 -0.2337  0.0294
 4858TIP3   OH235988   4.882   4.954  14.775 -0.6194  0.0918 -0.0737
 4858TIP3    H135989   4.939   4.947  14.852 -0.6965 -0.2623 -0.0485
 4858TIP3    H235990   4.883   5.047  14.753 -1.9643  0.4962  1.3859
 4859TIP3   OH235991   2.817   3.502   0.839 -0.0279  0.5158 -0.0490
 4859TIP3    H135992   2.864   3.585   0.836 -0.4615  0.8946  2.2376
 4859TIP3    H235993   2.886   3.436   0.851  0.2417  0.5830 -1.0809
 4860TIP3   OH235994   5.229   5.267  15.117 -0.5430  0.5776  0.2830
 4860TIP3    H135995   5.185   5.272  15.032  0.5558  1.0949 -0.2766
 4860TIP3    H235996   5.275   5.351  15.125 -0.0644  0.2531  1.0658
 4861TIP3   OH235997   1.071   4.786  15.023  0.2598  0.1220  0.3404
 4861TIP3    H135998   0.997   4.836  15.057 -0.6757 -1.4829  0.7364
 4861TIP3    H235999   1.033   4.732  14.954  1.2003 -0.2465  0.1020
 4862TIP3   OH236000   3.271   1.808   2.815  0.7982 -0.1499 -0.3300
 4862TIP3    H136001   3.262   1.849   2.729  1.8513  1.8216  0.4474
 4862TIP3    H236002   3.292   1.716   2.795  0.4061  0.1179 -2.1493
 4863TIP3   OH236003   6.687   2.854  15.799  0.4191 -0.1040  0.2215
 4863TIP3    H136004   6.681   2.791  15.871  0.5835 -2.3839 -1.6203
 4863TIP3    H236005   6.771   2.833  15.757 -0.7471 -0.5486 -2.0391
 4864TIP3   OH236006   3.611   2.654  13.448  0.5335  0.4088 -0.5680
 4864TIP3    H136007   3.593   2.744  13.423  0.2305  0.4531 -0.2061
 4864TIP3    H236008   3.555   2.601  13.391  0.3399  0.4775 -0.4438
 4865TIP3   OH236009   3.765   4.215  12.166 -0.0348 -0.0791 -0.2086
 4865TIP3    H136010   3.691   4.233  12.224 -0.3335 -0.0825 -0.5813
 4865TIP3    H236011   3.842   4.214  12.224 -0.1837  1.0376  0.0279
 4866TIP3   OH236012   4.837   0.680   3.459  0.2852  0.5602  0.9924
 4866TIP3    H136013   4.753   0.650   3.494  0.2451 -0.5005  0.0411
 4866TIP3    H236014   4.864   0.612   3.398  1.3424  1.3823  0.4934
 4867TIP3   OH236015   3.236   2.199  11.719 -0.1612  0.1623 -0.1794
 4867TIP3    H136016   3.212   2.254  11.794 -0.5887 -1.8313  1.2047
 4867TIP3    H236017   3.331   2.194  11.723 -0.1196  0.7671 -0.2982
 4868TIP3   OH236018   6.608   3.729  15.477 -0.3183 -0.4430  0.0345
 4868TIP3    H136019   6.627   3.680  15.396  1.4811 -0.8858  0.6758
 4868TIP3    H236020   6.539   3.791  15.452 -0.4686 -1.2173 -1.5927
 4869TIP3   OH236021   1.017   3.891  11.062  0.6631 -0.2753  0.8686
 4869TIP3    H136022   1.092   3.835  11.081 -1.1141 -2.4540  1.9181
 4869TIP3    H236023   0.941   3.835  11.075 -1.2105  2.0411  0.6149
 4870TIP3   OH236024   3.163   1.607  17.048 -0.2424  0.1003  1.2778
 4870TIP3    H136025   3.075   1.610  17.011 -0.5551  1.2353  2.0616
 4870TIP3    H236026   3.163   1.676  17.114  0.9786 -0.4479  1.8660
 4871TIP3   OH236027   6.172   3.348  12.671  0.1787  0.2637 -1.1810
 4871TIP3    H136028   6.118   3.273  12.646 -0.8297  1.5040 -2.9930
 4871TIP3    H236029   6.262   3.316  12.663 -0.1857 -1.5595  0.9352
 4872TIP3   OH236030   2.874   6.336   1.810  0.2059  0.2468 -0.4541
 4872TIP3    H136031   2.795   6.283   1.820  0.2172  0.1867 -0.6923
 4872TIP3    H236032   2.870   6.370   1.721  0.3640  0.3810 -0.4108
 4873TIP3   OH236033   3.973   1.379  14.492  0.0217 -0.1919  0.3743
 4873TIP3    H136034   4.004   1.469  14.478  0.8852 -0.5485 -0.0415
 4873TIP3    H236035   3.941   1.379  14.582  1.5432  0.1141  0.9372
 4874TIP3   OH236036   4.780   0.579  10.719 -0.3392  0.0749 -0.3478
 4874TIP3    H136037   4.757   0.569  10.812 -0.7845  1.5656 -0.2607
 4874TIP3    H236038   4.757   0.495  10.680 -0.1253 -0.5932  0.8886
 4875TIP3   OH236039   4.841   0.897  14.788 -0.1711  0.1982 -0.4854
 4875TIP3    H136040   4.926   0.912  14.829 -0.7684  1.1623  0.4688
 4875TIP3    H236041   4.861   0.847  14.709  1.2907  0.5463 -0.3738
 4876TIP3   OH236042   6.248   2.015   0.348 -0.2807  0.0529 -0.8907
 4876TIP3    H136043   6.173   2.045   0.399  1.1976  1.1721  0.8014
 4876TIP3    H236044   6.267   2.087   0.288  1.4859  1.3900  1.1313
 4877TIP3   OH236045   2.045   3.732  16.877  0.4755  0.0759 -0.1823
 4877TIP3    H136046   2.061   3.824  16.856  2.7727 -0.7879 -2.8819
 4877TIP3    H236047   2.132   3.695  16.891 -0.1347 -2.1530 -1.6866
 4878TIP3   OH236048   1.693   4.144   3.111  0.7847  0.1289  0.4833
 4878TIP3    H136049   1.736   4.059   3.100  2.2462  0.7575  1.0794
 4878TIP3    H236050   1.655   4.163   3.025  1.1279 -0.7607  0.1257
 4879TIP3   OH236051   6.157   5.658   4.494 -0.3765  0.0968 -0.1127
 4879TIP3    H136052   6.191   5.721   4.557  0.1390 -0.1825 -0.1093
 4879TIP3    H236053   6.062   5.660   4.507 -0.3360  0.6072  0.1348
 4880TIP3   OH236054   4.980   2.674  11.676 -0.0167  0.0152  0.3657
 4880TIP3    H136055   5.003   2.744  11.615 -2.7301  1.4850  0.8606
 4880TIP3    H236056   4.912   2.713  11.732 -1.0720 -2.7813  1.1765
 4881TIP3   OH236057   1.920   3.349   5.240 -0.5144 -0.2644  0.2518
 4881TIP3    H136058   1.968   3.323   5.161 -1.0569 -2.0616  0.4669
 4881TIP3    H236059   1.915   3.270   5.292 -1.7174  0.4610  1.2922
 4882TIP3   OH236060   0.649   6.525   3.022  0.0034 -0.5380 -0.5256
 4882TIP3    H136061   0.706   6.601   3.032 -2.1020  0.8417  2.9361
 4882TIP3    H236062   0.705   6.450   3.044  0.8486  0.6683  1.7718
 4883TIP3   OH236063   3.710   5.387   4.460  0.2455  0.5108  0.2747
 4883TIP3    H136064   3.754   5.355   4.381  0.2407  1.0253  0.0556
 4883TIP3    H236065   3.766   5.359   4.532 -0.7663 -1.7133  0.2669
 4884TIP3   OH236066   0.260   1.757   5.581  0.1708 -0.1325  0.1053
 4884TIP3    H136067   0.229   1.841   5.548  1.5026  0.4871  0.3609
 4884TIP3    H236068   0.218   1.748   5.667  2.1776  1.6671  1.3665
 4885TIP3   OH236069   3.798   2.550   2.693 -0.1847  0.4469 -0.3381
 4885TIP3    H136070   3.788   2.642   2.715 -0.2819  1.0355 -2.5873
 4885TIP3    H236071   3.881   2.546   2.644  0.1519 -0.7735  0.2946
 4886TIP3   OH236072   4.419   1.270   4.537  0.1380  0.1957  0.2282
 4886TIP3    H136073   4.404   1.281   4.631  1.9565  0.6126  0.4988
 4886TIP3    H236074   4.451   1.354   4.507 -0.2630  0.0149 -0.7528
 4887TIP3   OH236075   4.932   4.795  11.613 -0.2575  0.5688 -0.5093
 4887TIP3    H136076   4.909   4.705  11.592 -0.5502  0.0373  1.7619
 4887TIP3    H236077   4.980   4.789  11.696 -0.7231  2.5235 -0.0342
 4888TIP3   OH236078   4.748   4.211  13.253 -0.1501  0.1233  0.2643
 4888TIP3    H136079   4.784   4.256  13.330 -1.5340 -0.4831  1.3163
 4888TIP3    H236080   4.693   4.141  13.290 -0.4714 -0.4877 -1.2906
 4889TIP3   OH236081   5.437   4.173   1.147  0.5305 -0.4684 -0.6510
 4889TIP3    H136082   5.343   4.156   1.155  0.3893  0.5748  0.1011
 4889TIP3    H236083   5.449   4.260   1.184  1.8468 -0.7120 -0.4560
 4890TIP3   OH236084   1.841   6.153  15.337 -0.0381 -0.1594  0.5289
 4890TIP3    H136085   1.808   6.212  15.269 -1.0622 -0.5535  0.6599
 4890TIP3    H236086   1.936   6.157  15.329 -0.0878  1.4002  0.4497
 4891TIP3   OH236087   2.283   4.688   6.643  0.3130  0.6578 -0.5838
 4891TIP3    H136088   2.208   4.714   6.696 -0.5624 -0.5883 -1.1673
 4891TIP3    H236089   2.344   4.761   6.650 -1.1841  1.9520 -0.5556
 4892TIP3   OH236090   3.182   6.009  14.605  0.0001 -0.2688 -0.5463
 4892TIP3    H136091   3.173   5.980  14.696  0.0364  1.3122  0.0015
 4892TIP3    H236092   3.267   6.052  14.602  0.7315 -1.7272 -1.7692
 4893TIP3   OH236093   3.781   4.537  12.663  0.0764  0.6323 -0.3836
 4893TIP3    H136094   3.720   4.464  12.651  1.4572 -0.5644 -0.2948
 4893TIP3    H236095   3.847   4.526  12.595  0.4438  1.6769 -0.2282
 4894TIP3   OH236096   4.723   3.961  15.874 -0.7991 -0.0251  0.1979
 4894TIP3    H136097   4.796   3.938  15.816  0.1136  0.3842  1.1602
 4894TIP3    H236098   4.747   4.047  15.910 -1.1914 -0.4097  1.4278
 4895TIP3   OH236099   1.842   6.460  12.912 -0.3315 -0.1370  0.1084
 4895TIP3    H136100   1.804   6.383  12.954 -0.9408 -0.2560 -0.6328
 4895TIP3    H236101   1.864   6.519  12.984 -0.4556 -0.7342  0.6425
 4896TIP3   OH236102   1.572   5.628  14.218 -0.1993  0.2608  0.6231
 4896TIP3    H136103   1.617   5.546  14.198  0.8948  0.9941 -0.0420
 4896TIP3    H236104   1.571   5.676  14.136  0.9355  1.7208  1.4058
 4897TIP3   OH236105   4.448   5.790  15.427 -0.4556  0.3379 -0.6213
 4897TIP3    H136106   4.490   5.767  15.510 -1.5432  0.0788 -0.1297
 4897TIP3    H236107   4.411   5.708  15.394 -2.5203  0.9153  0.0936
 4898TIP3   OH236108   0.228   3.167   3.244 -0.0760 -0.5047 -0.3916
 4898TIP3    H136109   0.249   3.145   3.334  0.3481  0.9035 -0.1214
 4898TIP3    H236110   0.144   3.211   3.249 -0.4927 -1.2394 -0.8066
 4899TIP3   OH236111   1.842   5.187   0.613 -0.2123 -0.2373  0.0286
 4899TIP3    H136112   1.891   5.250   0.666  0.9997 -2.4210  1.6964
 4899TIP3    H236113   1.900   5.165   0.541 -0.2048 -0.1966  0.0225
 4900TIP3   OH236114   1.158   4.576   2.355 -0.5553 -0.3847  0.5776
 4900TIP3    H136115   1.250   4.583   2.382 -0.4341 -1.3836  0.4635
 4900TIP3    H236116   1.163   4.567   2.259 -0.9219  2.0042  0.2576
 4901TIP3   OH236117   1.475   0.124  11.459 -0.8955  0.2701  0.6042
 4901TIP3    H136118   1.494   0.217  11.447  0.5955 -0.2974 -2.3070
 4901TIP3    H236119   1.388   0.112  11.423 -0.3040  0.2535 -0.8810
 4902TIP3   OH236120   5.352   1.809  10.708  0.4346  0.4489 -0.5527
 4902TIP3    H136121   5.261   1.825  10.680  1.2556  2.1205 -2.5152
 4902TIP3    H236122   5.405   1.849  10.640  2.6734  1.5194  1.6624
 4903TIP3   OH236123   0.065   4.130  14.811 -0.2560 -0.2328 -0.7866
 4903TIP3    H136124   0.090   4.148  14.901 -0.1139  1.4049 -1.1241
 4903TIP3    H236125  -0.031   4.131  14.812 -0.2543 -0.1889 -0.6591
 4904TIP3   OH236126   1.082   0.587   5.725  0.7803  0.5297 -0.0304
 4904TIP3    H136127   1.000   0.628   5.755  0.0384 -0.3566 -0.7561
 4904TIP3    H236128   1.106   0.637   5.647  0.2225  0.0228 -0.5455
 4905TIP3   OH236129   0.689   6.279  10.579 -0.0256 -0.4523 -0.5241
 4905TIP3    H136130   0.777   6.242  10.583  0.0744 -0.1424  0.5326
 4905TIP3    H236131   0.691   6.352  10.641 -0.2828  1.2288 -2.4051
 4906TIP3   OH236132   5.529   4.163  14.579  0.0839  0.0497 -0.2293
 4906TIP3    H136133   5.484   4.192  14.659  2.2616  0.2427  0.9957
 4906TIP3    H236134   5.535   4.068  14.588 -0.1943  0.0042 -0.4850
 4907TIP3   OH236135   2.674   0.725  15.927 -0.3698  0.3927 -0.7006
 4907TIP3    H136136   2.581   0.710  15.936 -0.4966  1.2031 -0.5238
 4907TIP3    H236137   2.711   0.640  15.904 -1.0708 -0.0502 -0.2040
 4908TIP3   OH236138   6.534   4.007  16.010  0.1498 -1.0432  0.3712
 4908TIP3    H136139   6.588   3.995  16.088  0.7716 -0.9985 -0.0472
 4908TIP3    H236140   6.596   4.019  15.938 -0.3081 -3.3234 -0.5350
 4909TIP3   OH236141   4.040   5.824  10.702  0.1353 -0.0924 -0.1103
 4909TIP3    H136142   3.966   5.851  10.647 -0.0054 -1.0385 -0.4065
 4909TIP3    H236143   4.012   5.844  10.791  1.2385  3.5084 -0.4501
 4910TIP3   OH236144   6.381   5.533  13.282 -0.4498  0.0429  0.3787
 4910TIP3    H136145   6.402   5.454  13.232  0.7152  0.7561 -0.3102
 4910TIP3    H236146   6.346   5.501  13.365  0.2434 -1.2121  0.2112
 4911TIP3   OH236147   2.219   1.131   1.002 -0.3771 -0.0118  0.3022
 4911TIP3    H136148   2.201   1.225   1.000  2.2528  0.5468 -1.7906
 4911TIP3    H236149   2.213   1.103   0.911  1.6747 -1.2358  0.4716
 4912TIP3   OH236150   4.768   5.871  13.670 -0.3253 -0.4954  0.3445
 4912TIP3    H136151   4.796   5.838  13.755 -2.6482  0.8081  1.7299
 4912TIP3    H236152   4.675   5.847  13.664  0.0544 -1.6281 -2.4238
 4913TIP3   OH236153   6.674   6.375  15.651  0.2543 -0.4385  0.2754
 4913TIP3    H136154   6.720   6.326  15.582 -0.2130  0.0741 -0.4197
 4913TIP3    H236155   6.639   6.452  15.606  0.3178  0.1406  1.1844
 4914TIP3   OH236156   2.038   2.734  13.558  0.1634  0.0559  0.2720
 4914TIP3    H136157   2.060   2.760  13.468  0.5595 -2.0400 -0.2892
 4914TIP3    H236158   2.097   2.785  13.613 -0.5924  1.9257 -0.5784
 4915TIP3   OH236159   3.875   6.199   1.619  0.3606  0.9851  0.8223
 4915TIP3    H136160   3.857   6.247   1.538  0.9712 -0.3764 -0.1478
 4915TIP3    H236161   3.962   6.229   1.645  0.9640  0.0651 -0.0661
 4916TIP3   OH236162   1.063   6.346   1.777  0.1665  0.0801  0.1740
 4916TIP3    H136163   1.110   6.288   1.717  1.3991  1.4760 -0.2800
 4916TIP3    H236164   1.131   6.406   1.810 -1.0115  1.1026  0.8175
 4917TIP3   OH236165   0.091   6.421   3.974  0.2391  0.0004  0.7490
 4917TIP3    H136166   0.105   6.360   3.902  2.1813 -0.2575  1.2630
 4917TIP3    H236167   0.022   6.382   4.027 -1.3740  0.3096 -1.0462
 4918TIP3   OH236168   6.317   2.826   4.141 -0.0903  0.0450  0.3206
 4918TIP3    H136169   6.403   2.784   4.152 -0.4424 -0.3647  1.7543
 4918TIP3    H236170   6.263   2.760   4.099  0.3645  0.4162 -0.8858
 4919TIP3   OH236171   5.756   3.219   0.240  0.1690  0.1197  0.3517
 4919TIP3    H136172   5.724   3.307   0.224  1.8362  0.4897 -1.2652
 4919TIP3    H236173   5.798   3.193   0.158 -0.8501 -2.4558  0.5656
 4920TIP3   OH236174   4.576   5.956   4.712 -0.1694 -0.6397  0.0621
 4920TIP3    H136175   4.567   5.947   4.806  0.2696  1.6701  0.3819
 4920TIP3    H236176   4.540   6.043   4.692  1.2606 -0.3678 -1.6419
 4921TIP3   OH236177   0.701   4.858  11.198  0.3718 -0.1508  0.4090
 4921TIP3    H136178   0.768   4.792  11.217  1.2556  0.9892  1.4027
 4921TIP3    H236179   0.708   4.874  11.104  1.1594 -0.3986  0.4240
 4922TIP3   OH236180   4.058   4.229   2.979 -0.2042 -0.4957 -0.2868
 4922TIP3    H136181   4.133   4.258   3.031 -0.9884  0.5367  0.3014
 4922TIP3    H236182   4.029   4.149   3.023  1.7555 -2.1050 -1.7150
 4923TIP3   OH236183   5.589   2.626  16.757 -0.5233  0.4671  0.2997
 4923TIP3    H136184   5.682   2.640  16.739 -0.4774 -0.1895 -0.0094
 4923TIP3    H236185   5.584   2.537  16.792 -1.0508  0.4343  0.1594
 4924TIP3   OH236186   2.203   4.284   0.049 -0.6726 -0.4894  0.1454
 4924TIP3    H136187   2.129   4.308  -0.007 -0.0691  0.5878 -0.2104
 4924TIP3    H236188   2.237   4.204   0.009 -0.5273  0.0151 -0.7906
 4925TIP3   OH236189   5.383   3.938   2.358 -0.1811 -0.0664 -0.2744
 4925TIP3    H136190   5.418   3.995   2.426 -1.1803  0.9737 -0.5783
 4925TIP3    H236191   5.449   3.940   2.288 -0.9552  2.2765 -1.0606
 4926TIP3   OH236192   6.780   0.839  12.170 -0.1397  0.1660  0.2283
 4926TIP3    H136193   6.852   0.902  12.165 -0.5551  0.6922  0.7434
 4926TIP3    H236194   6.822   0.753  12.161  0.3565  0.5329 -1.1792
 4927TIP3   OH236195   1.718   0.482  16.843  0.5894 -0.2682  0.1283
 4927TIP3    H136196   1.758   0.521  16.921  0.5321 -0.2011  0.1244
 4927TIP3    H236197   1.737   0.545  16.773 -0.8455  0.5283  0.4233
 4928TIP3   OH236198   4.022   0.044  12.961 -0.0002 -0.1979  0.1841
 4928TIP3    H136199   4.067   0.006  13.037  1.0234 -0.0430 -0.3174
 4928TIP3    H236200   3.972  -0.028  12.923  1.8965 -1.0991 -0.7435
 4929TIP3   OH236201   0.911   1.460  12.900  0.2057  0.4140 -0.2297
 4929TIP3    H136202   0.935   1.431  12.988 -2.3512 -0.9553  0.1108
 4929TIP3    H236203   0.938   1.388  12.842  2.0308  1.3795 -0.6608
 4930TIP3   OH236204   6.162   6.603   1.696  0.0707 -0.1965 -0.7795
 4930TIP3    H136205   6.126   6.690   1.677 -0.4269 -0.0103  0.8152
 4930TIP3    H236206   6.166   6.559   1.611  0.1356  1.3083 -1.5856
 4931TIP3   OH236207   2.568   6.498  16.971  0.5187  0.1943 -0.1424
 4931TIP3    H136208   2.477   6.525  16.958 -0.1252 -2.6723 -2.4682
 4931TIP3    H236209   2.577   6.490  17.066 -1.4283  1.1686  0.1744
 4932TIP3   OH236210   1.114   3.581  13.065  0.2108 -0.6041 -0.1260
 4932TIP3    H136211   1.160   3.636  13.128 -0.0436 -0.7146  0.1583
 4932TIP3    H236212   1.145   3.612  12.980 -0.1387  0.1817  0.0209
 4933TIP3   OH236213   1.564   6.668   0.069 -0.5161  0.3926  0.2771
 4933TIP3    H136214   1.613   6.746   0.043 -0.6231  0.4320  0.1884
 4933TIP3    H236215   1.508   6.698   0.141 -0.7289  0.4570  0.0868
 4934TIP3   OH236216   4.011   5.632   2.597  0.8476 -0.1902 -0.4038
 4934TIP3    H136217   4.078   5.586   2.647  1.6526 -0.4878 -1.7044
 4934TIP3    H236218   4.002   5.716   2.642  1.2193 -0.6069  0.4883
 4935TIP3   OH236219   0.478   1.174  15.150  0.6903 -0.3744  0.4505
 4935TIP3    H136220   0.506   1.180  15.059 -1.4517 -0.0585 -0.2325
 4935TIP3    H236221   0.478   1.264  15.182 -0.6545 -0.2103  0.0547
 4936TIP3   OH236222   1.563   1.397  16.778  0.0201 -0.0766 -0.3034
 4936TIP3    H136223   1.636   1.373  16.720  1.3519  2.5976  0.1007
 4936TIP3    H236224   1.524   1.474  16.737 -0.1501  0.7935  1.4193
 4937TIP3   OH236225   2.451   0.987   3.994 -0.6094  0.3445  0.0467
 4937TIP3    H136226   2.519   1.050   3.972 -0.3152  0.6485  1.7379
 4937TIP3    H236227   2.498   0.907   4.015 -0.9898 -0.6115 -2.3464
 4938TIP3   OH236228   4.861   5.750  13.930  0.5414  0.1881  0.5866
 4938TIP3    H136229   4.879   5.665  13.971  1.3494  0.1544  0.1747
 4938TIP3    H236230   4.946   5.792  13.923  0.7001 -0.3705 -2.2995
 4939TIP3   OH236231   0.552   6.638   3.759 -0.3082  0.7257  0.3718
 4939TIP3    H136232   0.569   6.707   3.694  1.2501  1.6280  1.6747
 4939TIP3    H236233   0.488   6.677   3.818 -2.5279 -0.4677 -1.1052
 4940TIP3   OH236234   5.533   0.971  11.009 -0.2869 -0.2936 -0.1261
 4940TIP3    H136235   5.479   0.994  10.933 -2.8388 -0.6832  1.4398
 4940TIP3    H236236   5.489   0.895  11.047  1.0892 -0.3007  1.5753
 4941TIP3   OH236237   0.347   0.231   6.386  0.5682  0.9938 -0.5241
 4941TIP3    H136238   0.304   0.192   6.463 -0.4115  1.9309 -0.5841
 4941TIP3    H236239   0.438   0.200   6.392  0.0091 -0.6995 -0.1741
 4942TIP3   OH236240   1.969   4.643   3.136 -0.0272 -0.4856  0.2798
 4942TIP3    H136241   1.894   4.647   3.078  0.1748 -0.0482  0.0424
 4942TIP3    H236242   1.979   4.732   3.170 -0.4472 -0.8389  1.3847
 4943TIP3   OH236243   2.402   3.798   4.780 -0.6692  0.2126 -0.5767
 4943TIP3    H136244   2.458   3.818   4.704  0.6839  1.3330  0.6675
 4943TIP3    H236245   2.428   3.710   4.805  0.4762  0.6593 -0.1097
 4944TIP3   OH236246   6.450   2.058   3.674  0.0694  0.2071 -0.8456
 4944TIP3    H136247   6.444   1.967   3.703 -1.0143  1.3338  3.0341
 4944TIP3    H236248   6.531   2.090   3.714 -0.7950  1.5374 -0.1089
 4945TIP3   OH236249   2.810   1.267  12.875 -0.2547  0.3938  0.4890
 4945TIP3    H136250   2.766   1.182  12.880 -0.7812  0.6186 -0.2795
 4945TIP3    H236251   2.746   1.326  12.836  0.4512  0.9146  0.0951
 4946TIP3   OH236252   5.477   2.961  13.095 -0.0734 -0.1254  0.6466
 4946TIP3    H136253   5.515   2.884  13.138 -0.5343 -1.0614 -0.5458
 4946TIP3    H236254   5.548   3.024  13.092  0.8253 -1.1221  0.1933
 4947TIP3   OH236255   3.238   5.413   5.198  0.3298  0.4881  0.3724
 4947TIP3    H136256   3.323   5.436   5.236  1.2049 -0.4407 -0.9299
 4947TIP3    H236257   3.215   5.487   5.142  1.0535  0.0866 -0.4766
 4948TIP3   OH236258   4.266   3.726   3.899 -0.5329 -0.1910 -0.2143
 4948TIP3    H136259   4.234   3.777   3.824 -1.2895 -1.6001 -0.8738
 4948TIP3    H236260   4.352   3.694   3.871 -0.2905  0.2638 -0.0042
 4949TIP3   OH236261   2.765   0.287  11.834  0.2442  0.3924 -0.4633
 4949TIP3    H136262   2.851   0.316  11.866  0.0740 -0.7860  1.2243
 4949TIP3    H236263   2.727   0.365  11.793  3.0580  0.3356 -3.5709
 4950TIP3   OH236264   5.988   3.719   2.687 -0.1328 -0.1616 -0.3037
 4950TIP3    H136265   6.022   3.797   2.644 -1.9282  0.8457  0.0156
 4950TIP3    H236266   6.066   3.672   2.717  1.1582 -0.1905 -3.3175
 4951TIP3   OH236267   3.557   3.901  12.839  0.0335 -0.1018  0.0402
 4951TIP3    H136268   3.602   3.848  12.773 -1.7157  1.3019 -2.4690
 4951TIP3    H236269   3.607   3.982  12.844 -1.1342  0.7471 -1.4213
 4952TIP3   OH236270   2.908   0.062  16.518 -0.2545 -0.2947  0.5851
 4952TIP3    H136271   2.911   0.107  16.603 -1.6004 -1.0011  1.0409
 4952TIP3    H236272   2.898  -0.030  16.541 -0.5053 -0.5013 -0.3435
 4953TIP3   OH236273   3.327   4.309   4.953 -0.1320  0.0004  0.1732
 4953TIP3    H136274   3.363   4.397   4.955 -2.9168  1.2603 -0.5842
 4953TIP3    H236275   3.339   4.276   5.043 -0.1108  1.6256  0.7964
 4954TIP3   OH236276   6.335   3.003  11.442 -0.4506 -0.0805 -0.4200
 4954TIP3    H136277   6.340   3.090  11.480 -0.5937 -0.0922 -0.3738
 4954TIP3    H236278   6.342   3.017  11.348  0.1456 -0.0696 -0.3841
 4955TIP3   OH236279   4.628   2.552  13.340  0.2041 -0.0951 -0.8199
 4955TIP3    H136280   4.641   2.494  13.265 -2.3781 -2.9710  0.7334
 4955TIP3    H236281   4.541   2.588  13.328  0.5237  0.9373 -0.1308
 4956TIP3   OH236282   6.477   1.806  16.603  0.3504  0.4345  0.5987
 4956TIP3    H136283   6.564   1.776  16.575 -0.4720  0.1839 -1.9727
 4956TIP3    H236284   6.438   1.730  16.645  0.3575 -0.4079 -0.8347
 4957TIP3   OH236285   0.757   2.893   2.055 -0.1008 -0.5302  0.3390
 4957TIP3    H136286   0.674   2.854   2.025  0.7107 -1.5090 -0.7328
 4957TIP3    H236287   0.742   2.987   2.053 -0.2808 -0.5509 -2.7100
 4958TIP3   OH236288   0.012   3.168   2.022 -0.4417 -0.3516  0.1443
 4958TIP3    H136289   0.090   3.166   1.968  0.3529  0.7835  1.1919
 4958TIP3    H236290  -0.057   3.204   1.966  0.0555 -0.3560 -0.4659
 4959TIP3   OH236291   5.454   0.442  13.611 -0.0108 -0.2564  0.8256
 4959TIP3    H136292   5.405   0.361  13.599  3.2106 -2.1227 -1.2603
 4959TIP3    H236293   5.411   0.505  13.553 -0.6989 -1.4396  0.0144
 4960TIP3   OH236294   3.691   6.219  16.214 -0.1567 -0.4053  0.3879
 4960TIP3    H136295   3.729   6.250  16.132  0.7135  0.1743  0.9967
 4960TIP3    H236296   3.700   6.124  16.210 -0.4694 -0.4119 -0.3468
 4961TIP3   OH236297   2.686   0.858   6.645 -0.0055  0.9060 -0.2579
 4961TIP3    H136298   2.633   0.816   6.578 -0.6759  1.3808 -0.0270
 4961TIP3    H236299   2.641   0.840   6.727  2.1849 -2.0103  0.4855
 4962TIP3   OH236300   0.198   3.285  13.905  0.1616 -0.3667 -0.0579
 4962TIP3    H136301   0.226   3.313  13.818  0.9696 -1.0921 -0.0508
 4962TIP3    H236302   0.152   3.202  13.890 -0.6287  0.0299  0.1051
 4963TIP3   OH236303   2.462   4.440  15.962 -0.1513  0.1636  0.1226
 4963TIP3    H136304   2.391   4.409  15.906 -0.4674  0.0256  0.5924
 4963TIP3    H236305   2.531   4.374  15.953 -0.5734 -0.3487  0.6283
 4964TIP3   OH236306   1.845   5.128  15.697 -0.3649 -0.1979  0.1439
 4964TIP3    H136307   1.829   5.218  15.726 -0.5363  0.1751 -1.0568
 4964TIP3    H236308   1.772   5.109  15.638 -0.4907 -1.2440  0.6106
 4965TIP3   OH236309   0.967   0.562   2.312 -0.5670  0.3552  0.6738
 4965TIP3    H136310   0.895   0.547   2.251 -1.5434  0.6438  1.7340
 4965TIP3    H236311   1.011   0.640   2.279  0.1607 -0.6078 -0.7802
 4966TIP3   OH236312   2.515   4.199  13.476 -0.3963 -0.2063  0.5385
 4966TIP3    H136313   2.561   4.134  13.423  1.7968  1.7673 -0.1684
 4966TIP3    H236314   2.526   4.169  13.566 -1.5811 -2.0369  0.1272
 4967TIP3   OH236315   0.547   2.409   1.177 -0.4222 -0.3885 -0.1383
 4967TIP3    H136316   0.491   2.339   1.145  1.3244 -1.9492  0.0433
 4967TIP3    H236317   0.613   2.420   1.109 -0.1946  0.4988  0.2166
 4968TIP3   OH236318   5.291   5.159   5.811 -0.0786 -0.4449 -0.2984
 4968TIP3    H136319   5.226   5.190   5.874  1.6733  0.8160  0.9974
 4968TIP3    H236320   5.249   5.086   5.766 -3.3167  1.8400 -1.3340
 4969TIP3   OH236321   0.876   4.965   5.803 -0.0028 -0.0022  0.0110
 4969TIP3    H136322   0.841   4.990   5.888  0.7568 -0.7758  0.5695
 4969TIP3    H236323   0.803   4.924   5.758  0.1485 -1.6698  1.1827
 4970TIP3   OH236324   1.268   3.504  14.834  0.2401  0.2650 -0.4634
 4970TIP3    H136325   1.324   3.435  14.798  0.5583  0.2495  0.0371
 4970TIP3    H236326   1.184   3.492  14.792 -1.7018 -4.2327  3.7072
 4971TIP3   OH236327   1.482   3.430   4.282 -0.2132  0.4464  0.3260
 4971TIP3    H136328   1.535   3.506   4.304  0.1532  0.1928  0.3278
 4971TIP3    H236329   1.526   3.391   4.207 -0.2838  0.1238  0.4488
 4972TIP3   OH236330   6.773   5.148  10.778  0.0476  0.5512  0.1190
 4972TIP3    H136331   6.680   5.157  10.802 -0.5883 -0.5345 -1.7308
 4972TIP3    H236332   6.819   5.148  10.862 -1.6485  0.8604  1.1000
 4973TIP3   OH236333   0.460   5.462  14.400  0.6379 -0.5859  0.4071
 4973TIP3    H136334   0.440   5.382  14.448 -1.8281 -0.4027 -0.1646
 4973TIP3    H236335   0.555   5.470  14.405  0.7906 -2.5665  2.0022
 4974TIP3   OH236336   1.482   4.503  13.553 -0.2846 -0.0615 -0.0477
 4974TIP3    H136337   1.521   4.573  13.500 -2.5685  2.3327  1.2160
 4974TIP3    H236338   1.550   4.482  13.617  0.7526  0.4273 -0.9513
 4975TIP3   OH236339   1.139   5.669   2.958 -0.1229 -0.0647 -0.3842
 4975TIP3    H136340   1.074   5.696   2.893  0.6471  3.2760  0.0410
 4975TIP3    H236341   1.088   5.642   3.034 -0.9934 -0.6568 -1.1600
 4976TIP3   OH236342   1.381   1.737   3.034  0.3747  0.3585  0.3621
 4976TIP3    H136343   1.378   1.830   3.058 -1.7249  0.1839  0.9036
 4976TIP3    H236344   1.376   1.690   3.117 -3.0144 -0.2154 -0.0119
 4977TIP3   OH236345   6.057   0.503  13.158 -0.3405  0.3568  0.2842
 4977TIP3    H136346   6.094   0.426  13.115 -0.7083 -1.2561  2.6787
 4977TIP3    H236347   6.113   0.517  13.234  0.0025  2.8132 -0.3186
 4978TIP3   OH236348   1.333   3.214   1.429 -0.1461  0.0540 -0.3552
 4978TIP3    H136349   1.422   3.185   1.448 -0.0624  0.2351 -0.4735
 4978TIP3    H236350   1.338   3.253   1.342 -0.0639  1.2235  0.1425
 4979TIP3   OH236351   3.365   4.370   1.426 -0.1086  0.0800 -0.3760
 4979TIP3    H136352   3.378   4.460   1.455 -0.5864  0.2403 -0.6460
 4979TIP3    H236353   3.416   4.364   1.345 -0.2189  0.1631 -0.4527
 4980TIP3   OH236354   1.513   1.077   1.020  0.2098  0.2053  0.0119
 4980TIP3    H136355   1.496   1.119   1.104 -0.2863  0.5302 -0.2452
 4980TIP3    H236356   1.494   0.985   1.035  0.0958  0.2663  0.2468
 4981TIP3   OH236357   0.520   0.534  13.215 -0.0888  0.4330 -0.0768
 4981TIP3    H136358   0.602   0.489  13.195  0.1360  0.9665 -0.3866
 4981TIP3    H236359   0.516   0.536  13.310  0.1074  0.1359 -0.0611
 4982TIP3   OH236360   5.003   2.713  16.369  0.2248  0.0444  0.4530
 4982TIP3    H136361   4.976   2.805  16.366  0.4062  0.1329  1.4240
 4982TIP3    H236362   5.053   2.705  16.450  1.4484 -0.5816 -0.3248
 4983TIP3   OH236363   4.949   5.033  12.765  0.1694 -0.2705  0.1461
 4983TIP3    H136364   4.976   5.096  12.831 -0.8950 -0.6585  0.9897
 4983TIP3    H236365   4.916   5.087  12.693  2.6938  0.1976 -0.7631
 4984TIP3   OH236366   5.139   2.119  14.726  0.1202 -0.2031  0.4924
 4984TIP3    H136367   5.130   2.109  14.631 -0.9283 -0.1282  0.5705
 4984TIP3    H236368   5.195   2.047  14.753  1.1099  0.2521 -0.2841
 4985TIP3   OH236369   2.489   0.686  12.885  0.0537  0.5664  0.2896
 4985TIP3    H136370   2.432   0.716  12.815 -0.8844  0.4911  0.9918
 4985TIP3    H236371   2.487   0.756  12.950  0.0326  0.1690  0.7266
 4986TIP3   OH236372   2.819   1.276  11.225 -0.0515 -0.2761 -0.0209
 4986TIP3    H136373   2.804   1.351  11.282  1.7927 -1.1994  1.7877
 4986TIP3    H236374   2.911   1.254  11.237  0.3637 -0.6904 -3.2271
 4987TIP3   OH236375   2.992   2.015  15.169 -0.3725 -0.1947 -0.1689
 4987TIP3    H136376   3.040   2.072  15.229 -1.1202 -0.5259  0.7867
 4987TIP3    H236377   3.050   2.002  15.095  0.1718  1.0670  0.0179
 4988TIP3   OH236378   5.321   2.687   4.950  0.0402  0.4419  0.6793
 4988TIP3    H136379   5.262   2.726   5.014  0.8080 -0.0747  1.7279
 4988TIP3    H236380   5.292   2.722   4.866 -1.4650  0.5508  1.2220
 4989TIP3   OH236381   6.616   0.700  10.785 -0.3855 -0.0210 -0.5246
 4989TIP3    H136382   6.640   0.659  10.701  2.5131 -1.1652  0.7440
 4989TIP3    H236383   6.646   0.791  10.776 -0.9434  0.1197 -1.0395
 4990TIP3   OH236384   2.417   4.372  12.117 -0.0334 -0.0478 -0.6319
 4990TIP3    H136385   2.360   4.316  12.065 -0.2115  0.1911 -0.6977
 4990TIP3    H236386   2.370   4.383  12.200 -0.5586  0.9595 -1.0531
 4991TIP3   OH236387   5.290   4.845   4.264  0.3689 -0.1026  0.3370
 4991TIP3    H136388   5.313   4.821   4.353  0.2048 -1.3829  0.0512
 4991TIP3    H236389   5.245   4.768   4.229  1.2081  0.0419 -1.1380
 4992TIP3   OH236390   1.114   2.376  16.752 -0.0006 -0.2993  0.1514
 4992TIP3    H136391   1.078   2.462  16.731 -0.7914 -0.5610  0.4045
 4992TIP3    H236392   1.177   2.394  16.823 -0.0471  0.0902  0.0980
 4993TIP3   OH236393   3.955   3.854  16.798  0.6686 -0.6061 -0.0313
 4993TIP3    H136394   3.862   3.866  16.818  0.9946  1.6764  0.4011
 4993TIP3    H236395   3.957   3.776  16.743 -1.6322 -0.1503 -0.9075
 4994TIP3   OH236396   2.010   1.146   2.832  0.4310  0.1164 -0.5988
 4994TIP3    H136397   2.102   1.140   2.857  0.1974  0.1365  0.3161
 4994TIP3    H236398   1.971   1.200   2.901 -0.3021 -0.0395 -0.8884
 4995TIP3   OH236399   4.822   0.234   5.025  0.2716  1.4034  0.3476
 4995TIP3    H136400   4.897   0.243   5.084  0.7214  0.3280 -0.0400
 4995TIP3    H236401   4.747   0.223   5.083  0.8818 -1.0152  0.7635
 4996TIP3   OH236402   3.310   0.289   1.335  0.3461 -0.2922 -0.0423
 4996TIP3    H136403   3.303   0.252   1.247 -0.9147  0.1225 -0.1377
 4996TIP3    H236404   3.221   0.287   1.369  0.9549 -1.3079  1.6038
 4997TIP3   OH236405   5.833   5.849   1.048  0.7466 -0.2625  0.3203
 4997TIP3    H136406   5.910   5.833   1.101  0.4141 -3.7242 -0.0260
 4997TIP3    H236407   5.775   5.775   1.066 -1.4941  0.9761 -1.2191
 4998TIP3   OH236408   0.395   6.749   5.707 -0.7049 -0.6460 -0.5135
 4998TIP3    H136409   0.381   6.674   5.765  1.0388 -0.3265  0.3965
 4998TIP3    H236410   0.396   6.825   5.765 -0.6965 -0.1237 -1.1869
 4999TIP3   OH236411   0.291   0.976   4.135  0.3342  0.5256 -0.1659
 4999TIP3    H136412   0.226   0.915   4.169 -1.0534  1.7129 -0.5740
 4999TIP3    H236413   0.261   1.062   4.165  1.9018  1.0959 -0.1099
 5000TIP3   OH236414   5.424   3.849   5.166  0.0109  0.0031  0.0308
 5000TIP3    H136415   5.405   3.777   5.227  0.0249  0.8669  1.0872
 5000TIP3    H236416   5.472   3.913   5.219 -1.1491  1.3889 -0.5308
 5001TIP3   OH236417   3.242   1.125  13.417 -0.1485 -0.4306  0.0268
 5001TIP3    H136418   3.317   1.139  13.360  1.9564 -2.0484  2.1921
 5001TIP3    H236419   3.245   1.198  13.480 -1.0882  0.1011 -0.5243
 5002TIP3   OH236420   1.864   1.455  11.298 -0.5117  0.3175 -0.5668
 5002TIP3    H136421   1.795   1.429  11.237 -0.7681 -0.5243  0.0752
 5002TIP3    H236422   1.822   1.454  11.384  0.6854 -1.7832  0.0502
 5003TIP3   OH236423   2.165   0.807  13.438  0.3731 -0.0406  0.0122
 5003TIP3    H136424   2.189   0.855  13.359 -1.5214 -0.8015 -1.1146
 5003TIP3    H236425   2.100   0.863  13.481  1.3629  0.3507  1.0533
 5004TIP3   OH236426   4.635   1.309  13.965 -0.3268 -0.7458 -0.4851
 5004TIP3    H136427   4.595   1.396  13.971 -1.5325 -1.3690  1.3833
 5004TIP3    H236428   4.728   1.324  13.983 -0.5616  0.1433  0.0785
 5005TIP3   OH236429   2.661   1.854   5.739 -0.1381  0.0076  0.4333
 5005TIP3    H136430   2.729   1.789   5.725  0.1852  0.2090  1.0213
 5005TIP3    H236431   2.579   1.805   5.735  0.1348 -0.5684  1.5898
 5006TIP3   OH236432   1.277   1.323  15.654  0.0395  0.3431  0.0422
 5006TIP3    H136433   1.190   1.351  15.627  0.2988  1.2790  0.1097
 5006TIP3    H236434   1.273   1.228  15.657 -0.7798  0.3498 -0.6191
 5007TIP3   OH236435   2.879   2.426  14.253  0.4826  0.1188  0.1168
 5007TIP3    H136436   2.935   2.349  14.265 -0.0990 -0.4495 -0.7668
 5007TIP3    H236437   2.847   2.420  14.163  1.3720  2.0383 -0.3875
 5008TIP3   OH236438   0.142   3.725   2.486  0.1356  0.1579  0.1185
 5008TIP3    H136439   0.216   3.754   2.539 -0.0041 -1.0131  0.9870
 5008TIP3    H236440   0.172   3.735   2.395  0.9032  0.8258  0.4386
 5009TIP3   OH236441   0.648   6.642  13.163  0.2076  0.1742 -0.4946
 5009TIP3    H136442   0.677   6.558  13.198 -0.5288 -0.9401 -2.3472
 5009TIP3    H236443   0.558   6.652  13.195  0.1528  0.0330 -0.6017
 5010TIP3   OH236444   1.771   1.901  17.147  0.1833 -0.4471  0.8208
 5010TIP3    H136445   1.774   1.806  17.150  0.9884 -0.4847  4.7100
 5010TIP3    H236446   1.863   1.928  17.143 -0.0267  0.2036  0.0223
 5011TIP3   OH236447   3.737   3.070   5.034  0.4942  0.0001 -1.0242
 5011TIP3    H136448   3.726   3.158   5.070 -1.9477 -0.2087 -1.0907
 5011TIP3    H236449   3.831   3.062   5.019  1.0426  1.8237  0.8826
 5012TIP3   OH236450   3.478   4.271  11.793 -0.8438 -0.5610 -0.2955
 5012TIP3    H136451   3.540   4.210  11.834 -0.3563 -0.5030 -0.9170
 5012TIP3    H236452   3.532   4.347  11.770 -1.9175  1.3354  2.8962
 5013TIP3   OH236453   5.631   6.718  13.705  0.4478  0.0410 -0.8931
 5013TIP3    H136454   5.615   6.696  13.796  0.2989 -1.3188 -1.2256
 5013TIP3    H236455   5.687   6.796  13.708  0.3592  0.0694  0.3416
 5014TIP3   OH236456   6.225   4.711  14.850 -0.4530  0.0790 -0.9207
 5014TIP3    H136457   6.176   4.792  14.836 -1.2950 -0.6190 -2.2576
 5014TIP3    H236458   6.218   4.664  14.767  0.8097 -0.9519 -0.4718
 5015TIP3   OH236459   4.433   4.354   4.888 -0.4399  0.6388  0.1049
 5015TIP3    H136460   4.458   4.267   4.856 -0.4060  1.5289 -2.5030
 5015TIP3    H236461   4.511   4.386   4.933  0.8529  0.6756 -2.0190
 5016TIP3   OH236462   6.752   0.184  10.923  0.1658 -0.6351  0.3250
 5016TIP3    H136463   6.840   0.146  10.933  1.1298  1.6464  1.2005
 5016TIP3    H236464   6.764   0.277  10.942 -2.3787 -0.1649 -0.0406
 5017TIP3   OH236465   4.280   2.012   0.335 -0.1535 -1.1099 -0.0993
 5017TIP3    H136466   4.288   2.004   0.240 -1.2817  2.2090 -0.6098
 5017TIP3    H236467   4.186   2.025   0.350  0.2345  0.7247  1.1367
 5018TIP3   OH236468   3.246   3.632  15.501  0.5560 -0.5996 -0.1837
 5018TIP3    H136469   3.188   3.670  15.567  0.3908 -0.3651 -0.4589
 5018TIP3    H236470   3.329   3.619  15.547  0.1642 -1.3448  0.3329
 5019TIP3   OH236471   1.186   6.687   4.213  0.6718  0.6840 -0.1457
 5019TIP3    H136472   1.099   6.653   4.234  0.6091  0.0562 -1.3051
 5019TIP3    H236473   1.189   6.773   4.254 -0.4890  0.7067 -0.0687
 5020TIP3   OH236474   6.693   2.928  12.554  0.2690 -0.3988  0.0974
 5020TIP3    H136475   6.756   2.873  12.508  1.8826  0.4270  1.2170
 5020TIP3    H236476   6.743   2.967  12.626 -1.0895  1.6153  0.0332
 5021TIP3   OH236477   4.183   2.540  12.296  0.3547 -0.2247 -0.4023
 5021TIP3    H136478   4.140   2.510  12.376  0.3416 -0.7270 -0.5943
 5021TIP3    H236479   4.142   2.625  12.277 -0.0926 -0.3974 -0.2273
 5022TIP3   OH236480   5.240   2.846   2.758  0.7277  0.6296  0.1492
 5022TIP3    H136481   5.243   2.782   2.829 -0.3907  1.0289  0.5822
 5022TIP3    H236482   5.168   2.905   2.782  2.4951  2.8079  0.3714
 5023TIP3   OH236483   6.407   1.519   1.511 -0.5064  0.2074 -0.3982
 5023TIP3    H136484   6.477   1.537   1.573  0.3501 -0.1204 -1.2450
 5023TIP3    H236485   6.356   1.600   1.507  1.5939  1.5302 -2.0091
 5024TIP3   OH236486   2.746   6.614   5.381  0.3335 -0.2237  0.1901
 5024TIP3    H136487   2.836   6.643   5.399  0.1370  0.2649  0.3897
 5024TIP3    H236488   2.691   6.669   5.437 -0.3007  1.2279 -1.7774
 5025TIP3   OH236489   2.613   4.345   3.434  0.1889 -0.1872 -0.4536
 5025TIP3    H136490   2.653   4.430   3.451  0.7334 -0.7614  1.3246
 5025TIP3    H236491   2.521   4.365   3.417  0.3450  0.7770 -0.2309
 5026TIP3   OH236492   5.714   3.876  14.252 -0.2267  0.2633  0.6765
 5026TIP3    H136493   5.763   3.797  14.227 -0.0026  0.8628 -0.9003
 5026TIP3    H236494   5.628   3.843  14.279 -0.5483 -0.4812 -1.0885
 5027TIP3   OH236495   1.637   1.758  13.055 -0.5869 -0.3907 -0.3328
 5027TIP3    H136496   1.640   1.827  13.121  2.4363 -2.3610  1.8311
 5027TIP3    H236497   1.621   1.678  13.105 -0.8951 -1.6922 -2.3809
 5028TIP3   OH236498   6.681   2.245  15.092  0.9197 -0.5247 -0.0498
 5028TIP3    H136499   6.766   2.272  15.058  0.3200  0.8115 -0.5643
 5028TIP3    H236500   6.682   2.271  15.184  1.1955 -0.7974  0.0209
 5029TIP3   OH236501   4.024   6.499  14.573 -0.1692  0.1816 -0.3424
 5029TIP3    H136502   4.021   6.478  14.666  0.8510 -0.4324 -0.4403
 5029TIP3    H236503   3.932   6.500  14.547 -0.5037  0.9566  0.7926
 5030TIP3   OH236504   0.765   0.383  13.593 -0.5978 -0.0122  0.3598
 5030TIP3    H136505   0.724   0.369  13.678 -0.5932 -0.8149  0.2442
 5030TIP3    H236506   0.854   0.409  13.612 -0.6208 -0.1122  0.6061
 5031TIP3   OH236507   5.551   6.267   0.130  0.1144 -0.3929  0.2067
 5031TIP3    H136508   5.490   6.321   0.180  0.2710  0.2775 -0.3042
 5031TIP3    H236509   5.519   6.178   0.141 -0.7588 -0.0878  0.2335
 5032TIP3   OH236510   3.035   3.503   5.486  1.1322  0.2029  0.5703
 5032TIP3    H136511   2.973   3.474   5.553  0.9305 -0.2066  0.2120
 5032TIP3    H236512   3.072   3.422   5.451  2.4534  0.4508  1.3085
 5033TIP3   OH236513   1.808   2.102   2.553 -0.5180  0.4734 -0.4163
 5033TIP3    H136514   1.728   2.099   2.606 -0.1208 -3.3907  0.2094
 5033TIP3    H236515   1.877   2.122   2.616 -0.3664 -1.6257  0.1359
 5034TIP3   OH236516   6.617   0.852   3.052  0.2900  0.6685  0.5531
 5034TIP3    H136517   6.661   0.892   2.978 -0.9581  2.9538  0.9647
 5034TIP3    H236518   6.678   0.862   3.125  0.6825  0.2229  0.2950
 5035TIP3   OH236519   5.049   5.913   6.187  0.1449  0.4659  0.6137
 5035TIP3    H136520   4.987   5.840   6.192 -0.4063  0.9379  0.8311
 5035TIP3    H236521   5.125   5.878   6.140 -1.3216  0.5512 -2.0419
 5036TIP3   OH236522   3.793   4.315   6.255 -0.4060  0.1638 -0.5400
 5036TIP3    H136523   3.713   4.305   6.205 -2.4067 -0.5734  2.5161
 5036TIP3    H236524   3.764   4.336   6.344  2.6566 -2.1708  1.2309
 5037TIP3   OH236525   0.657   1.931   0.289  0.2053  0.1855 -0.0886
 5037TIP3    H136526   0.568   1.959   0.310  0.4360  1.2068 -0.3818
 5037TIP3    H236527   0.669   1.849   0.337 -1.6592 -1.1894 -1.7894
 5038TIP3   OH236528   6.084   5.251   2.821 -0.0146  0.5918  0.3209
 5038TIP3    H136529   6.143   5.176   2.825 -1.0980 -0.2692  0.5950
 5038TIP3    H236530   6.023   5.230   2.751  0.5844  1.9308 -0.6529
 5039TIP3   OH236531   4.487   6.494  16.758 -0.0304  0.4049 -0.1047
 5039TIP3    H136532   4.402   6.538  16.747 -0.3367  0.1634  1.1284
 5039TIP3    H236533   4.549   6.565  16.774  0.0976  0.6170 -1.4376
 5040TIP3   OH236534   1.978   4.236  11.883 -0.3598 -0.0575 -0.7526
 5040TIP3    H136535   2.027   4.245  11.965  1.3675 -2.1383 -1.4777
 5040TIP3    H236536   1.977   4.324  11.846  1.0799  0.4301  0.2606
 5041TIP3   OH236537   6.343   2.766  16.389 -0.1839  0.3045 -0.0692
 5041TIP3    H136538   6.257   2.748  16.351 -0.5409 -1.3219  1.3732
 5041TIP3    H236539   6.405   2.724  16.329 -0.5108  0.1321 -0.2922
 5042TIP3   OH236540   1.328   0.028   5.570  0.2476  0.0870 -0.3269
 5042TIP3    H136541   1.336   0.112   5.614  0.7098  0.4735 -1.1284
 5042TIP3    H236542   1.255  -0.015   5.613  1.2141  0.0944  1.3959
 5043TIP3   OH236543   1.950   0.939   4.280 -0.0569 -0.3811 -0.6331
 5043TIP3    H136544   1.952   0.857   4.330  1.2499  0.8978  1.5626
 5043TIP3    H236545   1.879   0.989   4.319 -0.3225 -0.1288 -1.4250
 5044TIP3   OH236546   2.270   0.277  14.378  0.3556  0.0802 -0.1019
 5044TIP3    H136547   2.321   0.269  14.458  0.1463  0.3698  0.0631
 5044TIP3    H236548   2.180   0.286  14.408  0.1459 -0.8384 -0.3981
 5045TIP3   OH236549   3.409   1.398   6.006  0.0254  0.3411 -0.1261
 5045TIP3    H136550   3.330   1.373   6.054 -0.0080  0.5974 -0.0472
 5045TIP3    H236551   3.458   1.316   5.997 -0.1820  0.2068 -0.0525
 5046TIP3   OH236552   0.197   4.402   4.486  0.1865 -0.7586  0.5155
 5046TIP3    H136553   0.280   4.382   4.443  0.0073  0.6856 -0.5762
 5046TIP3    H236554   0.221   4.463   4.556  0.1726 -1.2417  0.9495
 5047TIP3   OH236555   3.233   5.465   3.541 -0.0534  0.2588 -0.7820
 5047TIP3    H136556   3.187   5.412   3.476 -0.9440 -0.3448  0.3188
 5047TIP3    H236557   3.255   5.403   3.611  3.0866  0.3444 -1.5325
 5048TIP3   OH236558   0.186   5.288  12.150 -0.1319  0.6630  0.1537
 5048TIP3    H136559   0.273   5.306  12.114 -0.3709 -0.9341 -1.3376
 5048TIP3    H236560   0.168   5.364  12.206  1.7883  1.5130 -0.2736
 5049TIP3   OH236561   6.289   6.763  17.143  0.3386  0.2075  0.0696
 5049TIP3    H136562   6.373   6.804  17.163  0.9421 -1.7527  1.8714
 5049TIP3    H236563   6.296   6.674  17.177 -2.0425 -0.4224 -0.8359
 5050TIP3   OH236564   6.707   2.221  16.993 -0.3265 -0.3938  0.2167
 5050TIP3    H136565   6.735   2.146  17.046 -3.0657 -2.6237 -1.1944
 5050TIP3    H236566   6.611   2.214  16.991 -0.4768  0.3971 -3.7352
 5051TIP3   OH236567   2.358   5.278  13.873  0.1319 -0.0255  0.0059
 5051TIP3    H136568   2.263   5.268  13.876  0.0544  0.7650  0.3856
 5051TIP3    H236569   2.374   5.325  13.791  0.3942 -2.0476 -1.1619
 5052TIP3   OH236570   4.162   5.220  10.598  0.7940  0.2499 -0.2993
 5052TIP3    H136571   4.101   5.196  10.668  0.1752 -0.8216 -1.1622
 5052TIP3    H236572   4.241   5.248  10.643  0.5709 -0.8695  0.8502
 5053TIP3   OH236573   5.963   6.428   6.166  0.0039  0.0105 -0.4249
 5053TIP3    H136574   5.954   6.522   6.150  3.8747  0.7489  0.7408
 5053TIP3    H236575   5.957   6.419   6.261 -0.7687 -1.0378 -0.5478
 5054TIP3   OH236576   1.440   6.098   1.121 -0.7410  0.3265  0.1605
 5054TIP3    H136577   1.471   6.165   1.182 -3.3088  1.8025 -0.0449
 5054TIP3    H236578   1.371   6.140   1.071  0.6353 -1.0651 -3.2617
 5055TIP3   OH236579   0.611   0.940   3.669  0.8455 -0.3945 -0.4440
 5055TIP3    H136580   0.607   0.941   3.765  0.9516 -2.0386 -0.3862
 5055TIP3    H236581   0.533   0.988   3.642  0.0801 -1.0707  0.4865
 5056TIP3   OH236582   4.655   4.730   0.659  0.5926  0.1512 -0.0520
 5056TIP3    H136583   4.640   4.718   0.753  1.6442 -2.3179 -0.1218
 5056TIP3    H236584   4.570   4.755   0.624 -0.8613 -2.8230  1.0310
 5057TIP3   OH236585   2.733   0.001   1.323  0.3945 -0.0548  0.6304
 5057TIP3    H136586   2.745  -0.079   1.272  1.0055  0.9404 -0.8760
 5057TIP3    H236587   2.812   0.008   1.376  0.4819 -0.2989  0.5318
 5058TIP3   OH236588   0.075   0.897  11.071  0.0607 -0.0232 -0.6857
 5058TIP3    H136589  -0.017   0.906  11.048 -0.4290  2.5323  1.7185
 5058TIP3    H236590   0.081   0.925  11.162  2.8299 -2.9406  0.2151
 5059TIP3   OH236591   6.359   5.333  16.578  0.0007 -0.2963 -0.7823
 5059TIP3    H136592   6.442   5.286  16.565 -0.5836 -1.4305 -0.6124
 5059TIP3    H236593   6.341   5.324  16.671 -0.7924 -0.9384 -0.9832
 5060TIP3   OH236594   2.628   3.686   0.968 -0.3181  0.0509  0.3001
 5060TIP3    H136595   2.673   3.668   0.885 -1.3120 -0.5276 -0.1289
 5060TIP3    H236596   2.698   3.693   1.033  0.3639 -1.2257 -0.2777
 5061TIP3   OH236597   5.829   4.672  15.105  0.0839 -0.6060  0.2832
 5061TIP3    H136598   5.878   4.733  15.160 -0.9511  0.6812 -0.1318
 5061TIP3    H236599   5.768   4.629  15.165  1.3327 -1.8342  0.7104
 5062TIP3   OH236600   4.689   4.283  12.341  0.0603 -0.2870  0.3873
 5062TIP3    H136601   4.692   4.200  12.293 -0.1509 -0.1042  0.0541
 5062TIP3    H236602   4.669   4.349  12.274 -1.0917 -0.1375  0.8540
 5063TIP3   OH236603   5.261   0.516   1.908 -0.4623  0.3187 -0.9840
 5063TIP3    H136604   5.204   0.511   1.984 -1.1696 -2.7774 -1.5940
 5063TIP3    H236605   5.215   0.576   1.848 -1.0906  0.8939  0.0292
 5064TIP3   OH236606   2.421   6.698   2.072 -0.2675 -0.0383 -0.4949
 5064TIP3    H136607   2.366   6.633   2.028 -1.8922  0.2057  1.0648
 5064TIP3    H236608   2.459   6.750   2.001 -0.9761 -1.0621 -1.6656
 5065TIP3   OH236609   3.168   6.153   4.911  0.3497  0.2396 -0.1309
 5065TIP3    H136610   3.132   6.200   4.835 -0.1638  0.1506  0.0556
 5065TIP3    H236611   3.228   6.216   4.952 -0.9784  1.0661  0.6176
 5066TIP3   OH236612   1.137   1.433  16.144 -0.7915  0.5587  0.6091
 5066TIP3    H136613   1.217   1.382  16.156  0.0833  1.9967  1.2145
 5066TIP3    H236614   1.142   1.464  16.053 -0.2332  1.2786  0.8671
 5067TIP3   OH236615   0.959   5.467  16.649  0.1165 -0.5132  0.1400
 5067TIP3    H136616   0.946   5.402  16.718  0.5046 -0.7046  0.0377
 5067TIP3    H236617   1.042   5.509  16.672 -0.8230  0.9608  1.0111
 5068TIP3   OH236618   5.332   5.854   2.881  0.1976  0.7159 -0.0115
 5068TIP3    H136619   5.330   5.786   2.813 -0.3651  2.8810 -2.3454
 5068TIP3    H236620   5.240   5.873   2.898  0.3325  1.7704 -0.3812
 5069TIP3   OH236621   2.174   1.892  13.066 -0.1234  0.4324  0.0915
 5069TIP3    H136622   2.150   1.829  12.999  1.3829  0.2389 -0.3139
 5069TIP3    H236623   2.091   1.928  13.097 -0.8675  0.3525 -1.7073
 5070TIP3   OH236624   5.105   4.500  13.204  0.1670  0.2235 -0.5036
 5070TIP3    H136625   5.026   4.532  13.160 -0.1922  0.1438  0.0714
 5070TIP3    H236626   5.127   4.419  13.158 -0.1664  0.1735 -0.5755
 5071TIP3   OH236627   0.469   0.732  15.533 -0.5565  0.4035 -0.0077
 5071TIP3    H136628   0.453   0.812  15.482 -1.2287  0.1731 -0.1660
 5071TIP3    H236629   0.468   0.761  15.624 -0.0523  0.6993 -0.0947
 5072TIP3   OH236630   5.628   6.059  14.716  0.8981  0.4213 -0.1592
 5072TIP3    H136631   5.552   6.090  14.765  0.3872 -1.5167  0.3989
 5072TIP3    H236632   5.703   6.084  14.770  0.5008  0.4980  0.3639
 5073TIP3   OH236633   3.981   2.701  11.179  0.0435 -0.0266  0.5301
 5073TIP3    H136634   3.946   2.613  11.165 -0.4617  0.2506  0.0116
 5073TIP3    H236635   4.068   2.699  11.142 -0.1502 -0.1750  0.0817
 5074TIP3   OH236636   2.581   0.194   4.694  0.2307 -0.3738 -0.5400
 5074TIP3    H136637   2.551   0.250   4.623 -1.1105 -0.0435  0.2608
 5074TIP3    H236638   2.674   0.215   4.702  0.1080  0.5615 -1.3116
 5075TIP3   OH236639   0.732   6.261  13.056 -0.2740 -0.2083 -0.1207
 5075TIP3    H136640   0.764   6.172  13.064  1.6957  0.5800  1.7032
 5075TIP3    H236641   0.657   6.266  13.116 -0.8593 -0.7784 -0.7806
 5076TIP3   OH236642   4.262   3.945   5.972 -0.4086 -0.1895 -0.5260
 5076TIP3    H136643   4.231   3.855   5.981  0.6582 -0.4974  0.2904
 5076TIP3    H236644   4.186   3.999   5.993 -0.7386 -0.9152  0.2067
 5077TIP3   OH236645   5.613   0.019  12.388  0.3022 -0.1892 -0.4799
 5077TIP3    H136646   5.600   0.105  12.349  3.3061  0.8302  0.5053
 5077TIP3    H236647   5.553  -0.038  12.341 -0.8363  2.1697 -2.0687
 5078TIP3   OH236648   5.280   2.626  14.481 -0.5259 -0.3067  0.1689
 5078TIP3    H136649   5.258   2.673  14.400 -2.7528 -0.1955  0.7552
 5078TIP3    H236650   5.305   2.695  14.542 -0.0487 -0.2747 -0.0554
 5079TIP3   OH236651   5.175   0.606  15.735  0.7277  0.0030 -0.5855
 5079TIP3    H136652   5.229   0.528  15.751  1.6185  0.3679 -1.6494
 5079TIP3    H236653   5.236   0.679  15.741 -0.1938  0.6836  0.8288
 5080TIP3   OH236654   4.619   6.522   3.242 -0.3219  0.7128  0.9414
 5080TIP3    H136655   4.560   6.477   3.181  0.0021  0.9079  0.4781
 5080TIP3    H236656   4.673   6.578   3.187  0.0430  0.8227  1.4003
 5081TIP3   OH236657   0.419   5.135  10.628  0.0163 -0.5149  0.0568
 5081TIP3    H136658   0.507   5.173  10.627 -0.2231  0.3695  3.1400
 5081TIP3    H236659   0.361   5.210  10.642 -0.7581 -1.5520  2.9508
 5082TIP3   OH236660   6.774   2.667   0.018 -0.1568 -0.6677  0.5908
 5082TIP3    H136661   6.782   2.574  -0.003  1.7442  0.1876 -3.6446
 5082TIP3    H236662   6.857   2.690   0.060 -0.6909 -0.8444  1.7873
 5083TIP3   OH236663   6.679   2.313  12.734  0.5317 -0.0104  0.1972
 5083TIP3    H136664   6.744   2.253  12.698  0.9433  0.6171 -0.1252
 5083TIP3    H236665   6.730   2.388  12.765 -0.0383  0.5276 -0.1375
 5084TIP3   OH236666   1.321   4.869   4.389  0.0037  0.0048 -0.0870
 5084TIP3    H136667   1.350   4.905   4.473 -0.7415  0.5274 -0.0528
 5084TIP3    H236668   1.401   4.866   4.336  0.6959 -1.2652  0.9514
 5085TIP3   OH236669   3.133   5.277   3.344 -0.2261 -0.3348  0.0744
 5085TIP3    H136670   3.104   5.185   3.345 -4.6458  0.8165 -0.8246
 5085TIP3    H236671   3.203   5.279   3.279 -0.7061 -2.8931 -0.6459
 5086TIP3   OH236672   2.131   1.950  15.044  0.2323 -0.2453  0.2389
 5086TIP3    H136673   2.148   1.948  14.949 -1.5247  1.4412 -0.1760
 5086TIP3    H236674   2.058   1.890  15.057  0.5108 -0.5215  0.5515
 5087TIP3   OH236675   5.391   3.309  17.151  0.5486  0.5542  0.4717
 5087TIP3    H136676   5.319   3.304  17.088  0.7879  1.6651  0.0775
 5087TIP3    H236677   5.353   3.282  17.234 -0.4143  1.3948  0.3234
 5088TIP3   OH236678   0.171   1.463   5.550 -0.6990 -0.2381 -0.3792
 5088TIP3    H136679   0.110   1.398   5.584 -0.4833  0.3342  1.2326
 5088TIP3    H236680   0.133   1.547   5.575  1.2093  0.1241  1.6860
 5089TIP3   OH236681   0.901   2.816  10.738  0.0299  0.0263  0.0706
 5089TIP3    H136682   0.932   2.882  10.677 -0.7364  0.6002  0.2929
 5089TIP3    H236683   0.977   2.758  10.751  0.6519  0.7478 -0.2636
 5090TIP3   OH236684   4.574   2.457  14.609 -0.4058  0.6132 -0.7734
 5090TIP3    H136685   4.510   2.518  14.573  0.6943  2.4642  0.2460
 5090TIP3    H236686   4.657   2.485  14.570  0.1301 -0.2034 -0.2386
 5091TIP3   OH236687   2.117   5.015   0.516 -0.2871 -0.5446 -0.1222
 5091TIP3    H136688   2.199   5.026   0.468 -0.1681 -0.0898  0.1723
 5091TIP3    H236689   2.048   5.040   0.454 -0.2566 -1.5642 -0.5812
 5092TIP3   OH236690   3.495   5.669  15.380  0.2091  0.1944  0.0232
 5092TIP3    H136691   3.423   5.728  15.405  0.0502 -0.4346  1.1262
 5092TIP3    H236692   3.535   5.645  15.463  1.3568  0.0877 -0.5470
 5093TIP3   OH236693   5.359   0.285  15.040 -0.0773  0.2448  0.2235
 5093TIP3    H136694   5.394   0.197  15.052 -2.2728 -0.6338  0.6492
 5093TIP3    H236695   5.428   0.343  15.071  1.6875 -1.2662 -0.7166
 5094TIP3   OH236696   0.165   3.601   5.728  0.2484 -0.1831 -0.2016
 5094TIP3    H136697   0.182   3.691   5.700  0.5985 -0.8450 -2.2665
 5094TIP3    H236698   0.205   3.595   5.815  0.4837  1.5496 -0.1594
 5095TIP3   OH236699   5.011   3.000   0.681  0.4843 -0.3883  0.2688
 5095TIP3    H136700   5.083   3.051   0.717 -1.5708  0.7513  3.1813
 5095TIP3    H236701   5.002   3.031   0.591  1.6028  1.7793  0.8274
 5096TIP3   OH236702   3.522   0.424   4.560  0.0406  0.3855 -0.6467
 5096TIP3    H136703   3.503   0.419   4.654  0.1070  0.2029 -0.6427
 5096TIP3    H236704   3.612   0.454   4.555  0.3694 -0.5470 -0.6303
 5097TIP3   OH236705   1.646   4.239   5.442  0.1299 -0.1362  1.0292
 5097TIP3    H136706   1.726   4.290   5.427  0.5610 -0.6999  1.3650
 5097TIP3    H236707   1.575   4.300   5.425  0.6345  0.6785  1.7565
 5098TIP3   OH236708   5.924   5.855   0.769  0.0582  0.3675 -0.4018
 5098TIP3    H136709   6.020   5.850   0.777 -0.0049  0.2729  0.3099
 5098TIP3    H236710   5.891   5.832   0.855 -0.6443 -0.5545 -0.8987
 5099TIP3   OH236711   5.105   5.946   4.377  0.3707 -0.0674  0.3300
 5099TIP3    H136712   5.112   5.957   4.472 -2.0276  1.3196  0.4299
 5099TIP3    H236713   5.169   6.008   4.342  0.7035  0.0037  1.0294
 5100TIP3   OH236714   6.637   1.498  11.968  0.5090 -0.1372  0.3695
 5100TIP3    H136715   6.591   1.437  12.026 -0.0839 -0.7603 -0.7249
 5100TIP3    H236716   6.567   1.536  11.914  1.2375 -1.0284 -1.2643
 5101TIP3   OH236717   2.847   0.964   1.195  0.7371 -0.2453 -0.0418
 5101TIP3    H136718   2.760   1.005   1.190  0.5289 -0.7689 -0.8517
 5101TIP3    H236719   2.876   0.983   1.284 -0.4751 -0.5857  0.4559
 5102TIP3   OH236720   6.534   1.815  15.365 -0.3356 -0.6064 -0.4886
 5102TIP3    H136721   6.508   1.837  15.275  0.0630  1.2664 -0.2023
 5102TIP3    H236722   6.620   1.855  15.374 -0.2069 -1.1282  0.6007
 5103TIP3   OH236723   4.219   6.520  12.244  0.8667  0.3863  0.4966
 5103TIP3    H136724   4.284   6.528  12.174  1.8872 -2.3299  0.9958
 5103TIP3    H236725   4.138   6.496  12.199  0.3695  2.8454 -0.0445
 5104TIP3   OH236726   6.627   0.454   0.635  0.0505 -0.4236 -0.0157
 5104TIP3    H136727   6.648   0.466   0.728 -1.6117 -0.1342  0.3631
 5104TIP3    H236728   6.616   0.360   0.624 -0.3557 -0.4069  0.2344
 5105TIP3   OH236729   3.842   4.764  17.175  0.0310  0.2880  0.2804
 5105TIP3    H136730   3.784   4.688  17.177  1.1277 -0.6433 -1.4673
 5105TIP3    H236731   3.910   4.741  17.113  1.1782  2.1665  0.7704
 5106TIP3   OH236732   3.580   4.712   5.424  0.3202 -0.5269 -0.2914
 5106TIP3    H136733   3.489   4.724   5.450  0.3441  0.5208 -0.6722
 5106TIP3    H236734   3.618   4.659   5.494 -0.4381 -0.4893  0.1536
 5107TIP3   OH236735   2.749   4.339   3.786 -0.3262 -0.3041 -0.2639
 5107TIP3    H136736   2.806   4.263   3.792  1.5532  0.8706 -2.0209
 5107TIP3    H236737   2.806   4.410   3.756 -2.7287  0.8663 -2.4531
 5108TIP3   OH236738   2.130   1.073   2.155 -0.7230  0.5669 -0.0716
 5108TIP3    H136739   2.083   1.130   2.216  1.7014  0.8968  1.6303
 5108TIP3    H236740   2.148   0.994   2.206  0.2246  0.3186 -0.7717
 5109TIP3   OH236741   1.896   0.802  16.498  0.5315 -0.1361  0.0015
 5109TIP3    H136742   1.923   0.817  16.589  0.7909  3.9414 -0.5664
 5109TIP3    H236743   1.978   0.808  16.448  0.5626 -3.4067 -0.5694
 5110TIP3   OH236744   4.037   0.707   0.541 -0.0534  0.0393  0.3567
 5110TIP3    H136745   4.016   0.800   0.533  1.1890  0.2571 -0.7600
 5110TIP3    H236746   3.953   0.663   0.548 -0.7024  1.1591 -0.2765
 5111TIP3   OH236747   6.446   0.537  13.187 -0.2029  0.2602 -0.0198
 5111TIP3    H136748   6.482   0.481  13.256  1.9613  1.8254  0.2132
 5111TIP3    H236749   6.491   0.509  13.107 -1.3148 -0.2890 -0.4712
 5112TIP3   OH236750   5.748   5.330   2.393  0.0226 -0.2112 -0.6073
 5112TIP3    H136751   5.703   5.397   2.343 -1.3671  1.2407  2.3684
 5112TIP3    H236752   5.688   5.255   2.393 -0.4683  0.1805 -0.1939
 5113TIP3   OH236753   3.317   3.324  15.582  0.6649  0.1525  0.4361
 5113TIP3    H136754   3.287   3.242  15.543  3.0782 -0.9506  0.6733
 5113TIP3    H236755   3.327   3.304  15.675 -0.4836  1.3162  0.8412
 5114TIP3   OH236756   1.008   4.131   3.654  0.0812  0.6638 -0.0388
 5114TIP3    H136757   0.918   4.136   3.686 -0.6252 -0.4841 -1.6914
 5114TIP3    H236758   1.040   4.047   3.688  0.8062  1.3731  1.1127
 5115TIP3   OH236759   4.217   3.184   2.615 -0.0043  0.4924 -0.4824
 5115TIP3    H136760   4.154   3.219   2.553 -0.1848 -2.4024 -2.1000
 5115TIP3    H236761   4.300   3.186   2.569  0.2177  0.0912 -0.1077
 5116TIP3   OH236762   3.591   5.154   3.344 -0.0836 -0.7233 -0.0892
 5116TIP3    H136763   3.664   5.216   3.346 -0.2217 -0.5864  0.9095
 5116TIP3    H236764   3.624   5.079   3.294  0.1931  0.0089 -1.0338
 5117TIP3   OH236765   6.556   2.561  11.180  0.1914  0.2311 -0.0569
 5117TIP3    H136766   6.609   2.569  11.100  1.0046 -1.7913  0.2164
 5117TIP3    H236767   6.541   2.651  11.207  1.2483  0.9330 -1.6186
 5118TIP3   OH236768   3.908   3.184   4.225 -0.2334  0.1056 -0.0937
 5118TIP3    H136769   3.962   3.208   4.300 -1.1185 -1.3488  1.0714
 5118TIP3    H236770   3.855   3.262   4.208  0.6595  0.7817  0.1705
 5119TIP3   OH236771   6.326   0.985  15.604  0.1732  0.5695  0.1800
 5119TIP3    H136772   6.341   1.070  15.564  0.3387 -0.1304 -1.2999
 5119TIP3    H236773   6.411   0.941  15.598 -0.6145 -0.8114 -1.8608
 5120TIP3   OH236774   1.346   3.895  13.079 -0.3592 -0.6113  0.3367
 5120TIP3    H136775   1.302   3.966  13.126  0.6774  0.4333 -0.2203
 5120TIP3    H236776   1.342   3.821  13.139 -2.8850 -0.5812  0.2976
 5121TIP3   OH236777   5.236   5.583   3.325  0.6460  0.1222 -0.1948
 5121TIP3    H136778   5.215   5.613   3.236  0.5015 -1.5093 -0.7320
 5121TIP3    H236779   5.177   5.635   3.381 -0.8818 -0.3987 -1.2415
 5122TIP3   OH236780   5.665   3.298  16.197 -0.7901  0.4201 -0.6996
 5122TIP3    H136781   5.757   3.304  16.170  0.1687  1.3835  2.3696
 5122TIP3    H236782   5.665   3.230  16.265 -2.6504 -0.4702 -1.5152
 5123TIP3   OH236783   5.812   0.576  14.790  0.1324  0.5803  0.1323
 5123TIP3    H136784   5.783   0.647  14.847 -0.2109 -0.0909  0.7979
 5123TIP3    H236785   5.783   0.603  14.703 -1.4160  0.5187  0.5941
 5124TIP3   OH236786   1.355   4.748  16.971 -0.1402  0.1398  0.0185
 5124TIP3    H136787   1.353   4.668  16.919 -1.4628  0.2016 -0.0411
 5124TIP3    H236788   1.323   4.721  17.057 -0.2139  0.5315  0.1143
 5125TIP3   OH236789   6.760   4.140  17.241 -0.3007  0.4508  0.0326
 5125TIP3    H136790   6.816   4.064  17.258  0.9653  1.1470 -0.8563
 5125TIP3    H236791   6.738   4.174  17.327 -1.0410 -1.0103  0.4568
 5126TIP3   OH236792   5.233   4.451   0.335 -0.0178  0.1902  0.1137
 5126TIP3    H136793   5.254   4.426   0.425  0.8874  1.2883  0.2242
 5126TIP3    H236794   5.214   4.545   0.341  1.2455  0.5326 -1.0364
 5127TIP3   OH236795   0.477   6.011   3.258  0.2280  0.0408  0.3204
 5127TIP3    H136796   0.395   6.047   3.292  1.1233  1.7005  0.8398
 5127TIP3    H236797   0.484   5.925   3.299 -1.7884 -0.6180 -0.6241
 5128TIP3   OH236798   2.301   4.009   1.444 -0.4219 -0.1306 -0.2972
 5128TIP3    H136799   2.343   4.091   1.418  1.4199 -0.6756  0.7082
 5128TIP3    H236800   2.211   4.016   1.413 -0.0648  1.8847 -1.0064
 5129TIP3   OH236801   1.129   3.891   3.732  0.0830  0.8553  0.5791
 5129TIP3    H136802   1.172   3.839   3.800 -0.3550  1.1321  1.0734
 5129TIP3    H236803   1.102   3.826   3.667 -0.9885  0.3674  1.4802
 5130TIP3   OH236804   3.288   6.107   3.099 -0.2711 -0.5250  0.3194
 5130TIP3    H136805   3.236   6.175   3.142  1.3199 -1.0075  3.2555
 5130TIP3    H236806   3.253   6.025   3.132  0.4334 -0.9765 -0.0179
 5131TIP3   OH236807   2.120   2.249   1.397 -0.4910 -0.4132  0.0443
 5131TIP3    H136808   2.197   2.248   1.454 -0.3683 -1.9856 -0.0885
 5131TIP3    H236809   2.062   2.181   1.434 -1.4551  0.1751 -0.3385
 5132TIP3   OH236810   4.310   5.397   2.447  0.5577 -0.0368 -0.0274
 5132TIP3    H136811   4.342   5.422   2.533 -1.6011 -0.1858  0.8875
 5132TIP3    H236812   4.296   5.481   2.402 -0.1477  0.1412  0.5047
 5133TIP3   OH236813   3.897   1.279  12.724 -0.0422  0.1138 -0.3718
 5133TIP3    H136814   3.941   1.207  12.680  0.0882  0.6199 -1.0874
 5133TIP3    H236815   3.966   1.344  12.739 -0.1642  0.1115  0.2340
 5134TIP3   OH236816   0.210   1.588  14.270 -0.0449  0.1706 -0.0672
 5134TIP3    H136817   0.197   1.540  14.188 -0.2512  1.4974 -0.8458
 5134TIP3    H236818   0.188   1.678  14.248 -1.6191  0.3142  1.8538
 5135TIP3   OH236819   4.329   0.376   5.868  0.2499 -0.2163  0.2942
 5135TIP3    H136820   4.367   0.289   5.874 -0.2406 -0.5058 -0.6610
 5135TIP3    H236821   4.390   0.426   5.814  0.0875 -0.2305  0.0936
 5136TIP3   OH236822   5.138   0.032  11.646  0.0228  0.5851 -0.7219
 5136TIP3    H136823   5.222   0.002  11.611  0.6514  0.2088  0.9948
 5136TIP3    H236824   5.078  -0.040  11.629  1.4512 -1.8579  3.1188
 5137TIP3   OH236825   3.819   4.306   3.651 -0.2656  0.6551  0.1958
 5137TIP3    H136826   3.851   4.219   3.624  1.0809  1.5880 -1.4278
 5137TIP3    H236827   3.746   4.324   3.593  1.9912  2.2309 -2.3765
 5138TIP3   OH236828   1.042   2.523  15.461  0.5269  0.4014  0.8309
 5138TIP3    H136829   1.048   2.560  15.549 -0.8331 -1.8761  1.9696
 5138TIP3    H236830   0.949   2.523  15.440  0.6268 -0.8837  0.2528
 5139TIP3   OH236831   0.935   2.545  16.216 -0.1443 -0.3376 -0.6665
 5139TIP3    H136832   0.903   2.580  16.299  0.5319  0.5675 -0.7800
 5139TIP3    H236833   0.955   2.453  16.235 -0.9509 -0.4108 -0.1022
 5140TIP3   OH236834   2.156   4.167  12.136  0.0170  0.2563  0.7640
 5140TIP3    H136835   2.145   4.136  12.226  0.9307  0.5945  1.0077
 5140TIP3    H236836   2.126   4.258  12.138 -0.3721  0.1286  0.6290
 5141TIP3   OH236837   3.134   0.348  15.018 -0.3135  0.0219  0.2334
 5141TIP3    H136838   3.197   0.410  14.982  2.0532 -1.7936  1.0492
 5141TIP3    H236839   3.088   0.313  14.941  1.3228 -0.3107 -0.6435
 5142TIP3   OH236840   5.102   3.805  17.047 -0.5126  0.0594  0.4546
 5142TIP3    H136841   5.015   3.784  17.080 -0.2849  0.2222  1.1759
 5142TIP3    H236842   5.114   3.898  17.066  0.2442 -0.2041  1.3997
 5143TIP3   OH236843   0.303   0.566  12.942  0.0339 -0.4733  0.4754
 5143TIP3    H136844   0.263   0.627  12.881  3.0314  2.3974  1.1275
 5143TIP3    H236845   0.264   0.587  13.027 -0.6287 -1.1575  0.3548
 5144TIP3   OH236846   6.055   3.557   1.495 -0.9642 -0.1649 -0.2300
 5144TIP3    H136847   6.079   3.649   1.492  2.9854 -0.9359  1.1294
 5144TIP3    H236848   5.977   3.553   1.550  0.9749  2.1602  3.0386
 5145TIP3   OH236849   3.799   2.548   3.535 -0.1006  0.3889  0.0368
 5145TIP3    H136850   3.772   2.537   3.444  0.1513 -0.3967  0.0512
 5145TIP3    H236851   3.807   2.643   3.546 -0.8301  0.5289 -0.5473
 5146TIP3   OH236852   4.434   2.167  15.554 -0.5655  0.1683 -1.0207
 5146TIP3    H136853   4.339   2.155  15.561 -0.6401  1.4934  1.1006
 5146TIP3    H236854   4.467   2.142  15.641  1.3476 -2.4307 -2.3686
 5147TIP3   OH236855   1.244   3.266   3.706 -0.0622  0.5447  0.1454
 5147TIP3    H136856   1.324   3.314   3.730  0.8347 -0.2897 -1.0544
 5147TIP3    H236857   1.202   3.320   3.640 -0.1959  0.7038  0.3578
 5148TIP3   OH236858   6.128   2.249   4.451  0.2596 -0.3711  0.1434
 5148TIP3    H136859   6.128   2.260   4.546  1.6403  2.7046 -0.0768
 5148TIP3    H236860   6.044   2.286   4.423  0.0882 -0.7686  0.1351
 5149TIP3   OH236861   4.991   5.702   0.000  0.1762  0.0283 -0.0050
 5149TIP3    H136862   5.004   5.760  -0.076  3.9307 -0.7578 -0.1809
 5149TIP3    H236863   5.048   5.627  -0.017 -1.1371 -1.6070  2.2675
 5150TIP3   OH236864   4.950   1.151   4.190  0.3409  0.4081 -0.2758
 5150TIP3    H136865   4.940   1.242   4.216  0.7512  0.8066 -1.4424
 5150TIP3    H236866   4.869   1.129   4.143 -0.1699 -0.1381  0.8353
 5151TIP3   OH236867   1.049   6.151   2.905  0.0842  0.5718 -0.2688
 5151TIP3    H136868   0.985   6.207   2.860  2.5606  2.5631 -1.5693
 5151TIP3    H236869   1.102   6.115   2.834  0.9536 -0.3429  0.8169
 5152TIP3   OH236870   5.570   4.953   4.675 -0.0713 -0.7325 -0.1693
 5152TIP3    H136871   5.625   4.939   4.752  0.7475  0.7190 -0.4480
 5152TIP3    H236872   5.618   5.016   4.622 -0.5628 -1.7688 -1.9509
 5153TIP3   OH236873   0.430   0.837  15.781 -0.0962  0.3875 -0.4852
 5153TIP3    H136874   0.340   0.863  15.763 -0.1292  1.4995  1.0475
 5153TIP3    H236875   0.480   0.919  15.776  0.9084 -0.2607 -1.6338
 5154TIP3   OH236876   1.217   1.136  11.874 -0.1991 -0.6484 -0.2828
 5154TIP3    H136877   1.305   1.130  11.911  0.0718  2.5697 -0.1521
 5154TIP3    H236878   1.220   1.081  11.796  1.4199 -1.8176  0.5395
 5155TIP3   OH236879   2.279   3.723  12.099 -0.0156 -0.0273  0.1622
 5155TIP3    H136880   2.196   3.693  12.062 -0.3265 -0.1217  0.9044
 5155TIP3    H236881   2.258   3.807  12.141  0.1811 -0.2303  0.6726
 5156TIP3   OH236882   3.843   6.457  11.825  0.6160  0.5167 -0.2945
 5156TIP3    H136883   3.794   6.379  11.800 -0.4873  0.6398  1.3358
 5156TIP3    H236884   3.935   6.430  11.822  0.2449 -0.9587  0.5086
 5157TIP3   OH236885   0.433   4.883   1.145  0.1208 -0.1198 -0.0204
 5157TIP3    H136886   0.374   4.947   1.184 -0.2702  0.1117 -0.9607
 5157TIP3    H236887   0.428   4.807   1.204  0.7871  0.7805  1.2480
 5158TIP3   OH236888   6.645   5.145  14.152 -0.5887 -0.3100  0.4142
 5158TIP3    H136889   6.699   5.127  14.075 -0.7168  1.4696 -0.1313
 5158TIP3    H236890   6.662   5.071  14.210  1.5976 -0.3506 -0.1792
 5159TIP3   OH236891   3.037   6.265  12.105 -0.5433  0.0299 -0.1365
 5159TIP3    H136892   3.053   6.358  12.092 -0.6019  0.0971  0.2629
 5159TIP3    H236893   3.099   6.222  12.047 -0.1009  0.3122  0.1241
 5160TIP3   OH236894   2.199   4.870  14.360 -0.7841  0.2964  0.2965
 5160TIP3    H136895   2.162   4.946  14.405  0.4756  0.6849  0.7376
 5160TIP3    H236896   2.278   4.903  14.318 -1.4329 -0.2789 -1.4658
 5161TIP3   OH236897   0.343   2.074  14.651  0.4240  0.0167 -0.0546
 5161TIP3    H136898   0.399   1.998  14.668  1.1122  0.5501  0.1212
 5161TIP3    H236899   0.333   2.076  14.556 -0.7362 -1.0802  0.0219
 5162TIP3   OH236900   2.658   3.875   1.683  0.2860  0.3983  0.3491
 5162TIP3    H136901   2.605   3.847   1.608 -1.4130 -0.4874  1.7958
 5162TIP3    H236902   2.639   3.969   1.692  0.9688  0.6524 -0.6415
 5163TIP3   OH236903   3.331   1.771  11.724 -0.2414  0.8117 -0.1988
 5163TIP3    H136904   3.294   1.690  11.758  0.5896  0.7356  0.5843
 5163TIP3    H236905   3.343   1.827  11.802 -0.6063  1.6038 -0.6974
 5164TIP3   OH236906   4.312   3.799   6.464  0.0722 -0.3725 -0.4745
 5164TIP3    H136907   4.335   3.887   6.495 -0.5110 -0.1680 -0.5952
 5164TIP3    H236908   4.219   3.789   6.487  0.5894 -1.6964  1.2062
 5165TIP3   OH236909   4.089   1.566   2.278 -0.1265 -0.3079 -0.2328
 5165TIP3    H136910   4.134   1.626   2.219 -1.6076  1.0546 -0.0287
 5165TIP3    H236911   4.141   1.568   2.359  1.2089 -1.2428 -1.0149
 5166TIP3   OH236912   3.776   1.321  13.579 -0.0040 -0.0223 -0.1759
 5166TIP3    H136913   3.858   1.297  13.536  0.2379 -3.0196  1.6899
 5166TIP3    H236914   3.804   1.364  13.660 -0.2604 -0.7490  0.3045
 5167TIP3   OH236915   2.933   1.093   0.749  0.0198 -0.1347 -0.0635
 5167TIP3    H136916   2.919   1.044   0.830 -1.0400  0.8052  0.3522
 5167TIP3    H236917   2.857   1.072   0.695  0.1555  0.1330 -0.3604
 5168TIP3   OH236918   0.179   5.046  11.293 -0.3173 -0.4452  0.5826
 5168TIP3    H136919   0.173   5.049  11.197 -1.7817 -1.4777  0.6175
 5168TIP3    H236920   0.188   5.138  11.319 -1.8943  0.0562 -0.4664
 5169TIP3   OH236921   1.556   3.145   2.756  0.4268 -0.2053  0.3731
 5169TIP3    H136922   1.630   3.188   2.799  0.6485 -0.0915 -0.1093
 5169TIP3    H236923   1.487   3.211   2.755  0.3034 -0.3238  0.8585
 5170TIP3   OH236924   0.532   1.200  14.876 -0.3874  0.7577 -0.2302
 5170TIP3    H136925   0.613   1.158  14.846 -0.6096  0.1561  0.0122
 5170TIP3    H236926   0.470   1.187  14.804 -1.1271 -1.2671  0.6832
 5171TIP3   OH236927   3.613   2.975   4.815  0.1597  0.5023  0.1354
 5171TIP3    H136928   3.611   3.031   4.738 -2.7894  0.2314 -0.0787
 5171TIP3    H236929   3.645   3.032   4.885 -1.9181  2.2710 -0.2566
 5172TIP3   OH236930   0.493   0.737  17.051  0.8933 -0.1570 -0.3972
 5172TIP3    H136931   0.400   0.756  17.051  0.8906 -0.1226 -1.4525
 5172TIP3    H236932   0.516   0.728  17.144 -0.2894 -0.8411 -0.1489
 5173TIP3   OH236933   6.297   1.437  16.332 -0.0473 -0.5528  0.0505
 5173TIP3    H136934   6.301   1.515  16.277 -1.2345 -2.0313 -2.2712
 5173TIP3    H236935   6.326   1.365  16.276 -2.2593 -2.2975  0.9590
 5174TIP3   OH236936   6.046   1.188  15.593 -0.3956 -0.1567 -0.6321
 5174TIP3    H136937   6.129   1.234  15.593 -0.9265  0.8924  1.0799
 5174TIP3    H236938   5.981   1.256  15.576 -1.3224  0.1440  3.2483
 5175TIP3   OH236939   5.284   5.561  10.520 -0.7289 -0.0830  0.8497
 5175TIP3    H136940   5.296   5.509  10.440  0.4309  0.4027  0.6860
 5175TIP3    H236941   5.192   5.586  10.519 -0.4621  1.0253 -1.0478
 5176TIP3   OH236942   3.841   0.354  12.286 -0.2656 -0.8787 -0.3080
 5176TIP3    H136943   3.838   0.278  12.343  1.7961 -0.6122  0.2366
 5176TIP3    H236944   3.778   0.415  12.325 -0.4019 -1.4943  0.4627
 5177TIP3   OH236945   3.024   2.484  13.257  0.4866 -0.2065 -0.2127
 5177TIP3    H136946   3.010   2.453  13.347  1.1324 -1.0727 -0.3923
 5177TIP3    H236947   2.979   2.419  13.203  0.3068  0.1792 -0.5259
 5178TIP3   OH236948   4.988   6.624  12.438 -0.0860  0.8248 -0.3313
 5178TIP3    H136949   5.080   6.625  12.414  0.4923 -0.0948  1.6247
 5178TIP3    H236950   4.954   6.543  12.400  1.3560 -1.8003  3.3429
 5179TIP3   OH236951   2.656   2.908   0.173 -0.0842 -0.1852 -0.0938
 5179TIP3    H136952   2.568   2.872   0.186  0.8792 -2.4037  0.7604
 5179TIP3    H236953   2.671   2.900   0.079 -0.8832  0.5447 -0.3072
 5180TIP3   OH236954   6.209   0.729   3.585 -0.4025 -0.3744  0.9657
 5180TIP3    H136955   6.232   0.822   3.593  1.6810 -0.9250  2.3180
 5180TIP3    H236956   6.203   0.698   3.676  1.3581 -2.0612  0.5678
 5181TIP3   OH236957   1.074   2.559  12.551 -0.0394  0.0323 -0.0831
 5181TIP3    H136958   1.022   2.529  12.476 -2.4280  1.0115  1.0688
 5181TIP3    H236959   1.063   2.490  12.617  1.9759 -0.7800 -0.4947
 5182TIP3   OH236960   3.106   6.301   4.108 -0.4806 -0.1577 -0.7619
 5182TIP3    H136961   3.128   6.364   4.039 -1.2715  0.4571 -0.4756
 5182TIP3    H236962   3.082   6.221   4.060 -0.9596  0.2408 -1.2060
 5183TIP3   OH236963   1.228   2.343   1.442 -0.1654 -0.2210 -0.2290
 5183TIP3    H136964   1.222   2.253   1.475 -0.8992 -0.1106 -0.0331
 5183TIP3    H236965   1.320   2.366   1.452 -0.3770 -0.1108  1.9912
 5184TIP3   OH236966   5.878   0.528  13.915  0.6436  0.0723  0.0026
 5184TIP3    H136967   5.875   0.457  13.851  1.3830 -0.5529  0.6375
 5184TIP3    H236968   5.788   0.560  13.920  0.1064 -1.3990  0.3272
 5185TIP3   OH236969   5.173   5.015   4.067  0.4830  0.5596  0.4468
 5185TIP3    H136970   5.146   5.076   4.136 -0.6105 -0.5810  1.0774
 5185TIP3    H236971   5.222   4.947   4.113 -0.9343 -0.6353  0.2793
 5186TIP3   OH236972   5.758   1.362  16.359  0.8782 -0.3554  0.7189
 5186TIP3    H136973   5.755   1.442  16.411  1.2358  0.8161 -0.9864
 5186TIP3    H236974   5.807   1.386  16.280 -0.8903 -1.6173 -0.8700
 5187TIP3   OH236975   0.322   6.776  15.294  0.3133 -0.2744 -0.2450
 5187TIP3    H136976   0.237   6.798  15.334  0.5398 -0.6242  0.4381
 5187TIP3    H236977   0.330   6.837  15.220 -0.0461  0.4921  0.3336
 5188TIP3   OH236978   6.685   5.466   6.074  0.7517 -0.5362  1.0712
 5188TIP3    H136979   6.635   5.385   6.073 -2.0451  0.9888 -1.4269
 5188TIP3    H236980   6.707   5.482   5.982 -1.4473  2.8687  0.9491
 5189TIP3   OH236981   5.444   3.897  12.805  0.3903 -0.2292 -0.2498
 5189TIP3    H136982   5.483   3.834  12.745 -0.8736 -0.1553 -1.1935
 5189TIP3    H236983   5.392   3.954  12.749  0.7497  1.0838  0.6964
 5190TIP3   OH236984   5.445   2.656  15.964 -0.1709 -0.2651  0.8405
 5190TIP3    H136985   5.513   2.690  16.023 -0.4806  0.9678  0.5063
 5190TIP3    H236986   5.470   2.688  15.877 -0.5979 -0.7116  0.5474
 5191TIP3   OH236987   3.903   5.298   1.524 -0.1088  0.3051 -0.2729
 5191TIP3    H136988   3.877   5.222   1.472  1.0548 -0.0745 -0.3141
 5191TIP3    H236989   3.909   5.369   1.461 -0.2275  0.2059 -0.3982
 5192TIP3   OH236990   6.097   0.783  11.716 -0.1160 -0.2329  0.0941
 5192TIP3    H136991   6.115   0.713  11.653 -1.7799  0.2149 -0.9549
 5192TIP3    H236992   6.010   0.816  11.691  0.8566  2.6519  0.1604
 5193TIP3   OH236993   0.527   6.534   1.324  0.2497 -0.5026  0.5499
 5193TIP3    H136994   0.504   6.560   1.414  0.4576  0.3754  0.3547
 5193TIP3    H236995   0.561   6.445   1.333  0.2548 -0.4295  1.3427
 5194TIP3   OH236996   4.619   6.342  11.539  0.0565 -0.4227  0.2954
 5194TIP3    H136997   4.531   6.370  11.516  0.8550  2.9729  0.8235
 5194TIP3    H236998   4.665   6.336  11.456 -0.2191 -0.4588  0.1452
 5195TIP3   OH236999   0.199   4.719  15.162  0.6101  0.2561 -0.5445
 5195TIP3    H137000   0.226   4.799  15.208 -0.9064  1.4584 -1.6408
 5195TIP3    H237001   0.216   4.737  15.070 -0.7379 -0.2486 -0.9168
 5196TIP3   OH237002   1.959   5.918  13.703 -0.2466 -0.1663  0.2041
 5196TIP3    H137003   1.971   5.968  13.622 -0.7602 -1.2133 -0.5377
 5196TIP3    H237004   2.046   5.888  13.726  0.0957  1.1798  0.7490
 5197TIP3   OH237005   0.459   5.421  13.609  0.0169  0.0504  0.9645
 5197TIP3    H137006   0.368   5.412  13.578 -0.0416  1.3718  0.6891
 5197TIP3    H237007   0.451   5.427  13.704 -0.0662 -1.0357  1.0394
 5198TIP3   OH237008   2.876   3.707  12.142 -0.6989 -0.3854 -0.2387
 5198TIP3    H137009   2.827   3.775  12.188  0.3024  1.0513 -1.2269
 5198TIP3    H237010   2.957   3.698  12.191 -0.3663 -0.0757 -0.7221
 5199TIP3   OH237011   4.750   2.538   6.392  0.4266  0.1191 -0.1475
 5199TIP3    H137012   4.732   2.630   6.376 -0.5519 -0.0966 -0.3648
 5199TIP3    H237013   4.726   2.523   6.483  1.8075  0.3550  0.2735
 5200TIP3   OH237014   1.429   0.195   4.414 -0.1346 -0.1399 -0.2158
 5200TIP3    H137015   1.461   0.167   4.328  2.8555  1.0503  0.3865
 5200TIP3    H237016   1.478   0.275   4.433 -1.1476 -0.0390  2.3470
 5201TIP3   OH237017   4.526   1.855  13.306  0.1301 -0.3195 -0.3147
 5201TIP3    H137018   4.592   1.836  13.373 -0.7852 -0.2234  0.6492
 5201TIP3    H237019   4.460   1.788  13.319 -0.3040  0.0142 -0.7823
 5202TIP3   OH237020   4.858   5.813   4.102  0.0085 -0.0134 -0.6892
 5202TIP3    H137021   4.787   5.757   4.070 -1.3500  1.5216 -0.5140
 5202TIP3    H237022   4.898   5.763   4.173 -0.9345 -0.9076 -0.7616
 5203TIP3   OH237023   5.603   0.389   0.628 -0.0824  0.9159 -0.2719
 5203TIP3    H137024   5.635   0.373   0.539 -0.5206 -1.0175 -0.1285
 5203TIP3    H237025   5.508   0.397   0.618 -0.4172 -1.5770  0.2133
 5204TIP3   OH237026   4.979   4.428   1.881  0.2812  0.1210 -0.9187
 5204TIP3    H137027   4.909   4.491   1.864 -0.6914  0.0682  2.1795
 5204TIP3    H237028   5.018   4.410   1.795  0.1804  4.3797 -2.0545
 5205TIP3   OH237029   0.184   5.973  16.177 -0.1492  0.0247  0.7835
 5205TIP3    H137030   0.095   6.004  16.191 -0.1351  0.8216 -0.6706
 5205TIP3    H237031   0.197   5.904  16.242 -1.4709  0.5843  1.6631
 5206TIP3   OH237032   5.227   3.278   1.261 -0.2611 -0.1801 -0.4096
 5206TIP3    H137033   5.286   3.204   1.246  0.1861  0.1284 -0.1950
 5206TIP3    H237034   5.143   3.238   1.281  0.2416 -0.6686  0.8388
 5207TIP3   OH237035   6.313   5.072  16.771  0.0457 -0.0010  0.2942
 5207TIP3    H137036   6.267   5.034  16.846 -0.5937 -0.0661 -0.1236
 5207TIP3    H237037   6.314   5.166  16.790  1.4581 -0.1660  1.2354
 5208TIP3   OH237038   2.377   3.789  16.190 -0.0415 -0.3887  0.0799
 5208TIP3    H137039   2.318   3.731  16.141  1.0215 -1.0354 -0.4873
 5208TIP3    H237040   2.324   3.823  16.262 -1.3321 -0.3041 -0.8752
 5209TIP3   OH237041   5.067   4.464   2.895 -0.1173 -0.4162 -0.1020
 5209TIP3    H137042   5.037   4.459   2.986  0.6616  1.6545  0.3053
 5209TIP3    H237043   4.988   4.446   2.844 -1.3255  1.4162  0.9848
 5210TIP3   OH237044   2.853   4.124  16.969  0.4022  0.5013 -0.1009
 5210TIP3    H137045   2.860   4.129  16.873 -1.3030  1.1319 -0.2317
 5210TIP3    H237046   2.778   4.180  16.990 -1.2081 -1.9741  1.2889
 5211TIP3   OH237047   0.279   0.015   3.224 -0.4322  0.7014  0.0115
 5211TIP3    H137048   0.316  -0.071   3.245 -1.3832  0.2629 -0.0593
 5211TIP3    H237049   0.354   0.065   3.191  0.2558  0.0973  0.5979
 5212TIP3   OH237050   1.084   4.253  10.470 -0.1984  0.0632  0.1829
 5212TIP3    H137051   1.064   4.200  10.393 -0.2692 -0.3427  0.4722
 5212TIP3    H237052   1.000   4.292  10.494 -0.0107  0.8616 -0.4329
 5213TIP3   OH237053   6.037   2.473   5.279  0.0114 -0.5307 -0.0219
 5213TIP3    H137054   5.944   2.450   5.273 -0.0349 -0.4187  0.2405
 5213TIP3    H237055   6.082   2.389   5.287 -0.2838 -0.5405  2.7042
 5214TIP3   OH237056   2.589   5.890   1.584  0.1805 -0.0867  0.3158
 5214TIP3    H137057   2.579   5.795   1.590  1.0579 -0.2130 -0.0121
 5214TIP3    H237058   2.674   5.907   1.626  0.4659  0.4398 -0.4533
 5215TIP3   OH237059   3.614   3.247  13.326  0.2947  0.2723  0.0587
 5215TIP3    H137060   3.521   3.269  13.320  0.3205  0.1060 -1.4049
 5215TIP3    H237061   3.630   3.192  13.249  1.6780  0.6061  0.0906
 5216TIP3   OH237062   4.477   1.986   5.361  0.5892  0.0781 -0.2566
 5216TIP3    H137063   4.513   1.898   5.355 -1.1255 -0.5714 -1.6757
 5216TIP3    H237064   4.543   2.042   5.320 -0.2003 -1.1626 -3.4627
 5217TIP3   OH237065   1.096   4.193   6.066 -0.1193  0.2538 -0.1111
 5217TIP3    H137066   1.039   4.229   5.999  0.0010  0.7584  0.0541
 5217TIP3    H237067   1.144   4.123   6.022  0.8829  1.4118 -0.8979
 5218TIP3   OH237068   4.989   4.580  17.100 -0.0077  0.4417  0.0158
 5218TIP3    H137069   4.911   4.630  17.124  0.0442 -0.0751  1.3245
 5218TIP3    H237070   5.022   4.545  17.183  1.2906  0.1712 -0.5883
 5219TIP3   OH237071   0.810   1.173   1.657  0.0293  0.3968 -0.2470
 5219TIP3    H137072   0.784   1.082   1.673  0.7887  0.2214  0.0357
 5219TIP3    H237073   0.804   1.183   1.562  0.7308 -0.2081 -0.3687
 5220TIP3   OH237074   6.388   0.705   3.942  0.1767 -0.1150  0.0805
 5220TIP3    H137075   6.332   0.763   3.994  0.3727 -0.0409  0.2087
 5220TIP3    H237076   6.380   0.620   3.985 -0.0249 -0.1591 -0.0427
 5221TIP3   OH237077   4.130   6.357  13.846  0.0031  0.2755  0.2238
 5221TIP3    H137078   4.120   6.397  13.932  1.3111 -2.5954  1.8122
 5221TIP3    H237079   4.223   6.362  13.827 -0.3245  1.3534 -1.3519
 5222TIP3   OH237080   4.310   0.690  13.767  0.1427 -0.4525 -0.3673
 5222TIP3    H137081   4.282   0.692  13.676 -1.6841  0.1092  0.1612
 5222TIP3    H237082   4.369   0.765  13.775  0.9338 -0.9686 -1.2552
 5223TIP3   OH237083   5.220   3.790  12.593  0.5089  0.3871 -0.1848
 5223TIP3    H137084   5.257   3.702  12.596 -0.3840  0.0277  0.9958
 5223TIP3    H237085   5.142   3.785  12.648  1.2544  2.3090  1.1172
 5224TIP3   OH237086   6.275   2.876  14.715  0.1001  0.2439  0.3974
 5224TIP3    H137087   6.365   2.846  14.705 -0.4723 -0.9867 -1.3630
 5224TIP3    H237088   6.234   2.858  14.631 -2.1378 -0.3978  1.5662
 5225TIP3   OH237089   3.413   0.123   4.856  0.2391 -0.1787 -0.5283
 5225TIP3    H137090   3.344   0.184   4.830  0.8645  0.7996  0.0428
 5225TIP3    H237091   3.392   0.042   4.809 -2.5669 -0.6519  1.2599
 5226TIP3   OH237092   3.915   1.678   5.118 -0.0185  0.0378  0.0222
 5226TIP3    H137093   3.828   1.666   5.080 -0.4659  0.2520  0.9531
 5226TIP3    H237094   3.969   1.612   5.075 -0.1491  1.1616 -2.0272
 5227TIP3   OH237095   5.415   5.658  11.776 -0.2068 -0.3911 -0.0212
 5227TIP3    H137096   5.390   5.573  11.811 -1.6785 -0.2221 -0.5971
 5227TIP3    H237097   5.378   5.722  11.837 -0.8357 -0.1348 -0.6635
 5228TIP3   OH237098   4.196   2.570   1.859 -0.1462 -0.9923 -0.1922
 5228TIP3    H137099   4.226   2.562   1.769  0.7019 -1.5504  0.1323
 5228TIP3    H237100   4.133   2.643   1.857  0.2124 -0.6997 -1.1358
 5229TIP3   OH237101   0.811   3.540   5.581  0.4615  0.7198 -0.3636
 5229TIP3    H137102   0.785   3.463   5.530  1.5988 -0.1862  0.3711
 5229TIP3    H237103   0.747   3.607   5.557 -2.9281 -1.4492  1.7366
 5230TIP3   OH237104   0.001   0.352  12.433  0.0989 -0.0680  0.5823
 5230TIP3    H137105   0.015   0.427  12.491 -1.2714 -0.3078  1.2560
 5230TIP3    H237106   0.006   0.390  12.345 -1.1082  0.9577  0.9100
 5231TIP3   OH237107   5.317   5.277   3.075 -0.7462  0.4960 -0.2782
 5231TIP3    H137108   5.328   5.348   3.011 -0.7382 -0.4323 -1.3361
 5231TIP3    H237109   5.387   5.216   3.055 -2.2221 -1.0201 -1.0368
 5232TIP3   OH237110   4.321   1.660   3.632  0.1059 -0.3772  0.4682
 5232TIP3    H137111   4.370   1.580   3.613  1.4010 -0.5404  3.9687
 5232TIP3    H237112   4.357   1.693   3.714 -1.0436  3.3329 -0.3189
 5233TIP3   OH237113   3.412   5.990  13.365 -0.4587  0.0216 -0.3681
 5233TIP3    H137114   3.436   5.908  13.322 -2.1019  0.0333 -1.4252
 5233TIP3    H237115   3.492   6.020  13.407  0.6586 -1.1709 -1.5405
 5234TIP3   OH237116   2.896   1.410  14.154 -0.1267  0.9342 -0.2354
 5234TIP3    H137117   2.971   1.359  14.184 -0.4885 -0.5771 -1.7198
 5234TIP3    H237118   2.892   1.394  14.060 -1.5212  2.0581 -0.4041
 5235TIP3   OH237119   6.168   0.099   1.963 -0.1973 -0.8584 -0.1320
 5235TIP3    H137120   6.209   0.013   1.972 -1.3735 -1.5120 -0.7375
 5235TIP3    H237121   6.074   0.081   1.965 -0.6322  0.8712  4.0905
 5236TIP3   OH237122   0.797   2.194  15.689 -0.0207 -0.6889 -0.3794
 5236TIP3    H137123   0.793   2.273  15.743 -3.0441 -0.3875 -0.8787
 5236TIP3    H237124   0.770   2.123  15.748 -2.3314 -0.5039 -1.0919
 5237TIP3   OH237125   0.783   3.119   1.721  0.3038 -0.6679 -0.1527
 5237TIP3    H137126   0.721   3.190   1.740 -0.6340 -1.4016 -0.3937
 5237TIP3    H237127   0.731   3.053   1.675  0.9639 -1.8448  0.7308
 5238TIP3   OH237128   1.731   5.132  16.025  0.7252 -0.4048 -0.4492
 5238TIP3    H137129   1.709   5.177  15.943 -2.0175 -0.0594  0.3587
 5238TIP3    H237130   1.801   5.184  16.063  1.2770  0.0682 -2.0310
 5239TIP3   OH237131   1.271   5.666   4.996 -0.3341 -0.7004 -0.4527
 5239TIP3    H137132   1.335   5.690   4.929 -0.6790 -2.2007 -1.3481
 5239TIP3    H237133   1.325   5.648   5.074  0.1288  0.2843 -0.5297
 5240TIP3   OH237134   3.391   1.022   1.060  0.0206 -0.3681  0.3613
 5240TIP3    H137135   3.358   0.956   1.122  1.1376 -1.0890  0.2175
 5240TIP3    H237136   3.351   1.104   1.089 -0.8187 -0.9808  0.9971
 5241TIP3   OH237137   2.429   5.694  16.723  0.0167  0.1566 -0.0616
 5241TIP3    H137138   2.403   5.636  16.795  1.0514 -0.7687 -0.4084
 5241TIP3    H237139   2.415   5.783  16.757 -2.3881 -0.2544  0.1838
 5242TIP3   OH237140   3.430   1.320  14.663  1.0123 -0.1345  0.7958
 5242TIP3    H137141   3.343   1.279  14.667  0.9469 -0.0009  0.7470
 5242TIP3    H237142   3.419   1.394  14.604  0.4758  1.5087  2.8163
 5243TIP3   OH237143   3.890   0.944  17.063 -0.5023 -0.2160  0.2774
 5243TIP3    H137144   3.926   0.881  17.001 -1.5798 -0.4781 -0.1072
 5243TIP3    H237145   3.964   0.967  17.120 -0.2320 -2.3561  0.8905
 5244TIP3   OH237146   1.385   1.340   3.563 -0.1726  0.1511  0.1921
 5244TIP3    H137147   1.469   1.298   3.580  0.7067  1.3168 -1.0401
 5244TIP3    H237148   1.401   1.433   3.581 -1.0849  0.4428 -0.4511
 5245TIP3   OH237149   0.360   2.258   6.540  0.5349  0.2086 -0.4391
 5245TIP3    H137150   0.430   2.310   6.580  0.0669  0.4735  0.0506
 5245TIP3    H237151   0.368   2.275   6.446  0.5434  0.9834 -0.3057
 5246TIP3   OH237152   6.402   0.648   2.755  0.1456 -0.2031  0.2710
 5246TIP3    H137153   6.316   0.678   2.726  1.0030 -0.6289 -3.1945
 5246TIP3    H237154   6.462   0.717   2.725  1.4311 -2.0742 -1.7466
 5247TIP3   OH237155   3.204   5.437  13.828  0.7971 -0.0044  0.0700
 5247TIP3    H137156   3.130   5.379  13.811  1.7388 -1.1899 -0.0835
 5247TIP3    H237157   3.173   5.523  13.798 -0.7982 -0.2919  0.7746
 5248TIP3   OH237158   5.623   5.921  16.929  0.8523 -0.0488 -0.0974
 5248TIP3    H137159   5.563   5.863  16.883 -0.5688 -0.9360  2.6244
 5248TIP3    H237160   5.593   6.009  16.908 -0.6373 -0.4571  0.1967
 5249TIP3   OH237161   1.852   5.203   1.567 -0.1490 -0.0806  0.2010
 5249TIP3    H137162   1.843   5.109   1.583  2.1918 -0.2323  0.8837
 5249TIP3    H237163   1.864   5.210   1.472  0.1882 -0.5267  0.2079
 5250TIP3   OH237164   5.165   6.448   4.813  0.3966  0.6037  0.3513
 5250TIP3    H137165   5.087   6.486   4.772  0.0620 -0.0259  0.3934
 5250TIP3    H237166   5.146   6.354   4.817  0.0909  0.7222  2.6710
 5251TIP3   OH237167   3.260   0.270   3.960  0.4594 -0.3113  0.0555
 5251TIP3    H137168   3.199   0.280   3.886 -0.2091 -0.8183  0.5155
 5251TIP3    H237169   3.213   0.213   4.021  1.0542  0.0038  0.8185
 5252TIP3   OH237170   1.077   0.098  17.221 -0.1704  0.1228 -0.1422
 5252TIP3    H137171   1.062   0.150  17.142 -1.1553 -0.2968 -0.2478
 5252TIP3    H237172   1.147   0.143  17.267 -0.2300  0.8972 -0.7952
 5253TIP3   OH237173   0.102   4.135  15.089 -0.8720 -0.1859 -0.0858
 5253TIP3    H137174   0.143   4.218  15.113  1.4340 -0.2677 -3.1111
 5253TIP3    H237175   0.049   4.111  15.165  2.6325  1.3044  3.1590
 5254TIP3   OH237176   0.715   0.933   2.015 -0.1344  0.6103 -0.2238
 5254TIP3    H137177   0.687   0.860   2.071 -0.1436  1.4344  0.8652
 5254TIP3    H237178   0.646   0.999   2.024 -0.0340  0.8501 -1.0585
 5255TIP3   OH237179   2.749   1.856   3.898  0.6468 -0.3794  0.4706
 5255TIP3    H137180   2.731   1.858   3.804 -0.1310  0.8877  0.6175
 5255TIP3    H237181   2.834   1.813   3.905  0.5722 -0.7819 -0.7872
 5256TIP3   OH237182   5.647   6.493   5.490  0.0781 -0.7010 -0.0795
 5256TIP3    H137183   5.637   6.579   5.531 -0.5872 -0.4915 -0.6548
 5256TIP3    H237184   5.741   6.483   5.478  0.2462 -0.5460  1.0077
 5257TIP3   OH237185   3.987   5.466   1.324 -0.2869 -0.2517  0.1238
 5257TIP3    H137186   3.930   5.537   1.355  0.8972 -0.1528  2.2493
 5257TIP3    H237187   4.075   5.500   1.337  0.3030 -1.0628 -1.5101
 5258TIP3   OH237188   5.177   1.958   1.685 -0.3457  0.3872  0.2022
 5258TIP3    H137189   5.223   2.031   1.643  0.7102 -0.6405 -0.5075
 5258TIP3    H237190   5.213   1.955   1.773 -0.8938  1.1347  0.4608
 5259TIP3   OH237191   2.707   3.446   1.843 -0.7817  0.1328 -0.5643
 5259TIP3    H137192   2.734   3.440   1.752  0.8072 -1.5615 -0.0459
 5259TIP3    H237193   2.782   3.414   1.893 -1.8033  0.4991  1.3171
 5260TIP3   OH237194   4.832   4.241  12.998 -0.2994  0.2939 -0.4966
 5260TIP3    H137195   4.757   4.204  12.951  0.3364  1.1004 -2.2574
 5260TIP3    H237196   4.806   4.241  13.090 -1.5636 -1.4857 -0.8079
 5261TIP3   OH237197   5.735   4.309  10.647 -0.2994 -0.7142  0.6504
 5261TIP3    H137198   5.788   4.334  10.571  0.2198  0.8512  1.4861
 5261TIP3    H237199   5.649   4.290  10.611 -0.4931  1.5011 -0.1862
 5262TIP3   OH237200   6.649   4.307  15.911 -0.2637  0.3341  0.7108
 5262TIP3    H137201   6.597   4.292  15.990 -0.4073 -3.3101  0.0990
 5262TIP3    H237202   6.585   4.309  15.840  0.0957  0.3342  0.3836
 5263TIP3   OH237203   5.481   2.517   6.190 -0.0131 -0.6187 -0.2416
 5263TIP3    H137204   5.390   2.489   6.199 -0.1160 -0.5123 -0.8602
 5263TIP3    H237205   5.476   2.612   6.177  0.1585 -0.6597 -0.6323
 5264TIP3   OH237206   5.027   1.502   6.014 -0.1419 -0.1651 -0.5593
 5264TIP3    H137207   5.069   1.419   5.993  2.2322  0.6182  0.7514
 5264TIP3    H237208   4.997   1.491   6.105  0.3817  0.4511 -0.3002
 5265TIP3   OH237209   6.478   0.195  12.568 -0.3261  0.7376  0.5223
 5265TIP3    H137210   6.490   0.198  12.473  0.5548 -0.0871  0.5981
 5265TIP3    H237211   6.396   0.147  12.580 -0.3645  0.7178  0.1960
 5266TIP3   OH237212   1.599   5.453   3.183 -0.1834  0.2786  0.1962
 5266TIP3    H137213   1.670   5.492   3.132  0.4034 -1.2060 -0.1614
 5266TIP3    H237214   1.523   5.508   3.163  0.2310  0.2651 -1.6219
 5267TIP3   OH237215   0.548   2.531   0.163 -0.0759 -0.2391 -1.3227
 5267TIP3    H137216   0.616   2.468   0.139  0.0393 -0.8017  0.3638
 5267TIP3    H237217   0.574   2.612   0.118  1.6990 -0.4555 -0.7759
 5268TIP3   OH237218   2.162   1.545   5.525 -0.4045 -0.0213 -0.0053
 5268TIP3    H137219   2.080   1.592   5.545 -0.3728  0.1088 -0.1790
 5268TIP3    H237220   2.182   1.497   5.605 -0.3868  0.3366  0.2103
 5269TIP3   OH237221   0.316   3.174   6.294  0.2357  0.0168  0.4219
 5269TIP3    H137222   0.296   3.233   6.222  0.2414  0.4049  0.7312
 5269TIP3    H237223   0.373   3.107   6.256  0.7377  0.5601  0.2007
 5270TIP3   OH237224   2.450   5.229   4.869  0.2439  0.5843  0.5736
 5270TIP3    H137225   2.400   5.293   4.819 -1.7402 -0.9220  0.4848
 5270TIP3    H237226   2.430   5.145   4.826  0.5484 -0.4261  2.3216
 5271TIP3   OH237227   3.052   6.456   0.525 -0.2153  0.0141  0.3917
 5271TIP3    H137228   3.026   6.366   0.543 -0.7213  0.1101  0.1679
 5271TIP3    H237229   3.052   6.463   0.429 -2.0313  0.7507  0.3944
 5272TIP3   OH237230   1.897   0.695  13.263 -0.1000 -0.3610  0.4506
 5272TIP3    H137231   1.955   0.700  13.339  1.1906 -1.3334 -0.4182
 5272TIP3    H237232   1.857   0.608  13.269 -0.6059 -0.1311  0.4340
 5273TIP3   OH237233   4.997   4.037  14.268 -0.3595  0.0959  0.2307
 5273TIP3    H137234   4.937   3.978  14.312 -0.5305 -0.6809 -1.0016
 5273TIP3    H237235   5.002   4.113  14.326 -1.0877 -0.5977  1.2428
 5274TIP3   OH237236   2.749   5.909  14.689  0.5505  0.3598  0.1904
 5274TIP3    H137237   2.833   5.916  14.643  0.2924  1.9859 -0.1152
 5274TIP3    H237238   2.766   5.850  14.761  1.3689 -1.1040 -1.1369
 5275TIP3   OH237239   1.732   6.138   3.350  0.4669 -0.0872 -0.0639
 5275TIP3    H137240   1.687   6.085   3.284 -2.2074  1.2483  0.5648
 5275TIP3    H237241   1.750   6.221   3.306  1.2688 -0.1709  0.0774
 5276TIP3   OH237242   4.586   0.830  13.313  0.5605 -0.5785 -0.2509
 5276TIP3    H137243   4.653   0.834  13.245 -1.3876  0.7351 -2.2278
 5276TIP3    H237244   4.508   0.795  13.269 -0.9724  0.9480  1.0757
 5277TIP3   OH237245   0.382   2.168  10.936  0.0095 -0.3892  0.7955
 5277TIP3    H137246   0.305   2.215  10.903  0.2540 -1.1876 -1.0551
 5277TIP3    H237247   0.409   2.112  10.863  3.2508  0.9643  0.7782
 5278TIP3   OH237248   2.392   4.055   1.751  0.7553 -0.1406 -0.4355
 5278TIP3    H137249   2.465   4.118   1.749 -0.9039  1.9345  0.2023
 5278TIP3    H237250   2.400   4.013   1.837  0.3878  1.1878  0.2878
 5279TIP3   OH237251   1.821   0.672   3.006 -0.4034  0.2939 -0.0595
 5279TIP3    H137252   1.739   0.638   2.970 -0.2943  1.4704 -1.5039
 5279TIP3    H237253   1.840   0.750   2.954  0.7003  1.0759  1.4446
 5280TIP3   OH237254   0.841   6.306  12.367 -0.5463 -0.0183  0.0450
 5280TIP3    H137255   0.817   6.283  12.277  0.5538  1.7756 -0.7733
 5280TIP3    H237256   0.870   6.224  12.406 -2.3696 -1.1109 -0.7492
 5281TIP3   OH237257   6.333   0.721   3.158 -0.1838  0.1739  0.0332
 5281TIP3    H137258   6.412   0.774   3.145 -0.3272  0.4589  0.3081
 5281TIP3    H237259   6.307   0.739   3.248 -0.5171  0.0159 -0.0299
 5282TIP3   OH237260   0.962   2.435   5.465 -0.5722  0.0179 -0.2986
 5282TIP3    H137261   0.924   2.519   5.440 -1.0515 -0.4372 -1.1156
 5282TIP3    H237262   1.045   2.431   5.417 -1.3755 -0.7436 -1.7020
 5283TIP3   OH237263   5.280   2.027  16.377 -0.2651 -0.4571  0.5124
 5283TIP3    H137264   5.268   2.032  16.282 -1.3834  0.2175  0.6699
 5283TIP3    H237265   5.238   1.945  16.402 -0.1759 -0.5220  0.4478
 5284TIP3   OH237266   1.264   2.056   4.216 -0.9153  0.5281  0.2864
 5284TIP3    H137267   1.330   2.111   4.172 -3.3779  2.8066 -0.8310
 5284TIP3    H237268   1.194   2.046   4.151 -0.8114 -3.8561  0.5261
 5285TIP3   OH237269   5.129   0.192  14.580  0.1069  0.2035 -0.1194
 5285TIP3    H137270   5.072   0.269  14.583  0.9782  0.9247 -1.1295
 5285TIP3    H237271   5.069   0.118  14.574 -0.7524  0.7858  0.9923
 5286TIP3   OH237272   4.949   5.516  11.571 -0.4761  0.5702 -0.0554
 5286TIP3    H137273   4.925   5.430  11.538 -0.7940  0.3863  0.6377
 5286TIP3    H237274   4.904   5.523  11.656  2.4758 -0.1342  1.7341
 5287TIP3   OH237275   1.555   4.289   2.063 -0.1041  0.7567 -0.1969
 5287TIP3    H137276   1.521   4.307   2.151 -0.5472  1.9380 -0.5902
 5287TIP3    H237277   1.478   4.289   2.007  0.2025  0.2394 -0.6228
 5288TIP3   OH237278   4.496   3.322   4.098 -0.0509 -0.3518 -0.3965
 5288TIP3    H137279   4.525   3.347   4.186  1.6283 -0.4598 -0.8886
 5288TIP3    H237280   4.429   3.255   4.113 -0.6448  0.4658  0.8072
 5289TIP3   OH237281   0.686   1.604  11.711  0.5939  0.8177 -1.1026
 5289TIP3    H137282   0.682   1.636  11.621 -4.0846  0.0810 -1.3684
 5289TIP3    H237283   0.599   1.619  11.747  0.4903 -3.8235  1.4649
 5290TIP3   OH237284   0.856   3.617   1.792  0.3461  0.0279 -0.1377
 5290TIP3    H137285   0.801   3.593   1.866  2.8394  0.0582  1.8489
 5290TIP3    H237286   0.882   3.707   1.809  2.2794 -0.4936 -0.1345
 5291TIP3   OH237287   6.748   1.156   5.119  0.1159 -0.2680 -0.3777
 5291TIP3    H137288   6.707   1.200   5.194 -1.0577 -1.8966 -0.0170
 5291TIP3    H237289   6.677   1.145   5.056  0.2247 -2.0888 -0.2341
 5292TIP3   OH237290   1.557   3.724  15.564 -0.4945  0.5115 -0.1220
 5292TIP3    H137291   1.633   3.770  15.528  1.1193 -2.2194 -0.4741
 5292TIP3    H237292   1.555   3.751  15.656 -1.5191  3.5299 -0.8950
 5293TIP3   OH237293   2.384   2.104  13.951 -0.3317  0.4261  0.1471
 5293TIP3    H137294   2.411   2.031  14.007  0.2324  0.6245  0.1431
 5293TIP3    H237295   2.406   2.077  13.863 -1.4997 -0.0112 -0.0319
 5294TIP3   OH237296   0.817   6.060   5.746 -0.0832  0.0559  0.1260
 5294TIP3    H137297   0.777   6.123   5.687 -0.6415  0.7024  1.1629
 5294TIP3    H237298   0.770   5.978   5.728  1.9700 -0.6632 -2.6387
 5295TIP3   OH237299   4.194   2.113  15.936 -0.2779  0.2831 -0.4925
 5295TIP3    H137300   4.243   2.171  15.994  0.4963  0.4420 -1.2759
 5295TIP3    H237301   4.255   2.042  15.916 -0.8577 -0.2478 -0.3798
 5296TIP3   OH237302   4.510   0.356  15.353 -0.0660 -0.1311  0.1776
 5296TIP3    H137303   4.483   0.272  15.315 -0.8117  0.0441  0.2964
 5296TIP3    H237304   4.586   0.334  15.407 -0.0519 -0.6753 -0.0539
 5297TIP3   OH237305   4.464   6.350  16.520  0.2626 -0.3235 -0.1806
 5297TIP3    H137306   4.508   6.385  16.597 -0.4392  0.5827 -0.1803
 5297TIP3    H237307   4.397   6.415  16.498 -1.3444 -1.8184  0.0417
 5298TIP3   OH237308   2.879   6.466   3.491 -0.0530 -0.3420 -0.0400
 5298TIP3    H137309   2.813   6.401   3.466  2.2338 -3.4962  1.3369
 5298TIP3    H237310   2.904   6.508   3.409 -0.9949 -1.9243 -1.1981
 5299TIP3   OH237311   1.267   4.519  14.129  0.2392  0.2709  0.7895
 5299TIP3    H137312   1.194   4.470  14.091 -1.1144  2.8319 -0.1556
 5299TIP3    H237313   1.258   4.506  14.224 -0.2054 -1.0523  0.5819
 5300TIP3   OH237314   5.423   1.462   3.778  0.0023  0.6158 -0.0888
 5300TIP3    H137315   5.336   1.496   3.760  0.5329  1.3852 -1.2774
 5300TIP3    H237316   5.439   1.396   3.710  0.0305 -0.1534  0.6324
 5301TIP3   OH237317   4.327   6.753   0.202 -0.1857  0.4468 -0.2913
 5301TIP3    H137318   4.381   6.700   0.260 -1.9818  0.4387  1.4655
 5301TIP3    H237319   4.275   6.689   0.153  2.4466  0.3431 -3.3035
 5302TIP3   OH237320   4.106   0.866  16.852 -0.1216  0.5798  0.6763
 5302TIP3    H137321   4.154   0.936  16.808 -1.1918  0.7397 -0.2782
 5302TIP3    H237322   4.044   0.834  16.787 -0.7275 -0.2046  1.5990
 5303TIP3   OH237323   1.731   3.689   5.486  0.1354  0.0843  0.2740
 5303TIP3    H137324   1.725   3.766   5.542 -1.0211  0.5511 -0.4541
 5303TIP3    H237325   1.675   3.709   5.411 -0.0077 -1.3640 -0.0436
 5304TIP3   OH237326   4.932   6.771   3.966  0.2078  0.6400 -0.9477
 5304TIP3    H137327   4.879   6.829   4.020 -0.5396  0.0773 -1.0544
 5304TIP3    H237328   4.985   6.829   3.912  0.5688  1.2104 -0.0045
 5305TIP3   OH237329   2.707   1.175   4.496 -0.2993 -0.4248  0.0716
 5305TIP3    H137330   2.713   1.139   4.585 -1.7108  0.5971  0.6304
 5305TIP3    H237331   2.632   1.129   4.457  0.2583 -0.8039 -0.5751
 5306TIP3   OH237332   3.075   3.771  11.342  0.0963 -0.4940  0.6215
 5306TIP3    H137333   3.012   3.817  11.287 -0.2524 -0.5648  0.9572
 5306TIP3    H237334   3.157   3.773  11.292  0.0805  0.4499  0.6159
 5307TIP3   OH237335   6.619   2.448   0.116  0.1698 -0.9580  0.0968
 5307TIP3    H137336   6.604   2.363   0.075 -1.1005 -1.5443  1.6832
 5307TIP3    H237337   6.701   2.438   0.164 -0.7666 -1.8468  1.5760
 5308TIP3   OH237338   5.679   4.248   3.806 -0.5163  0.6806 -0.0211
 5308TIP3    H137339   5.667   4.269   3.713 -1.0835  0.2821 -0.0402
 5308TIP3    H237340   5.590   4.230   3.838 -0.1505 -0.8388  0.1986
 5309TIP3   OH237341   1.803   0.417   0.358 -0.2937  0.2059  0.6254
 5309TIP3    H137342   1.812   0.477   0.284  0.2054 -0.7534 -0.1242
 5309TIP3    H237343   1.767   0.470   0.428 -2.1571  0.8353 -0.7295
 5310TIP3   OH237344   2.066   6.604  10.505  0.5423  0.2911  0.6620
 5310TIP3    H137345   2.085   6.511  10.519 -1.9001 -0.5202 -0.8461
 5310TIP3    H237346   1.992   6.623  10.562 -0.3423  0.6920 -0.5628
 5311TIP3   OH237347   2.153   1.519  11.113 -0.0421 -0.0143  0.0977
 5311TIP3    H137348   2.067   1.544  11.080 -0.3401 -0.7489  0.3040
 5311TIP3    H237349   2.209   1.519  11.035 -0.1197  0.8942  0.0328
 5312TIP3   OH237350   2.242   4.759  15.799  0.3605 -0.0441  0.3762
 5312TIP3    H137351   2.167   4.720  15.844 -0.5278 -1.1142 -1.9062
 5312TIP3    H237352   2.318   4.733  15.852 -0.6489 -0.8738  1.4771
 5313TIP3   OH237353   6.128   5.725   4.212  0.1054  0.6313 -0.1822
 5313TIP3    H137354   6.176   5.664   4.268  0.3122  2.6836  2.0666
 5313TIP3    H237355   6.038   5.721   4.245 -0.5663 -0.5448 -1.9952
 5314TIP3   OH237356   6.779   0.050  14.910 -0.0962  0.3934 -0.0282
 5314TIP3    H137357   6.697   0.095  14.926 -0.5766 -0.1816 -0.8036
 5314TIP3    H237358   6.788   0.049  14.815  0.5396 -0.0272  0.0292
 5315TIP3   OH237359   3.798   2.736  11.835  0.6261 -0.1412 -0.0725
 5315TIP3    H137360   3.826   2.646  11.820 -3.0474 -1.3554 -0.7266
 5315TIP3    H237361   3.824   2.783  11.756 -0.8488 -1.6824 -1.5730
 5316TIP3   OH237362   0.870   6.717   0.661  0.2107  0.4480 -0.2899
 5316TIP3    H137363   0.778   6.738   0.641  0.4767  1.1608 -0.8182
 5316TIP3    H237364   0.873   6.710   0.756 -0.1422  1.7068 -0.1687
 5317TIP3   OH237365   1.612   4.063  13.701  0.1588 -0.1115 -0.0190
 5317TIP3    H137366   1.703   4.072  13.728  0.0027  0.9084  0.1870
 5317TIP3    H237367   1.603   4.120  13.625 -0.6159  0.8049  0.7311
 5318TIP3   OH237368   6.131   6.178  12.362  0.1364  0.5178 -0.2670
 5318TIP3    H137369   6.132   6.149  12.271  2.2746  0.5058 -0.2796
 5318TIP3    H237370   6.159   6.101  12.413  2.2113  1.3937  0.0386
 5319TIP3   OH237371   1.235   5.384  15.929  0.1471 -0.1989 -0.2429
 5319TIP3    H137372   1.270   5.384  15.840 -0.6470  0.5473 -0.5643
 5319TIP3    H237373   1.298   5.332  15.979  0.6963 -0.4761 -1.1980
 5320TIP3   OH237374   2.548   0.114  17.048 -0.2048 -0.1126 -0.2104
 5320TIP3    H137375   2.626   0.096  17.100  0.5777  2.0187 -0.5415
 5320TIP3    H237376   2.576   0.097  16.958  0.2792  1.6989 -0.4403
 5321TIP3   OH237377   5.904   3.390  17.144  0.5448 -0.4546  0.0710
 5321TIP3    H137378   5.989   3.422  17.177 -0.2897  1.3949  0.5709
 5321TIP3    H237379   5.863   3.467  17.106 -0.9770 -1.2861 -0.0331
 5322TIP3   OH237380   5.040   4.481   2.493 -1.0027 -0.5369 -0.3794
 5322TIP3    H137381   5.104   4.537   2.451 -1.4133 -0.7454 -1.3108
 5322TIP3    H237382   4.980   4.457   2.423 -0.9992 -1.9006  0.0634
 5323TIP3   OH237383   2.268   0.110   0.532 -0.5945 -0.0226 -0.7824
 5323TIP3    H137384   2.232   0.190   0.569  0.8091 -0.1285  0.9534
 5323TIP3    H237385   2.340   0.086   0.591 -0.3139 -1.9985 -1.8260
 5324TIP3   OH237386   3.256   5.308   0.807  0.2787 -0.1155  0.6283
 5324TIP3    H137387   3.318   5.380   0.798 -1.0158  1.0538  0.7414
 5324TIP3    H237388   3.251   5.292   0.901 -2.2796  2.3276  1.0420
 5325TIP3   OH237389   5.304   5.123  16.715 -0.5469 -0.4131 -0.1057
 5325TIP3    H137390   5.336   5.105  16.627 -0.7428 -0.0241 -0.2587
 5325TIP3    H237391   5.208   5.123  16.706 -0.5585  0.1041  0.0123
 5326TIP3   OH237392   5.953   4.181   1.401 -0.2549 -0.2817  0.0324
 5326TIP3    H137393   5.908   4.256   1.361 -0.4445 -0.5295 -0.2209
 5326TIP3    H237394   5.887   4.112   1.405 -0.4449 -0.0423  1.4465
 5327TIP3   OH237395   1.611   1.665   1.022 -0.2087 -0.3369 -0.2956
 5327TIP3    H137396   1.687   1.612   1.047  0.2362  0.0399 -0.8241
 5327TIP3    H237397   1.596   1.643   0.930 -1.1098 -0.8468 -0.0367
 5328TIP3   OH237398   1.950   0.911  11.535 -0.5602 -0.4225 -0.4955
 5328TIP3    H137399   1.957   0.817  11.521  0.4628 -0.1264 -2.2924
 5328TIP3    H237400   2.027   0.948  11.492 -0.6429  1.2154  0.6478
 5329TIP3   OH237401   6.700   4.912  11.261 -0.2427  0.1584 -0.3787
 5329TIP3    H137402   6.776   4.947  11.216  1.0926  1.1309  2.4333
 5329TIP3    H237403   6.724   4.822  11.283 -0.7916 -0.2274 -1.2592
 5330TIP3   OH237404   4.518   3.131   6.276 -0.3138 -0.1359  1.0791
 5330TIP3    H137405   4.539   3.211   6.326 -0.7956  0.8620 -0.2782
 5330TIP3    H237406   4.436   3.100   6.314 -0.7886  0.7330  0.7862
 5331TIP3   OH237407   2.421   1.646   1.563 -0.2616  0.3137 -0.2542
 5331TIP3    H137408   2.494   1.586   1.554 -0.4106  0.2981 -1.6746
 5331TIP3    H237409   2.343   1.590   1.562 -0.4480  0.4964 -2.4004
 5332TIP3   OH237410   2.236   1.357  12.798  0.2577  0.6134  0.2328
 5332TIP3    H137411   2.179   1.346  12.722 -0.2059  1.0171  0.5171
 5332TIP3    H237412   2.311   1.406  12.764  0.8362 -0.6188 -0.3238
 5333TIP3   OH237413   2.771   5.673  15.098  0.9717  0.4052 -0.0181
 5333TIP3    H137414   2.771   5.747  15.159 -0.8238  0.5508 -0.1381
 5333TIP3    H237415   2.761   5.596  15.155 -0.9510  0.5573 -0.0786
 5334TIP3   OH237416   6.172   2.977  16.054  0.2863  0.2929 -0.2536
 5334TIP3    H137417   6.109   3.023  16.110 -0.2676  0.4440 -0.9935
 5334TIP3    H237418   6.124   2.901  16.021  0.6261  0.1779 -0.4884
 5335TIP3   OH237419   6.646   5.398   2.120 -0.3531  0.3816  0.3151
 5335TIP3    H137420   6.733   5.402   2.081  0.3657 -1.4836  1.5463
 5335TIP3    H237421   6.629   5.486   2.152  1.1841  0.7289  0.2417
 5336TIP3   OH237422   4.780   3.277  12.482  0.0628 -0.3567  1.1986
 5336TIP3    H137423   4.830   3.259  12.561 -0.2730  1.1678  1.8020
 5336TIP3    H237424   4.810   3.364  12.455 -1.1707 -0.0619  0.7139
 5337TIP3   OH237425   4.685   1.904   3.963  0.4582  0.1264  0.2957
 5337TIP3    H137426   4.718   1.843   4.029  0.4454 -0.6074 -0.3609
 5337TIP3    H237427   4.721   1.989   3.989  0.2413 -0.1021  1.3844
 5338TIP3   OH237428   4.053   3.116   3.074 -0.1077 -0.2854  0.3904
 5338TIP3    H137429   4.083   3.025   3.077  0.4319 -0.0854  2.0539
 5338TIP3    H237430   4.131   3.166   3.048 -0.7626 -0.3889 -2.0166
 5339TIP3   OH237431   3.263   5.029   4.327 -0.4027 -0.3174  0.0025
 5339TIP3    H137432   3.277   4.983   4.409 -1.5197  1.2718  1.1329
 5339TIP3    H237433   3.334   5.093   4.322 -0.8168  0.1558  0.1517
 5340TIP3   OH237434   4.128   5.722  15.334 -0.0927  0.0732  0.5251
 5340TIP3    H137435   4.129   5.630  15.358  0.6015  0.3213  1.5020
 5340TIP3    H237436   4.088   5.766  15.408  0.5858  0.6780  0.5416
 5341TIP3   OH237437   6.624   1.344  12.306  0.3386 -0.0672  0.0860
 5341TIP3    H137438   6.569   1.412  12.343  1.4445  0.9177  0.0073
 5341TIP3    H237439   6.564   1.284  12.262 -0.7661  0.1161  1.3128
 5342TIP3   OH237440   4.579   1.375  11.769 -0.7296 -0.5358 -0.6550
 5342TIP3    H137441   4.535   1.363  11.853  1.4765 -0.0839  0.6570
 5342TIP3    H237442   4.671   1.386  11.792 -0.1002 -0.0185 -3.1301
 5343TIP3   OH237443   0.280   4.936  15.338  0.5155  0.6479  0.0697
 5343TIP3    H137444   0.234   5.016  15.364 -2.0138 -0.9738  0.8744
 5343TIP3    H237445   0.301   4.892  15.420 -3.8318 -2.4936 -0.2019
 5344TIP3   OH237446   3.673   5.750   2.892  0.2500  0.1512  0.4979
 5344TIP3    H137447   3.624   5.745   2.974 -1.3152  1.0089 -0.3341
 5344TIP3    H237448   3.607   5.737   2.824  1.4330 -0.0526 -0.6536
 5345TIP3   OH237449   5.255   5.898  15.033 -0.1767  0.2892 -0.6110
 5345TIP3    H137450   5.220   5.838  15.100 -1.2574  0.8660 -0.6338
 5345TIP3    H237451   5.347   5.873  15.024 -0.1730 -0.2159  0.6348
 5346TIP3   OH237452   3.035   4.505   2.072  0.0413 -0.3900 -0.0228
 5346TIP3    H137453   3.023   4.598   2.088  0.6838 -0.3056 -0.0165
 5346TIP3    H237454   3.130   4.491   2.076 -0.0022 -0.9395 -0.5866
 5347TIP3   OH237455   0.463   3.027  12.721  0.1377 -0.0003 -0.3711
 5347TIP3    H137456   0.379   3.065  12.695  0.5197  0.1506 -1.4587
 5347TIP3    H237457   0.461   3.028  12.816 -2.0719 -2.2132 -0.2932
 5348TIP3   OH237458   4.139   2.655   2.408  0.3073 -0.4248  0.4645
 5348TIP3    H137459   4.233   2.645   2.423  0.2201 -1.2164  0.5149
 5348TIP3    H237460   4.132   2.689   2.319  0.6693  0.3494  0.7268
 5349TIP3   OH237461   0.468   6.624   5.441 -0.0666 -0.3044  0.6004
 5349TIP3    H137462   0.462   6.554   5.505 -0.3461 -0.0141  0.8992
 5349TIP3    H237463   0.456   6.581   5.356 -2.9227 -0.2937  0.9112
 5350TIP3   OH237464   6.283   4.775   1.327 -0.0721  0.1525 -0.3031
 5350TIP3    H137465   6.323   4.772   1.414  0.2754 -0.5922 -0.4798
 5350TIP3    H237466   6.311   4.694   1.285 -1.7453 -0.3759 -0.4564
 5351TIP3   OH237467   2.010   0.539  13.689  0.1749  0.3881  0.0594
 5351TIP3    H137468   1.985   0.561  13.779  1.0517  0.4226  0.3067
 5351TIP3    H237469   2.042   0.622  13.653 -0.5132  0.4582 -0.4155
 5352TIP3   OH237470   3.522   3.809  13.132  0.1133 -0.1236 -0.2838
 5352TIP3    H137471   3.459   3.877  13.111 -0.1054 -0.5050 -0.8719
 5352TIP3    H237472   3.498   3.735  13.076 -1.0480 -1.5054  1.8850
 5353TIP3   OH237473   5.390   2.049   4.765 -0.3226 -0.1818 -0.6998
 5353TIP3    H137474   5.302   2.048   4.803  0.2625  0.0126  0.6968
 5353TIP3    H237475   5.397   2.135   4.723 -0.8382 -0.2573 -0.9521
 5354TIP3   OH237476   6.724   2.121   4.562  0.7812 -0.4484 -0.7444
 5354TIP3    H137477   6.750   2.207   4.528  2.6011 -0.6436  0.0187
 5354TIP3    H237478   6.638   2.105   4.523  0.6819  1.4215 -1.4186
 5355TIP3   OH237479   0.887   5.116  12.643  1.2279 -0.1118  0.2010
 5355TIP3    H137480   0.908   5.209  12.653  0.7396  0.0810 -0.4745
 5355TIP3    H237481   0.942   5.072  12.708  2.2194  0.5559 -0.1568
 5356TIP3   OH237482   1.658   5.515  15.871  0.2120  0.6664  0.1828
 5356TIP3    H137483   1.753   5.525  15.863  0.3041 -0.7914 -0.9030
 5356TIP3    H237484   1.638   5.438  15.819 -1.4934  0.5400  0.9721
 5357TIP3   OH237485   5.383   2.604   1.457  0.4855 -0.2187  0.0850
 5357TIP3    H137486   5.303   2.616   1.509  0.5257 -0.2390  0.1521
 5357TIP3    H237487   5.377   2.515   1.423  1.1285 -0.7226  1.2197
 5358TIP3   OH237488   0.325   6.473  11.364 -0.3208 -0.5049 -0.3744
 5358TIP3    H137489   0.279   6.557  11.374  0.2518 -0.2015 -0.2515
 5358TIP3    H237490   0.389   6.473  11.434  0.6915 -0.3754 -1.2778
 5359TIP3   OH237491   5.711   2.089   5.295  0.4896 -0.0310  0.2273
 5359TIP3    H137492   5.644   2.119   5.357  0.0693 -0.0993 -0.1952
 5359TIP3    H237493   5.690   2.134   5.213  0.9141 -0.1136  0.0717
 5360TIP3   OH237494   0.857   2.187   5.509 -0.0953  0.0943  0.2365
 5360TIP3    H137495   0.909   2.208   5.587  0.3652  0.4122 -0.1493
 5360TIP3    H237496   0.906   2.226   5.437  0.1313 -1.2603 -0.3713
 5361TIP3   OH237497   1.377   5.544  15.481  0.3203  0.0874 -0.0389
 5361TIP3    H137498   1.320   5.614  15.449 -0.7192 -0.3955  0.7110
 5361TIP3    H237499   1.343   5.522  15.567  0.7110 -1.2485 -0.1985
 5362TIP3   OH237500   4.633   0.808   3.826 -0.5422  0.3775 -0.6545
 5362TIP3    H137501   4.726   0.786   3.832 -0.7668 -0.6878 -0.7535
 5362TIP3    H237502   4.589   0.735   3.870 -1.2975  1.3144  0.2061
 5363TIP3   OH237503   5.345   1.648   3.509  0.5214  0.2599  0.2022
 5363TIP3    H137504   5.299   1.610   3.585  0.6434  1.0294  0.6744
 5363TIP3    H237505   5.300   1.611   3.433 -0.9860  1.0791  0.6509
 5364TIP3   OH237506   6.353   3.761  13.787  0.3178  0.6603 -0.0518
 5364TIP3    H137507   6.334   3.668  13.793  0.0290  0.5580 -1.9308
 5364TIP3    H237508   6.289   3.803  13.844  1.3982 -0.3342  1.9980
 5365TIP3   OH237509   2.482   3.435  14.731 -0.2853  0.2706 -0.1076
 5365TIP3    H137510   2.488   3.493  14.807  0.7648 -0.7836  0.6492
 5365TIP3    H237511   2.572   3.407  14.715 -0.7882 -1.3610 -0.2729
 5366TIP3   OH237512   3.422   6.307   4.809 -0.2489 -0.5178 -0.5864
 5366TIP3    H137513   3.391   6.247   4.741 -2.1656 -0.8867  0.5416
 5366TIP3    H237514   3.490   6.258   4.855 -1.6458 -1.8225  0.1965
 5367TIP3   OH237515   0.560   0.579   4.771  0.1621  0.0314 -0.0599
 5367TIP3    H137516   0.482   0.588   4.716  1.8379  0.7568 -2.4559
 5367TIP3    H237517   0.540   0.629   4.850 -2.1599 -0.6718 -0.1310
 5368TIP3   OH237518   4.541   4.358  11.942 -0.3578 -0.2759 -0.3307
 5368TIP3    H137519   4.476   4.296  11.908 -1.1416  0.7223 -0.6879
 5368TIP3    H237520   4.597   4.376  11.867 -0.2597 -0.3881 -0.2843
 5369TIP3   OH237521   4.893   0.301  10.966  0.1469  0.1275  0.6040
 5369TIP3    H137522   4.905   0.379  11.022 -1.3988  0.9912 -0.2124
 5369TIP3    H237523   4.964   0.308  10.902 -2.2113  3.2129 -1.9893
 5370TIP3   OH237524   4.959   4.078  14.641 -0.7156  0.9284 -0.3481
 5370TIP3    H137525   4.873   4.106  14.607 -0.4633  1.1230 -0.8417
 5370TIP3    H237526   4.999   4.159  14.673 -0.1750  1.0763 -1.3479
 5371TIP3   OH237527   0.235   0.782  17.056  0.3964  0.0777 -0.5582
 5371TIP3    H137528   0.200   0.771  16.968  2.3178  1.5226 -1.5740
 5371TIP3    H237529   0.204   0.868  17.084  1.0844  0.3090 -0.4851
 5372TIP3   OH237530   0.003   0.056  14.640  0.4472 -0.7768  0.3620
 5372TIP3    H137531   0.007  -0.027  14.592  1.1804 -1.3669  1.4149
 5372TIP3    H237532   0.085   0.100  14.619 -0.4178  0.2371 -1.1048
 5373TIP3   OH237533   1.402   4.427   4.332  0.6211 -0.2624 -0.2580
 5373TIP3    H137534   1.374   4.434   4.240 -0.2495 -0.2850 -0.0062
 5373TIP3    H237535   1.348   4.492   4.377  2.2766  1.0067 -0.0175
 5374TIP3   OH237536   0.738   1.687   0.097 -0.2793  0.4664 -0.4026
 5374TIP3    H137537   0.723   1.772   0.056  0.1797  1.2761  1.0167
 5374TIP3    H237538   0.767   1.631   0.026 -0.8771  1.4098 -1.4312
 5375TIP3   OH237539   1.100   0.529   1.117  0.1137  0.4940  0.2113
 5375TIP3    H137540   1.116   0.581   1.038  0.0667  2.0166  1.1591
 5375TIP3    H237541   1.083   0.594   1.185  1.3871 -0.7246  1.7610
 5376TIP3   OH237542   3.267   6.364   5.080 -0.3033  0.1778 -0.1853
 5376TIP3    H137543   3.349   6.385   5.035 -1.1883  0.8683 -1.5512
 5376TIP3    H237544   3.294   6.341   5.169  1.3502  0.5082 -0.5575
 5377TIP3   OH237545   5.380   0.627  12.596 -0.1656 -0.4133  0.9077
 5377TIP3    H137546   5.433   0.700  12.564 -1.6012  0.2469 -0.0509
 5377TIP3    H237547   5.313   0.614  12.529 -0.7870 -1.6955  1.7341
 5378TIP3   OH237548   5.391   1.125   1.866 -0.2334  0.1017  0.2018
 5378TIP3    H137549   5.343   1.207   1.856 -0.2272  0.1861  0.8596
 5378TIP3    H237550   5.472   1.138   1.818 -0.4541  0.2951 -0.1222
 5379TIP3   OH237551   2.965   6.540   2.980  0.1080 -0.4211  0.4732
 5379TIP3    H137552   2.987   6.489   2.902 -1.6315 -0.6499  0.1022
 5379TIP3    H237553   2.949   6.475   3.048  1.9616 -0.2156  1.1735
 5380TIP3   OH237554   0.353   6.525  11.850 -0.5358  0.0040 -0.2150
 5380TIP3    H137555   0.404   6.592  11.896 -0.7000 -0.5864  0.8592
 5380TIP3    H237556   0.407   6.501  11.775  0.2942  0.1321  0.3283
 5381TIP3   OH237557   4.009   6.037   5.434 -0.6374 -0.0284 -1.2045
 5381TIP3    H137558   3.967   5.969   5.382 -0.5339 -2.0549  1.1680
 5381TIP3    H237559   4.066   5.989   5.494 -2.0421  1.9166  1.9521
 5382TIP3   OH237560   0.973   3.669   0.789 -0.2732 -0.1297  0.4633
 5382TIP3    H137561   0.931   3.709   0.865  0.9406  0.5974  0.7808
 5382TIP3    H237562   0.972   3.575   0.807 -1.8437 -0.1596  0.3903
 5383TIP3   OH237563   3.760   3.711   3.383  0.0819  0.5207 -0.3582
 5383TIP3    H137564   3.844   3.745   3.352 -0.0741  0.1081 -1.2536
 5383TIP3    H237565   3.714   3.686   3.304 -0.9215  0.8004  0.1229
 5384TIP3   OH237566   0.631   0.025   0.453  0.0897  0.0174 -0.3050
 5384TIP3    H137567   0.592  -0.056   0.486 -1.2632  0.3166 -1.0658
 5384TIP3    H237568   0.686  -0.002   0.379  1.2063 -0.3907  0.6506
 5385TIP3   OH237569   4.361   5.581  15.872 -0.1301 -0.3849 -0.4750
 5385TIP3    H137570   4.424   5.590  15.801  1.2534  1.3056  0.8674
 5385TIP3    H237571   4.307   5.506  15.847  0.9125 -0.4544 -2.7989
 5386TIP3   OH237572   2.213   5.783  14.150 -0.2123  0.0757  0.3040
 5386TIP3    H137573   2.304   5.755  14.142 -0.1066  0.3128  0.6610
 5386TIP3    H237574   2.213   5.872  14.114 -0.5303 -0.3400 -0.7565
 5387TIP3   OH237575   0.588   4.113  14.380  0.1404  0.6226 -0.6030
 5387TIP3    H137576   0.583   4.020  14.400 -1.4896 -0.0563 -3.5187
 5387TIP3    H237577   0.665   4.122  14.325  0.4874  1.0848 -0.0538
 5388TIP3   OH237578   2.657   2.397  11.727  0.3266  0.2052  0.0885
 5388TIP3    H137579   2.743   2.364  11.755  1.3191  1.7482 -0.9972
 5388TIP3    H237580   2.604   2.396  11.807  1.4832 -0.3768  0.8820
 5389TIP3   OH237581   0.653   1.691  11.432 -0.1036  0.1027  0.1030
 5389TIP3    H137582   0.594   1.765  11.441  1.0474  1.0252  0.2350
 5389TIP3    H237583   0.712   1.715  11.360  0.4453 -0.5630  0.3163
 5390TIP3   OH237584   2.137   3.117   4.112 -0.4503  0.2585  0.3259
 5390TIP3    H137585   2.210   3.072   4.070  0.6524  1.8681  0.4399
 5390TIP3    H237586   2.168   3.138   4.200 -1.3914  0.1684  0.6937
 5391TIP3   OH237587   3.549   5.447  11.736  0.1816  0.1760 -0.0756
 5391TIP3    H137588   3.539   5.386  11.663  1.6903  2.6824 -2.5701
 5391TIP3    H237589   3.564   5.532  11.694 -2.8350  2.5808  3.1344
 5392TIP3   OH237590   2.268   0.348  12.515 -0.0156 -0.6128  0.6498
 5392TIP3    H137591   2.262   0.375  12.607  1.3714 -0.2132  0.6510
 5392TIP3    H237592   2.284   0.430  12.467 -0.7310 -0.8178  0.0552
 5393TIP3   OH237593   6.207   5.243  15.763  0.1033  0.5002 -0.0102
 5393TIP3    H137594   6.161   5.171  15.806  0.5266 -0.2846 -0.8410
 5393TIP3    H237595   6.296   5.211  15.748 -0.0268  0.7257 -1.4635
 5394TIP3   OH237596   4.592   5.651  12.739  0.0743  0.3443 -0.4645
 5394TIP3    H137597   4.571   5.577  12.796  1.3407  0.3583  0.0485
 5394TIP3    H237598   4.571   5.620  12.651 -1.7406  0.2540 -0.0426
 5395TIP3   OH237599   1.940   3.528   3.646  0.0136 -0.8671  0.3535
 5395TIP3    H137600   1.987   3.597   3.693 -1.9281  1.4746 -0.9185
 5395TIP3    H237601   1.989   3.517   3.564  1.0363 -1.9938  1.0712
 5396TIP3   OH237602   2.591   4.244   5.111  0.5496 -0.0378  0.3056
 5396TIP3    H137603   2.675   4.266   5.151 -0.1269  0.2251  1.6502
 5396TIP3    H237604   2.527   4.297   5.159 -0.4099 -0.3229 -0.6045
 5397TIP3   OH237605   4.049   4.038  11.226  0.0712  0.1281 -0.3094
 5397TIP3    H137606   4.030   4.113  11.170  2.0715  1.5572  0.7696
 5397TIP3    H237607   4.131   4.062  11.271 -0.9859 -1.2289  2.6070
 5398TIP3   OH237608   2.092   4.442   0.615 -0.1544 -0.1248  0.2435
 5398TIP3    H137609   2.141   4.386   0.556 -0.5888  0.3531 -0.5938
 5398TIP3    H237610   2.159   4.492   0.662  0.1864 -0.0238 -0.3400
 5399TIP3   OH237611   2.331   0.915   5.344  0.5301  0.5131 -0.9208
 5399TIP3    H137612   2.336   0.877   5.256  1.4235  1.2413 -1.1982
 5399TIP3    H237613   2.358   1.006   5.333  1.7531  0.3342  0.2745
 5400TIP3   OH237614   1.893   6.594  13.368  0.6240  0.4311  0.3053
 5400TIP3    H137615   1.878   6.516  13.422  0.6569 -0.0814 -0.4191
 5400TIP3    H237616   1.831   6.659  13.403  1.5613  0.5588  1.8276
 5401TIP3   OH237617   2.436   6.604  12.135  0.3267  0.1975  0.1539
 5401TIP3    H137618   2.451   6.513  12.163  1.5470 -0.1030 -1.3448
 5401TIP3    H237619   2.511   6.653  12.171 -0.1422  0.5499  0.6604
 5402TIP3   OH237620   2.408   4.835   5.731 -0.0394  0.4110  0.1273
 5402TIP3    H137621   2.333   4.831   5.671 -0.8837  1.1940  1.0923
 5402TIP3    H237622   2.371   4.816   5.817  0.9740  0.2768  0.5435
 5403TIP3   OH237623   3.433   5.385   1.667 -0.1140  0.0321  0.3816
 5403TIP3    H137624   3.431   5.477   1.643  1.5192  0.2214  0.8770
 5403TIP3    H237625   3.524   5.367   1.689 -0.2384 -1.9115 -0.4501
 5404TIP3   OH237626   1.922   4.417  14.987 -0.3419 -0.3741  0.0450
 5404TIP3    H137627   1.940   4.482  14.920 -0.0561  0.2755  0.7383
 5404TIP3    H237628   2.006   4.403  15.031 -0.2796 -1.6013 -0.4285
 5405TIP3   OH237629   5.238   5.474   2.291 -0.9873  0.2723 -0.1773
 5405TIP3    H137630   5.284   5.396   2.323 -0.3155 -0.0594 -1.8635
 5405TIP3    H237631   5.183   5.501   2.365 -0.9870 -1.5996  0.5545
 5406TIP3   OH237632   1.170   0.672  11.470 -0.0266 -0.0754  0.2854
 5406TIP3    H137633   1.228   0.606  11.434 -0.7607 -2.7388  3.5013
 5406TIP3    H237634   1.089   0.664  11.419  0.6556  0.0300 -0.8474
 5407TIP3   OH237635   4.608   4.698  13.971 -0.2339  0.0939 -0.5119
 5407TIP3    H137636   4.675   4.761  13.998  0.4211 -0.6942 -0.2692
 5407TIP3    H237637   4.645   4.655  13.894 -0.5766 -0.1427 -0.5457
 5408TIP3   OH237638   4.820   4.598   3.813 -0.7424 -0.4830 -0.3597
 5408TIP3    H137639   4.914   4.604   3.828 -0.9604 -1.5911  1.8042
 5408TIP3    H237640   4.802   4.504   3.811 -1.9975 -0.2899  0.7728
 5409TIP3   OH237641   4.369   0.670  11.960 -0.3138 -0.1058  0.4424
 5409TIP3    H137642   4.404   0.751  11.997  1.5245 -1.2364  1.3301
 5409TIP3    H237643   4.390   0.676  11.866  2.1604 -0.5818  0.8801
 5410TIP3   OH237644   5.382   4.572  15.140 -0.3324  0.6471 -0.2269
 5410TIP3    H137645   5.437   4.553  15.064  1.0538  1.9514  0.3920
 5410TIP3    H237646   5.364   4.486  15.178 -0.2362  0.0563 -1.4759
 5411TIP3   OH237647   4.651   2.112  16.524 -0.3169  0.0668  0.1009
 5411TIP3    H137648   4.696   2.027  16.522  0.6200  0.5397  0.4757
 5411TIP3    H237649   4.721   2.176  16.534 -0.9997  0.9092 -0.4128
 5412TIP3   OH237650   2.970   6.067   1.825  0.1280 -0.2577 -0.5818
 5412TIP3    H137651   2.948   6.160   1.830 -0.9159 -0.5205  0.1103
 5412TIP3    H237652   2.993   6.043   1.914 -1.9994 -1.1928 -0.2261
 5413TIP3   OH237653   6.514   3.266   3.762  0.4075  0.1574 -0.1985
 5413TIP3    H137654   6.474   3.263   3.849 -1.5563 -0.8519 -1.0636
 5413TIP3    H237655   6.591   3.209   3.769  1.8616  2.1922  1.5324
 5414TIP3   OH237656   2.285   5.618  11.191  0.1922 -0.7432  0.1767
 5414TIP3    H137657   2.338   5.539  11.192 -0.5061 -1.2213  0.7024
 5414TIP3    H237658   2.202   5.591  11.152  0.4105  0.0618 -0.9000
 5415TIP3   OH237659   4.541   5.456  12.922  0.2804 -0.1499  0.2663
 5415TIP3    H137660   4.597   5.379  12.910  1.1139 -0.1233  3.1310
 5415TIP3    H237661   4.462   5.422  12.965  0.6727  0.5265  1.5926
 5416TIP3   OH237662   1.945   4.458  16.134 -0.3053 -0.1158 -0.7527
 5416TIP3    H137663   1.974   4.489  16.048  1.4916 -1.3699 -0.6523
 5416TIP3    H237664   1.907   4.536  16.175  0.4853  0.9732 -1.9780
 5417TIP3   OH237665   5.980   1.153   1.876 -0.3964  0.2980 -0.1124
 5417TIP3    H137666   6.015   1.094   1.810 -1.3696  0.9676 -1.2775
 5417TIP3    H237667   5.910   1.102   1.918  0.9147 -0.5021  1.1708
 5418TIP3   OH237668   4.146   5.915   6.074 -0.0727 -0.8343 -0.0984
 5418TIP3    H137669   4.131   5.918   6.168 -0.8717  1.3247 -0.2388
 5418TIP3    H237670   4.210   5.985   6.057  2.9077 -3.4904 -0.7860
 5419TIP3   OH237671   6.123   2.294   5.541  0.2088  0.3480  0.0403
 5419TIP3    H137672   6.043   2.324   5.583  0.0703  0.1574 -0.0840
 5419TIP3    H237673   6.093   2.230   5.476  0.2163  2.0598 -1.7344
 5420TIP3   OH237674   2.758   1.814  16.272  0.2997  0.0050  0.0018
 5420TIP3    H137675   2.787   1.896  16.312  0.7382 -0.4738  0.7059
 5420TIP3    H237676   2.710   1.769  16.343 -0.0634 -0.2786 -0.4182
 5421TIP3   OH237677   2.700   2.440  13.667 -0.1524 -0.2045 -0.7674
 5421TIP3    H137678   2.697   2.525  13.713 -1.8240 -0.2807 -0.6906
 5421TIP3    H237679   2.664   2.378  13.730  1.9009 -1.1789 -0.4819
 5422TIP3   OH237680   5.847   0.189   2.487 -0.2336  0.0318  0.1845
 5422TIP3    H137681   5.888   0.175   2.572 -4.0876 -0.2647  2.2319
 5422TIP3    H237682   5.821   0.102   2.458  1.3086  0.0892 -1.5641
 5423TIP3   OH237683   0.064   3.255   4.401 -0.4930  0.6903 -0.1983
 5423TIP3    H137684   0.084   3.279   4.491  0.3874 -0.0929 -0.1712
 5423TIP3    H237685   0.034   3.336   4.360  0.4082  1.3564  0.4422
 5424TIP3   OH237686   6.481   6.025  15.087  0.1995  0.5059  0.5284
 5424TIP3    H137687   6.443   6.049  15.003  2.4825  1.0948 -0.4232
 5424TIP3    H237688   6.479   6.105  15.139 -0.9711  0.2062  0.9888
 5425TIP3   OH237689   0.188   2.512   6.449  0.3756 -0.2618  0.0173
 5425TIP3    H137690   0.137   2.556   6.517  2.6137  1.1374  0.8895
 5425TIP3    H237691   0.213   2.428   6.489 -1.8272 -1.3518 -0.7330
 5426TIP3   OH237692   3.569   3.696   2.463 -0.2316 -0.2250 -0.0814
 5426TIP3    H137693   3.562   3.669   2.371  0.7633  1.5072 -0.7325
 5426TIP3    H237694   3.613   3.781   2.459 -1.4196  0.5638  1.9130
 5427TIP3   OH237695   3.405   6.223   6.183 -0.1322 -0.1345 -0.3916
 5427TIP3    H137696   3.336   6.175   6.229  1.4214 -1.1110  1.0424
 5427TIP3    H237697   3.479   6.222   6.244  0.6633  2.2757 -1.1917
 5428TIP3   OH237698   3.847   5.093   1.339 -0.0496 -0.4451 -0.1485
 5428TIP3    H137699   3.866   5.091   1.245  2.9586 -0.3625  0.3304
 5428TIP3    H237700   3.871   5.006   1.370 -0.8562 -0.4233  0.5810
 5429TIP3   OH237701   4.605   1.792  12.291  0.0562 -0.7546 -0.0643
 5429TIP3    H137702   4.649   1.741  12.359  0.1632  0.3611  0.7312
 5429TIP3    H237703   4.550   1.854  12.339  2.1079  1.8449 -0.8388
 5430TIP3   OH237704   2.521   1.049  13.758 -0.7108  0.2864  0.3691
 5430TIP3    H137705   2.546   1.142  13.751 -1.9659  0.6127 -0.1121
 5430TIP3    H237706   2.601   1.001  13.736 -0.6378  1.2772 -1.7552
 5431TIP3   OH237707   6.725   4.432   4.378  0.1039  0.5475 -0.1932
 5431TIP3    H137708   6.703   4.460   4.467  2.2923  1.5595  0.0957
 5431TIP3    H237709   6.821   4.432   4.376  0.1126 -0.3278 -2.3039
 5432TIP3   OH237710   5.023   4.373   5.369 -0.2980 -0.1588  0.3646
 5432TIP3    H137711   5.084   4.332   5.308 -0.6350 -0.2467  0.0821
 5432TIP3    H237712   5.077   4.397   5.444  0.0867 -0.2242  0.1146
 5433TIP3   OH237713   6.082   3.620   6.109  0.6172 -0.1039  0.4191
 5433TIP3    H137714   6.156   3.561   6.096  2.2746  1.9986 -0.1072
 5433TIP3    H237715   6.088   3.645   6.201  0.6701  0.2063  0.3318
 5434TIP3   OH237716   2.078   5.877  14.454 -0.0460  0.4421  0.2209
 5434TIP3    H137717   2.052   5.894  14.545 -0.2286  4.0113 -0.3390
 5434TIP3    H237718   2.173   5.885  14.454 -0.0852  1.0224  0.0651
 5435TIP3   OH237719   0.421   3.755   3.930 -0.3450 -0.5870  0.1921
 5435TIP3    H137720   0.360   3.694   3.889 -0.4512 -0.2999 -0.0851
 5435TIP3    H237721   0.367   3.830   3.954 -0.2130 -0.5962  0.5174
 5436TIP3   OH237722   2.584   3.287   5.829  0.3290 -0.1994  0.6274
 5436TIP3    H137723   2.638   3.326   5.897  1.9961  0.6683 -1.1241
 5436TIP3    H237724   2.519   3.354   5.808 -1.4804 -1.1971  2.6461
 5437TIP3   OH237725   2.434   2.242   1.117 -0.1877 -0.2897 -0.7142
 5437TIP3    H137726   2.369   2.181   1.080  0.1617 -0.8265 -0.4537
 5437TIP3    H237727   2.389   2.326   1.117 -0.6906 -0.5474 -1.0633
 5438TIP3   OH237728   5.524   1.880  17.065  0.0168 -0.5744  0.2667
 5438TIP3    H137729   5.459   1.925  17.118  1.0561  0.2938  0.8302
 5438TIP3    H237730   5.492   1.790  17.059 -0.2848 -0.6238  2.1093
 5439TIP3   OH237731   2.219   4.146   5.079  0.0859  0.6933  0.0429
 5439TIP3    H137732   2.280   4.211   5.114  0.6350 -0.0497  0.5055
 5439TIP3    H237733   2.270   4.066   5.072 -0.8023  0.0815  0.3098
 5440TIP3   OH237734   3.710   4.583   5.025  0.1417 -0.4524 -0.5661
 5440TIP3    H137735   3.778   4.607   4.962 -0.6510  1.2609 -0.8289
 5440TIP3    H237736   3.634   4.559   4.971 -0.0774 -0.4138 -0.2778
 5441TIP3   OH237737   5.626   2.172   2.761  0.4599  0.7306  0.5738
 5441TIP3    H137738   5.569   2.117   2.814 -1.5011  1.9567 -0.1568
 5441TIP3    H237739   5.655   2.241   2.821 -0.5872  1.3011  0.4484
 5442TIP3   OH237740   6.031   1.956   2.070 -0.2469  0.6042 -0.3424
 5442TIP3    H137741   5.955   1.925   2.020 -0.3173 -0.7759  0.5876
 5442TIP3    H237742   5.999   2.034   2.116 -1.5712 -0.7347  1.1308
 5443TIP3   OH237743   5.688   5.634  11.613 -0.2736  0.5025 -0.2741
 5443TIP3    H137744   5.613   5.693  11.599  0.0811  1.1382  0.4230
 5443TIP3    H237745   5.650   5.554  11.647 -0.5606  1.2081  1.1379
 5444TIP3   OH237746   6.134   4.816   1.021 -0.2298 -0.4424 -0.1629
 5444TIP3    H137747   6.104   4.822   1.112  1.1670 -2.3814  0.4836
 5444TIP3    H237748   6.188   4.894   1.009  1.8730 -1.5284  1.6366
 5445TIP3   OH237749   3.373   2.180  16.796  0.1178  0.2684  0.1584
 5445TIP3    H137750   3.331   2.200  16.880  0.7183 -0.0676  0.5484
 5445TIP3    H237751   3.335   2.096  16.770  1.8001 -0.9446  1.3948
 5446TIP3   OH237752   4.965   5.729   4.897  0.3866 -0.5788  0.0642
 5446TIP3    H137753   4.874   5.705   4.879  0.6896 -0.0820 -2.5537
 5446TIP3    H237754   4.961   5.821   4.922  0.1056 -0.7628  0.7044
 5447TIP3   OH237755   0.205   3.664  14.899 -0.0260  0.0443 -0.4171
 5447TIP3    H137756   0.143   3.608  14.853 -0.5672  1.7827 -1.9270
 5447TIP3    H237757   0.154   3.741  14.925  0.6791 -0.0887  1.6023
 5448TIP3   OH237758   2.974   5.950   5.782  0.2909  0.1450  0.0203
 5448TIP3    H137759   2.943   5.906   5.703 -1.0832  0.4999  0.3483
 5448TIP3    H237760   2.895   5.972   5.830  1.0554  1.1176  0.8697
 5449TIP3   OH237761   2.613   3.229   2.665 -0.6497  0.0753  1.0912
 5449TIP3    H137762   2.638   3.227   2.757  1.7437  2.5817  0.6421
 5449TIP3    H237763   2.681   3.180   2.620 -0.3070  1.1044  0.4475
 5450TIP3   OH237764   4.152   2.270  16.262 -0.2500 -0.3147 -0.5491
 5450TIP3    H137765   4.058   2.258  16.247 -0.1365 -1.3012 -0.4960
 5450TIP3    H237766   4.179   2.331  16.193 -0.8013 -0.5185 -0.9582
 5451TIP3   OH237767   4.316   3.060  12.332  0.0343 -0.4116  1.2039
 5451TIP3    H137768   4.343   3.138  12.283  0.3215 -0.1019  1.8472
 5451TIP3    H237769   4.396   3.026  12.370  0.4326 -2.6889 -1.3365
 5452TIP3   OH237770   1.954   3.852   2.048  0.0475  0.4194 -0.0009
 5452TIP3    H137771   1.905   3.780   2.008 -0.0343 -0.6230  1.8096
 5452TIP3    H237772   1.890   3.894   2.106  0.1402  1.8988 -0.9345
 5453TIP3   OH237773   0.508   4.619   0.035 -0.6288 -0.3313 -0.4394
 5453TIP3    H137774   0.471   4.533   0.013  0.3359 -0.4271 -1.8214
 5453TIP3    H237775   0.504   4.668  -0.047  1.3806 -0.0191 -0.3912
 5454TIP3   OH237776   3.273   3.196   0.660  0.1633 -0.3233 -0.6918
 5454TIP3    H137777   3.303   3.115   0.702 -1.8826 -0.6925  0.1918
 5454TIP3    H237778   3.230   3.167   0.579 -0.8523 -0.1872 -0.2197
 5455TIP3   OH237779   2.667   1.490   1.602 -0.3077 -0.3895  0.0563
 5455TIP3    H137780   2.664   1.442   1.684  3.2248  0.3235  0.7572
 5455TIP3    H237781   2.705   1.575   1.625 -0.3775  0.2864 -2.1170
 5456TIP3   OH237782   4.145   6.756  14.561  0.9456  0.4202 -0.2266
 5456TIP3    H137783   4.113   6.666  14.569 -1.6335  1.2157 -0.6706
 5456TIP3    H237784   4.196   6.770  14.641 -0.6749 -0.6923  1.0652
 5457TIP3   OH237785   5.109   5.536   2.535 -0.6810 -0.2411 -0.3046
 5457TIP3    H137786   5.054   5.604   2.497 -0.7654  0.5948  1.2317
 5457TIP3    H237787   5.070   5.518   2.621 -0.6151 -2.1861 -0.6235
 5458TIP3   OH237788   4.322   3.316  15.880 -0.7641 -0.3458 -0.0454
 5458TIP3    H137789   4.286   3.264  15.952 -2.0612  0.7813  0.1659
 5458TIP3    H237790   4.409   3.342  15.911 -0.6959 -1.1424  0.4650
 5459TIP3   OH237791   2.741   3.424   2.846  0.5102  0.5879 -0.1919
 5459TIP3    H137792   2.736   3.333   2.875 -1.2805  0.0162 -2.0688
 5459TIP3    H237793   2.787   3.469   2.917  1.3250 -1.7278  0.8426
 5460TIP3   OH237794   3.877   1.492  11.319 -0.7136  0.4615  0.5603
 5460TIP3    H137795   3.904   1.535  11.401  0.3592  0.5455  0.1787
 5460TIP3    H237796   3.846   1.406  11.347 -1.1519  0.7898  1.1367
 5461TIP3   OH237797   3.019   5.293   6.066  0.1277 -0.1787 -0.5596
 5461TIP3    H137798   2.978   5.271   6.150 -1.1535  0.2557 -1.0453
 5461TIP3    H237799   3.057   5.380   6.079 -1.3329  0.5296 -0.8267
 5462TIP3   OH237800   6.720   1.837   1.002  0.1705 -0.0162 -0.4302
 5462TIP3    H137801   6.728   1.838   1.098  0.0151  1.2669 -0.4149
 5462TIP3    H237802   6.811   1.841   0.971  0.2002  0.2303 -0.3198
 5463TIP3   OH237803   4.851   2.268   6.027  0.0558  0.3211  0.1263
 5463TIP3    H137804   4.849   2.306   6.115  1.8995 -0.8225  0.7219
 5463TIP3    H237805   4.767   2.222   6.019  0.6574 -1.2798  2.1506
 5464TIP3   OH237806   1.009   1.454  15.230 -0.5209  0.0363  0.0484
 5464TIP3    H137807   1.083   1.433  15.287 -0.6034 -0.1490  0.0867
 5464TIP3    H237808   0.939   1.482  15.290 -0.5565 -0.0067  0.0268
 5465TIP3   OH237809   2.612   6.297   3.995  0.3334  0.4277 -0.0784
 5465TIP3    H137810   2.698   6.292   4.037  0.9193 -1.3183 -1.3732
 5465TIP3    H237811   2.563   6.224   4.033  0.2453 -0.0159 -1.0016
 5466TIP3   OH237812   2.760   1.359   4.841  0.2885  0.3536 -0.6034
 5466TIP3    H137813   2.725   1.285   4.793 -0.9752  0.5522 -0.0239
 5466TIP3    H237814   2.855   1.352   4.830  0.3364 -2.2344  0.7191
 5467TIP3   OH237815   2.230   1.793   0.895 -0.4365 -0.2248  0.0052
 5467TIP3    H137816   2.192   1.865   0.844 -0.6152 -1.1759 -1.2583
 5467TIP3    H237817   2.184   1.796   0.978 -1.2282  0.4466 -0.4354
 5468TIP3   OH237818   2.690   5.205   1.586 -0.0568 -0.6417  0.1739
 5468TIP3    H137819   2.657   5.119   1.610 -2.3506  0.1270  0.0463
 5468TIP3    H237820   2.713   5.246   1.669 -0.9649 -0.6420  0.4354
 5469TIP3   OH237821   4.649   3.959  11.657 -0.4036  0.0663 -0.3620
 5469TIP3    H137822   4.745   3.965  11.656 -0.3146 -1.0305  0.0452
 5469TIP3    H237823   4.625   3.950  11.565 -0.0146 -0.7899 -0.3949
 5470TIP3   OH237824   0.356   2.286   3.756  0.2129 -0.2336 -0.3361
 5470TIP3    H137825   0.323   2.317   3.840  1.3811 -0.2515  0.1466
 5470TIP3    H237826   0.432   2.232   3.778  0.0288 -0.9500 -1.3562
 5471TIP3   OH237827   5.874   4.528  14.275  0.0601  0.1289  0.1294
 5471TIP3    H137828   5.829   4.453  14.314  1.0643 -0.4449  0.2009
 5471TIP3    H237829   5.859   4.518  14.181 -1.1199  0.7151  0.2275
 5472TIP3   OH237830   2.466   4.670   6.195 -0.1652  0.7644 -0.1834
 5472TIP3    H137831   2.543   4.619   6.170 -1.2621 -0.5861 -0.9438
 5472TIP3    H237832   2.496   4.725   6.267  1.7437  0.9559 -1.0735
 5473TIP3   OH237833   5.283   3.858   0.601  0.1911 -0.2066  0.0649
 5473TIP3    H137834   5.215   3.825   0.660  0.9887  0.9097  1.6973
 5473TIP3    H237835   5.235   3.895   0.527 -1.0333  0.7975  1.3115
 5474TIP3   OH237836   4.572   5.157   4.837 -0.7391  0.1209  0.0442
 5474TIP3    H137837   4.618   5.162   4.753  1.1625  2.5650  1.0889
 5474TIP3    H237838   4.617   5.087   4.884 -1.6242 -1.0660 -0.8246
 5475TIP3   OH237839   0.233   6.446   1.409  0.2389 -0.2666 -0.1725
 5475TIP3    H137840   0.185   6.528   1.395  3.3807  1.7240 -0.3933
 5475TIP3    H237841   0.244   6.410   1.321  1.6487  0.9183 -0.5323
 5476TIP3   OH237842   6.078   0.471   3.341 -0.5082  0.5604 -0.1338
 5476TIP3    H137843   6.092   0.566   3.337  1.1121  0.3891  0.3965
 5476TIP3    H237844   6.083   0.450   3.434 -1.9293  0.0637 -0.1423
 5477TIP3   OH237845   6.271   4.822   0.202  0.5215 -0.2540  0.2472
 5477TIP3    H137846   6.351   4.823   0.148  0.0461  3.0947 -0.5624
 5477TIP3    H237847   6.298   4.860   0.286  0.1028 -0.5858  0.5364
 5478TIP3   OH237848   1.258   1.787  12.922 -0.4278 -0.1212  0.1927
 5478TIP3    H137849   1.184   1.765  12.864  0.1884 -1.7720 -0.0306
 5478TIP3    H237850   1.252   1.722  12.992 -0.9475  1.6224  1.8373
 5479TIP3   OH237851   0.720   3.240   4.580 -0.1368  0.1647 -0.4299
 5479TIP3    H137852   0.666   3.281   4.647 -0.4049 -0.5355 -0.2160
 5479TIP3    H237853   0.794   3.202   4.629 -0.3134 -0.3128 -0.5335
 5480TIP3   OH237854   1.324   5.394   4.617  0.3950  0.0926 -0.0768
 5480TIP3    H137855   1.403   5.350   4.586  0.2830  0.1857 -0.5076
 5480TIP3    H237856   1.303   5.351   4.699  0.7267 -0.1327 -0.1086
 5481TIP3   OH237857   3.312   1.290   2.648 -0.5329  0.2886 -0.0859
 5481TIP3    H137858   3.278   1.249   2.569  1.3665  0.9206 -1.2784
 5481TIP3    H237859   3.274   1.378   2.647 -0.2868  0.3930 -0.4567
 5482TIP3   OH237860   3.923   5.233  12.889 -0.7235 -0.2489 -0.1708
 5482TIP3    H137861   3.911   5.156  12.833  2.3371 -1.6486  0.8618
 5482TIP3    H237862   3.966   5.297  12.833 -0.8199 -0.3317 -0.3375
 5483TIP3   OH237863   2.082   1.148   1.871  0.0630 -0.1616 -0.5303
 5483TIP3    H137864   2.145   1.120   1.937  1.0094  1.8630 -0.4971
 5483TIP3    H237865   2.001   1.162   1.919 -0.3452 -2.3143 -0.4885
 5484TIP3   OH237866   2.773   0.344   3.037 -0.0824  0.1544  0.2825
 5484TIP3    H137867   2.714   0.284   2.993  1.6063  0.0166 -2.0045
 5484TIP3    H237868   2.770   0.318   3.129 -1.1860 -1.8550 -0.2595
 5485TIP3   OH237869   4.584   1.105   1.143 -0.1390 -0.0588 -0.1484
 5485TIP3    H137870   4.654   1.169   1.156  0.0444 -0.1823 -0.5107
 5485TIP3    H237871   4.627   1.020   1.149 -0.2147 -0.1315 -0.5825
 5486TIP3   OH237872   3.862   1.048   5.175  0.1951  0.4821 -0.4835
 5486TIP3    H137873   3.789   1.032   5.115  0.6058 -0.0351 -0.8636
 5486TIP3    H237874   3.880   1.142   5.167  0.5238  0.3445 -1.5086
 5487TIP3   OH237875   3.338   0.026  13.537  0.5370 -0.3541 -0.8962
 5487TIP3    H137876   3.302   0.110  13.567  0.2258 -0.8918  0.2822
 5487TIP3    H237877   3.322   0.026  13.442 -0.9490  0.2160 -0.6761
 5488TIP3   OH237878   1.461   1.809  12.631  0.5747  0.3040 -0.6172
 5488TIP3    H137879   1.431   1.889  12.674  2.6840 -0.0187  1.6370
 5488TIP3    H237880   1.380   1.762  12.609 -0.6456  2.0290 -0.0037
 5489TIP3   OH237881   0.418   4.873   1.804  0.1836 -0.1144  0.4659
 5489TIP3    H137882   0.381   4.884   1.716  0.3785  0.9065  0.4960
 5489TIP3    H237883   0.509   4.849   1.789  0.7515  1.9272  0.3458
 5490TIP3   OH237884   5.638   0.573  13.801  0.4434  0.7383  0.2859
 5490TIP3    H137885   5.582   0.543  13.729  0.4398  0.0350  0.5715
 5490TIP3    H237886   5.699   0.634  13.760  0.1894  0.6463 -0.2407
 5491TIP3   OH237887   5.331   6.110   4.331 -0.3383  0.3825 -0.5399
 5491TIP3    H137888   5.409   6.091   4.383 -0.4114 -0.6267 -0.7696
 5491TIP3    H237889   5.364   6.162   4.258  0.5879 -1.9274 -1.9048
 5492TIP3   OH237890   2.136   0.831   2.346  0.4937  0.5084  0.4327
 5492TIP3    H137891   2.159   0.756   2.401 -0.1358  0.2505  0.3476
 5492TIP3    H237892   2.045   0.849   2.367  0.3589  0.6451 -0.2574
 5493TIP3   OH237893   6.284   0.221   5.295  0.5313 -0.3436 -0.1911
 5493TIP3    H137894   6.206   0.246   5.344  0.4056 -0.8610 -0.1288
 5493TIP3    H237895   6.251   0.171   5.221  0.7019  0.5791 -0.9169
 5494TIP3   OH237896   2.107   4.083  16.095  0.2802 -0.1959 -0.2204
 5494TIP3    H137897   2.121   4.077  16.189 -0.8735 -0.1893 -0.0252
 5494TIP3    H237898   2.154   4.161  16.068  0.2526  0.0485  0.4343
 5495TIP3   OH237899   4.662   5.215  12.840 -0.0060 -0.2390 -0.3030
 5495TIP3    H137900   4.702   5.188  12.922 -2.5107 -2.5740  0.3000
 5495TIP3    H237901   4.735   5.231  12.781  1.8322 -2.1680  1.3014
 5496TIP3   OH237902   4.679   5.153   4.194 -0.1020 -0.2727  0.0870
 5496TIP3    H137903   4.618   5.212   4.151  0.2348  1.3938  1.7092
 5496TIP3    H237904   4.730   5.115   4.123 -2.2260 -0.8453 -1.2149
 5497TIP3   OH237905   4.169   2.063  11.037 -0.1620  0.2633 -0.6244
 5497TIP3    H137906   4.260   2.033  11.032 -0.2150  0.0552 -0.3478
 5497TIP3    H237907   4.156   2.083  11.129 -1.5380 -3.3190  0.1102
 5498TIP3   OH237908   2.047   4.573  12.746  0.8488  0.3072  0.5296
 5498TIP3    H137909   2.020   4.496  12.697 -0.1475  0.8010  0.2770
 5498TIP3    H237910   2.134   4.552  12.779  1.6933  0.0936 -1.7160
 5499TIP3   OH237911   4.637   1.522  13.646 -0.2659  0.6117  0.0239
 5499TIP3    H137912   4.724   1.555  13.665 -0.8553  1.6028  1.0903
 5499TIP3    H237913   4.584   1.600  13.630 -1.0271  0.0412 -0.3271
 5500TIP3   OH237914   1.727   3.582   3.100 -0.3348  0.4249  0.5717
 5500TIP3    H137915   1.673   3.635   3.159 -1.2550  1.7815 -1.3640
 5500TIP3    H237916   1.703   3.613   3.012  1.0742 -1.3927 -0.5181
 5501TIP3   OH237917   6.525   0.930  13.373 -0.1008  0.3448  0.0145
 5501TIP3    H137918   6.459   0.871  13.337 -1.6600  1.2891  1.2248
 5501TIP3    H237919   6.517   0.921  13.468  0.5986  1.4520  0.1974
 5502TIP3   OH237920   4.984   1.865  14.951 -0.0756  0.0403 -0.2465
 5502TIP3    H137921   5.002   1.836  14.861 -1.1911 -1.1649 -0.1071
 5502TIP3    H237922   4.977   1.784  15.001 -0.0114  0.6903  0.8296
 5503TIP3   OH237923   5.446   2.230  14.658 -0.0237 -0.2450  0.1895
 5503TIP3    H137924   5.461   2.136  14.663 -2.8822 -0.7531  0.8303
 5503TIP3    H237925   5.394   2.242  14.579 -0.6743  0.6262  0.7343
 5504TIP3   OH237926   5.374   6.070  15.211  0.2417 -0.2712 -0.5506
 5504TIP3    H137927   5.396   5.990  15.259  0.8741  0.5875  0.6565
 5504TIP3    H237928   5.346   6.040  15.125  0.5982 -1.7749 -0.1681
 5505TIP3   OH237929   0.218   6.582   5.303 -0.5171  0.0268  0.3549
 5505TIP3    H137930   0.179   6.495   5.295  1.5854 -1.2655  2.6408
 5505TIP3    H237931   0.191   6.628   5.224 -2.2609 -2.4658 -0.6287
 5506TIP3   OH237932   0.109   5.872   4.060 -0.3425  0.1376  0.0502
 5506TIP3    H137933   0.126   5.818   3.984 -0.7852 -0.0455  0.0798
 5506TIP3    H237934   0.018   5.902   4.049 -0.2538  0.4977  0.2626
 5507TIP3   OH237935   5.324   5.184   1.796 -0.1689 -1.5429  0.0323
 5507TIP3    H137936   5.342   5.193   1.703 -0.5787 -2.3068 -0.1269
 5507TIP3    H237937   5.380   5.112   1.825  2.6294  0.8837  1.1612
 5508TIP3   OH237938   1.519   5.962   3.195  0.5344  0.2237 -0.3297
 5508TIP3    H137939   1.471   6.032   3.151  0.6203  0.6452  0.2369
 5508TIP3    H237940   1.596   5.948   3.141  0.3560  0.3413 -0.6183
 5509TIP3   OH237941   1.052   4.578   3.997  0.1376  0.6360  0.1105
 5509TIP3    H137942   1.095   4.657   3.964  1.8377 -0.3967 -0.2099
 5509TIP3    H237943   1.106   4.506   3.967 -1.5092 -0.7042  0.2074
 5510TIP3   OH237944   5.572   2.595  15.033 -0.0664  0.5365 -0.5617
 5510TIP3    H137945   5.534   2.682  15.044 -1.4082 -0.0400 -0.5168
 5510TIP3    H237946   5.516   2.537  15.083  0.1668 -0.5230 -1.4754
 5511TIP3   OH237947   1.302   2.379  15.552  0.5965  0.0133 -0.8099
 5511TIP3    H137948   1.318   2.442  15.482  0.9572 -0.4325 -1.1369
 5511TIP3    H237949   1.216   2.342  15.533  0.0671  0.8901 -0.2316
 5512TIP3   OH237950   5.483   5.616  10.915 -0.3424  0.1931 -0.2981
 5512TIP3    H137951   5.408   5.586  10.966 -0.4214  1.4628  0.3581
 5512TIP3    H237952   5.558   5.570  10.954 -0.8320 -1.6831 -1.4622
 5513TIP3   OH237953   5.149   1.231  13.804 -0.1989 -0.3610 -0.5957
 5513TIP3    H137954   5.148   1.136  13.799 -0.8177 -0.3108 -1.7769
 5513TIP3    H237955   5.146   1.260  13.713 -0.1238  0.7928 -0.2532
 5514TIP3   OH237956   5.287   3.765   3.595  0.6113 -0.7907 -0.3016
 5514TIP3    H137957   5.375   3.738   3.569  0.6319 -0.1984 -0.8657
 5514TIP3    H237958   5.267   3.840   3.539  0.0671 -0.4133  0.3788
 5515TIP3   OH237959   1.927   2.989   5.016  0.2305  0.3436 -0.2432
 5515TIP3    H137960   1.936   2.945   4.931 -3.1942 -0.8364 -0.1217
 5515TIP3    H237961   1.983   2.937   5.075  0.3198 -0.6588 -1.1715
 5516TIP3   OH237962   2.550   2.345   0.820  0.3321  0.5303 -0.5091
 5516TIP3    H137963   2.555   2.358   0.726 -0.1382 -1.6683 -0.9024
 5516TIP3    H237964   2.497   2.266   0.830 -1.7210  2.0182  1.7078
 5517TIP3   OH237965   2.329   2.527   0.737 -0.5123  0.0917 -0.6804
 5517TIP3    H137966   2.418   2.553   0.760 -0.3251  0.0193 -1.3084
 5517TIP3    H237967   2.335   2.433   0.721 -0.5980  0.1696 -1.1892
 5518TIP3   OH237968   1.824   5.535  12.242 -0.0444  0.3298 -0.0238
 5518TIP3    H137969   1.885   5.514  12.312  0.1389  0.8457 -0.0244
 5518TIP3    H237970   1.814   5.453  12.193  1.8281  0.5917 -0.9451
 5519TIP3   OH237971   4.426   3.885  14.605  0.5587  0.0240 -0.4312
 5519TIP3    H137972   4.387   3.897  14.692  0.1854 -0.2332 -0.5647
 5519TIP3    H237973   4.359   3.915  14.544  0.5877 -0.3535 -0.6549
 5520TIP3   OH237974   3.643   2.371   2.850 -0.4068  0.3729  0.4037
 5520TIP3    H137975   3.706   2.299   2.841 -1.0191 -0.0522 -0.7473
 5520TIP3    H237976   3.679   2.441   2.796  0.1870  0.9627  1.5220
 5521TIP3   OH237977   1.446   4.944   3.980  0.0398 -0.3365 -0.1467
 5521TIP3    H137978   1.496   5.004   3.925  1.1057 -1.2496 -0.2082
 5521TIP3    H237979   1.456   4.980   4.069  1.6947 -1.0468 -0.0051
 5522TIP3   OH237980   4.895   1.549   2.539  0.7672 -0.4097 -0.6964
 5522TIP3    H137981   4.822   1.605   2.564  1.0383 -1.2718  2.4135
 5522TIP3    H237982   4.946   1.602   2.478 -1.9695  0.4930 -2.3863
 5523TIP3   OH237983   0.329   0.961  10.769 -0.1824  0.9979  0.4590
 5523TIP3    H137984   0.335   0.867  10.788 -0.0472  1.1458  1.1726
 5523TIP3    H237985   0.385   0.973  10.693 -1.8734  0.1469 -1.0016
 5524TIP3   OH237986   0.185   4.281   1.810 -0.0670  0.4702  0.1491
 5524TIP3    H137987   0.246   4.333   1.863 -1.0197  1.5200  0.2511
 5524TIP3    H237988   0.111   4.265   1.869 -1.6998  2.6892 -1.1340
 5525TIP3   OH237989   4.270   1.078  13.187 -0.0968  0.3777 -0.4832
 5525TIP3    H137990   4.315   1.017  13.128  0.0705  0.6250 -0.6122
 5525TIP3    H237991   4.341   1.124  13.232 -0.1747 -1.0378  1.2284
 5526TIP3   OH237992   0.208   5.562  14.327  0.0223 -0.5024 -0.1071
 5526TIP3    H137993   0.293   5.519  14.339  0.2511 -0.2081 -0.6625
 5526TIP3    H237994   0.170   5.518  14.251  0.6807  0.9344 -1.2973
 5527TIP3   OH237995   1.014   4.484  11.271  0.1453  0.5883  0.7556
 5527TIP3    H137996   1.022   4.471  11.365 -0.0525 -0.1498  0.6793
 5527TIP3    H237997   1.050   4.404  11.233  1.1657  1.3068  0.1710
 5528TIP3   OH237998   4.746   1.097  10.817  0.2481  0.1759 -0.1387
 5528TIP3    H137999   4.750   1.020  10.761 -2.2784 -0.4724  0.4240
 5528TIP3    H238000   4.652   1.114  10.827  0.7008  2.3377  1.1103
 5529TIP3   OH238001   4.888   0.985   5.156 -0.0490 -0.3320  0.0651
 5529TIP3    H138002   4.910   1.056   5.095  0.3475 -1.9947 -1.8490
 5529TIP3    H238003   4.932   1.008   5.237  0.9502  1.0871 -0.8439
 5530TIP3   OH238004   0.997   5.173  15.209 -0.5349  0.3434  0.3930
 5530TIP3    H138005   1.074   5.155  15.155  0.4849  0.5603  1.7217
 5530TIP3    H238006   1.033   5.200  15.294 -2.0768  0.8319  0.9266
 5531TIP3   OH238007   1.574   5.589  11.835 -0.3939 -0.0345  0.0531
 5531TIP3    H138008   1.556   5.655  11.767 -0.6690 -0.3089 -0.1485
 5531TIP3    H238009   1.661   5.611  11.867 -1.8821  2.8105  2.7127
 5532TIP3   OH238010   6.181   0.409  12.133  0.7716  0.5790  0.8321
 5532TIP3    H138011   6.128   0.344  12.179  0.7150  0.1591  0.1856
 5532TIP3    H238012   6.255   0.359  12.097 -0.3583  0.4174 -1.4917
 5533TIP3   OH238013   6.014   6.425  11.799 -0.6713 -0.3777  0.2889
 5533TIP3    H138014   5.921   6.423  11.823 -0.8194 -0.5958 -0.2771
 5533TIP3    H238015   6.014   6.461  11.710 -0.2864 -1.2054 -0.0483
 5534TIP3   OH238016   3.052   3.672  12.351 -0.0183 -0.0085  0.5299
 5534TIP3    H138017   3.015   3.760  12.349 -0.4678 -0.2000  0.2598
 5534TIP3    H238018   3.132   3.680  12.404 -0.7612  0.2879  1.6269
 5535TIP3   OH238019   2.268   2.300  16.799  0.3063 -0.1170 -0.3178
 5535TIP3    H138020   2.347   2.266  16.757 -0.4361 -1.2074 -0.8598
 5535TIP3    H238021   2.250   2.238  16.870 -1.4798 -1.3487 -1.7696
 5536TIP3   OH238022   4.063   4.627   4.399 -0.2751  0.1083  0.0367
 5536TIP3    H138023   4.012   4.547   4.388  1.5023 -1.2217  0.9469
 5536TIP3    H238024   4.023   4.671   4.473 -0.1239 -0.9232  0.7504
 5537TIP3   OH238025   0.181   1.668  10.494  0.2430 -0.1010 -0.0433
 5537TIP3    H138026   0.251   1.604  10.506  2.0011  1.5565 -0.9525
 5537TIP3    H238027   0.202   1.738  10.556  2.2436  2.6311 -3.4463
 5538TIP3   OH238028   2.341   3.645   3.084  0.1119 -0.4187  0.2520
 5538TIP3    H138029   2.407   3.596   3.133 -0.4531 -2.5110 -0.9576
 5538TIP3    H238030   2.344   3.607   2.996 -0.3751  1.7694 -0.7705
 5539TIP3   OH238031   4.206   6.260  17.245 -0.0162 -0.3527 -0.0514
 5539TIP3    H138032   4.198   6.353  17.223 -0.0138 -0.4580 -0.5137
 5539TIP3    H238033   4.125   6.240  17.292  0.4380  0.1225  0.9622
 5540TIP3   OH238034   3.674   4.104   3.034  0.1572 -0.2442  0.0875
 5540TIP3    H138035   3.612   4.040   3.068 -0.1362  0.7684  1.5301
 5540TIP3    H238036   3.734   4.053   2.979  0.5014 -1.9217  1.9343
 5541TIP3   OH238037   3.666   4.946   2.120 -0.9414 -0.0947 -0.2965
 5541TIP3    H138038   3.603   4.873   2.125 -0.7541 -0.2394 -0.0349
 5541TIP3    H238039   3.751   4.904   2.110 -0.9395  0.1143 -1.2493
 5542TIP3   OH238040   0.668   2.257  12.177 -0.6518  0.2489  0.1582
 5542TIP3    H138041   0.753   2.219  12.196 -0.9560 -1.3237 -1.2952
 5542TIP3    H238042   0.610   2.223  12.246 -0.3728  0.2019  0.3692
 5543TIP3   OH238043   6.469   3.459   4.459  0.2345  0.0371 -0.1859
 5543TIP3    H138044   6.391   3.425   4.415  1.0791 -1.3864 -0.6373
 5543TIP3    H238045   6.513   3.381   4.494  1.9867  0.6773 -0.8313
 5544TIP3   OH238046   0.464   1.087  16.592 -0.1661  0.2939  0.0635
 5544TIP3    H138047   0.476   1.010  16.647 -1.8048 -0.0881 -0.0481
 5544TIP3    H238048   0.377   1.074  16.553  0.5213  1.0263 -1.8268
 5545TIP3   OH238049   3.227   5.109   2.015  0.1817  0.8599 -0.4025
 5545TIP3    H138050   3.314   5.144   2.033  0.3213  0.4742 -0.3076
 5545TIP3    H238051   3.243   5.018   1.989 -0.2743  0.4853  0.5952
 5546TIP3   OH238052   0.668   2.211  11.645  0.2470 -0.2544  0.6398
 5546TIP3    H138053   0.600   2.169  11.697  0.8045  0.6365  2.1531
 5546TIP3    H238054   0.750   2.187  11.689  0.8332 -0.4036 -0.5018
 5547TIP3   OH238055   2.905   2.230  16.637 -0.2122 -0.3811  0.0666
 5547TIP3    H138056   2.845   2.176  16.688 -0.2421  0.2126  0.6771
 5547TIP3    H238057   2.968   2.262  16.702 -0.3239  0.4881 -0.2468
 5548TIP3   OH238058   6.614   3.032  16.654  0.0855 -0.4110 -0.1585
 5548TIP3    H138059   6.661   2.956  16.688  0.3710 -0.8506 -1.4682
 5548TIP3    H238060   6.669   3.063  16.581 -1.0659 -0.2291 -0.9660
 5549TIP3   OH238061   4.551   2.414  13.592 -0.1366 -0.1678 -0.0052
 5549TIP3    H138062   4.523   2.325  13.573 -0.5903 -0.0325  0.0146
 5549TIP3    H238063   4.585   2.448  13.509  0.0180 -0.3477 -0.0160
 5550TIP3   OH238064   5.126   3.300  17.064 -0.4219  0.3750 -0.0078
 5550TIP3    H138065   5.065   3.373  17.072 -2.3243 -1.1852  0.6400
 5550TIP3    H238066   5.102   3.258  16.981  1.1621  0.8727 -0.7603
 5551TIP3   OH238067   4.553   0.038   3.814  0.0893  0.0262 -0.0245
 5551TIP3    H138068   4.612  -0.035   3.796  2.3502  1.3795  1.3769
 5551TIP3    H238069   4.540   0.081   3.729  1.4038 -0.1432 -0.3326
 5552TIP3   OH238070   4.139   4.075   5.128 -0.0318 -0.1071 -0.0884
 5552TIP3    H138071   4.217   4.023   5.112  0.1860  0.5767 -1.3339
 5552TIP3    H238072   4.121   4.119   5.045 -1.2818  0.3690  0.4004
 5553TIP3   OH238073   4.863   6.096  14.596  0.1021 -0.2782 -0.1053
 5553TIP3    H138074   4.777   6.130  14.570 -0.7942 -3.1074 -1.1692
 5553TIP3    H238075   4.921   6.119  14.523 -0.0473  0.4870  0.0097
 5554TIP3   OH238076   0.380   4.293   1.238 -0.0253 -0.5550  0.3118
 5554TIP3    H138077   0.346   4.263   1.322 -1.9809  0.4452 -0.0607
 5554TIP3    H238078   0.305   4.290   1.179  0.4266  1.9081 -0.5304
 5555TIP3   OH238079   5.797   6.183   6.092  0.1002  0.0347  0.5623
 5555TIP3    H138080   5.703   6.171   6.097  0.0255  0.5670  0.4487
 5555TIP3    H238081   5.817   6.252   6.156  0.3111  0.4298  0.0820
 5556TIP3   OH238082   2.297   1.382  16.934  0.2189  0.2152  0.2854
 5556TIP3    H138083   2.341   1.386  16.849 -1.2139 -0.1106 -0.5040
 5556TIP3    H238084   2.216   1.334  16.917  0.4843 -0.9853  2.1126
 5557TIP3   OH238085   6.339   4.136  13.100  0.1663  0.5135  0.7610
 5557TIP3    H138086   6.342   4.136  13.004 -0.2016 -0.3968  0.7375
 5557TIP3    H238087   6.320   4.227  13.124  2.1592  1.1751  0.0452
 5558TIP3   OH238088   0.762   5.945  13.606  0.3880 -0.0487 -0.4402
 5558TIP3    H138089   0.830   5.943  13.538 -0.6123  1.0594 -1.5074
 5558TIP3    H238090   0.680   5.949  13.558 -0.3448  0.7681  0.8205
 5559TIP3   OH238091   3.469   4.082  10.779  0.6333  0.2653 -0.2857
 5559TIP3    H138092   3.447   4.167  10.742  1.2137  0.2981 -0.5608
 5559TIP3    H238093   3.564   4.084  10.790  0.6040 -0.1982  0.0749
 5560TIP3   OH238094   1.893   2.565  14.707  0.2590  0.0865  0.0566
 5560TIP3    H138095   1.801   2.592  14.702  0.3194  0.3337  0.2550
 5560TIP3    H238096   1.902   2.496  14.640 -0.4622 -1.0815  1.1103
 5561TIP3   OH238097   4.496   4.548   3.063  0.0066  0.0184  0.1435
 5561TIP3    H138098   4.575   4.513   3.023  0.3047  0.4312  0.3615
 5561TIP3    H238099   4.518   4.639   3.084 -0.6783  0.2764 -0.2198
 5562TIP3   OH238100   3.920   1.120   3.346 -0.0324 -0.0051 -0.0442
 5562TIP3    H138101   3.980   1.076   3.286 -2.0878  1.3709 -3.3515
 5562TIP3    H238102   3.973   1.186   3.390  1.5121 -0.9684 -0.3960
 5563TIP3   OH238103   1.249   1.993   2.178 -0.0738 -1.0276  0.5780
 5563TIP3    H138104   1.298   2.039   2.246  0.9833 -1.6932  0.2877
 5563TIP3    H238105   1.271   1.901   2.191  2.6996 -0.9848 -2.5382
 5564TIP3   OH238106   6.065   1.962   4.049 -0.6724  0.6319 -0.0191
 5564TIP3    H138107   6.066   1.946   3.954 -1.4399 -1.3669  0.2552
 5564TIP3    H238108   6.156   1.982   4.071  0.3575 -2.7489 -0.6681
 5565TIP3   OH238109   0.318   3.303   0.061  0.3020 -0.4385  0.3022
 5565TIP3    H138110   0.377   3.337   0.129 -2.5891  0.4935  2.5587
 5565TIP3    H238111   0.291   3.381   0.012 -2.5348  0.0072  2.3335
 5566TIP3   OH238112   5.275   4.401  11.288 -0.4688 -0.2387  0.0349
 5566TIP3    H138113   5.276   4.396  11.192 -2.4542  0.6466 -0.0908
 5566TIP3    H238114   5.307   4.489  11.308  0.4990 -0.6282  0.2292
 5567TIP3   OH238115   2.559   1.093  14.292  0.2254  0.0088 -0.0431
 5567TIP3    H138116   2.472   1.053  14.289  0.5065 -0.6973  0.6487
 5567TIP3    H238117   2.619   1.019  14.279  0.7771  0.1044  1.7207
 5568TIP3   OH238118   4.789   5.703   0.192 -0.5349 -0.3025 -0.3843
 5568TIP3    H138119   4.874   5.730   0.158 -0.8396  0.2443 -0.7267
 5568TIP3    H238120   4.795   5.607   0.198  0.3861 -0.2169  0.3793
 5569TIP3   OH238121   5.170   0.814   3.293 -0.4134 -0.5879  0.1772
 5569TIP3    H138122   5.076   0.800   3.286 -0.7762  1.9916 -1.1804
 5569TIP3    H238123   5.204   0.794   3.205  0.2235 -0.7935  0.4579
 5570TIP3   OH238124   4.458   1.701   5.673  0.2447 -0.0341  0.0837
 5570TIP3    H138125   4.534   1.753   5.648 -1.9773  3.0286 -0.8537
 5570TIP3    H238126   4.471   1.617   5.628  1.9857  1.2067 -1.9266
 5571TIP3   OH238127   0.649   4.034   1.524  0.4036  0.1983 -0.0113
 5571TIP3    H138128   0.664   4.062   1.614  1.1388 -0.2393  0.0118
 5571TIP3    H238129   0.560   4.000   1.524  1.4336 -2.9268  1.4170
 5572TIP3   OH238130   5.089   5.011  12.251  0.2011  0.1571 -0.5515
 5572TIP3    H138131   5.140   4.931  12.259  0.1717  0.1407 -0.5296
 5572TIP3    H238132   5.099   5.054  12.335  0.8984  0.5838 -0.8391
 5573TIP3   OH238133   1.002   5.868   1.010  0.2356  0.1523 -0.1528
 5573TIP3    H138134   0.965   5.846   0.925  0.8429  0.4093 -0.4968
 5573TIP3    H238135   1.001   5.786   1.060 -1.5956  0.3415  0.1827
 5574TIP3   OH238136   4.847   3.671   1.708  0.1843  0.2404  0.2756
 5574TIP3    H138137   4.782   3.604   1.731  0.6501  0.2481  1.7260
 5574TIP3    H238138   4.795   3.750   1.692 -0.2747 -0.1460 -0.1717
 5575TIP3   OH238139   2.600   2.348   1.331 -0.1064 -0.7291  0.0803
 5575TIP3    H138140   2.556   2.287   1.390 -2.1268  0.0208 -0.5672
 5575TIP3    H238141   2.603   2.303   1.247 -0.6201 -0.3969 -0.1281
 5576TIP3   OH238142   5.561   0.712   3.756 -0.2745 -0.2442  0.6695
 5576TIP3    H138143   5.540   0.725   3.848 -0.4882 -0.9343  0.7174
 5576TIP3    H238144   5.480   0.733   3.710 -0.5616 -1.1972  0.7330
 5577TIP3   OH238145   3.969   3.887   0.088  0.0156  0.0184 -0.2342
 5577TIP3    H138146   4.045   3.837   0.058 -0.2714 -0.8960  0.5279
 5577TIP3    H238147   3.919   3.825   0.141 -2.0841  0.1213 -1.9822
 5578TIP3   OH238148   2.100   3.138  16.231  0.1186  0.2906  0.6348
 5578TIP3    H138149   2.031   3.203  16.219  1.2388  1.6860  1.4540
 5578TIP3    H238150   2.169   3.165  16.172 -0.0752 -1.2332 -0.3528
 5579TIP3   OH238151   6.699   5.561  12.038 -0.0836  0.2645 -0.0449
 5579TIP3    H138152   6.698   5.629  12.106  0.7857 -0.5794  0.8352
 5579TIP3    H238153   6.686   5.479  12.085  2.8040 -0.5946 -0.5482
 5580TIP3   OH238154   6.112   3.446  12.325  0.1874  0.2522 -0.5558
 5580TIP3    H138155   6.149   3.534  12.323  1.7634 -0.3670  0.2144
 5580TIP3    H238156   6.024   3.458  12.361  0.1028  1.5792 -1.1366
 5581TIP3   OH238157   5.105   2.898  15.206 -0.0648  0.3330  0.4418
 5581TIP3    H138158   5.028   2.947  15.234  1.6245  2.6525  1.3672
 5581TIP3    H238159   5.118   2.923  15.114 -0.4664 -0.1641  0.2455
 5582TIP3   OH238160   4.284   1.485  12.193  0.0583  0.0280 -0.1925
 5582TIP3    H138161   4.212   1.514  12.137 -1.6184 -1.7057  0.9679
 5582TIP3    H238162   4.269   1.530  12.276  0.1032 -0.6173  0.1667
 5583TIP3   OH238163   1.183   6.195   5.775 -0.1027 -0.0914 -0.1317
 5583TIP3    H138164   1.124   6.269   5.786  0.2516  0.0230  1.1120
 5583TIP3    H238165   1.240   6.220   5.702  1.0775  1.5996  1.2995
 5584TIP3   OH238166   4.910   1.111   6.307  0.5160 -0.0258 -0.3131
 5584TIP3    H138167   4.835   1.125   6.364  0.0317 -0.7572 -0.7612
 5584TIP3    H238168   4.982   1.092   6.368 -0.0207 -0.9266  0.0604
 5585TIP3   OH238169   4.839   6.710  11.427 -1.0826 -0.3678 -0.2108
 5585TIP3    H138170   4.876   6.625  11.403 -1.3437 -0.3399 -0.7455
 5585TIP3    H238171   4.860   6.766  11.352  0.4005  0.4503  0.7802
 5586TIP3   OH238172   2.012   5.914   3.767 -0.6121 -0.2231 -0.4687
 5586TIP3    H138173   1.967   5.900   3.684  0.8091 -0.2078 -1.2703
 5586TIP3    H238174   2.065   5.835   3.779 -2.8790 -1.5455  1.8710
 5587TIP3   OH238175   1.161   3.469  11.225  0.0302 -0.3897  0.7077
 5587TIP3    H138176   1.189   3.394  11.172 -1.1586 -1.2893  1.3014
 5587TIP3    H238177   1.172   3.544  11.167  0.5240 -1.1068 -0.1670
 5588TIP3   OH238178   3.112   0.821  14.222  0.1923  0.2081  0.6257
 5588TIP3    H138179   3.116   0.728  14.200 -0.4771  0.2398  0.3657
 5588TIP3    H238180   3.032   0.831  14.274  0.6259  0.5169  1.2482
 5589TIP3   OH238181   1.155   0.120   2.710  0.6465 -0.3122  0.1951
 5589TIP3    H138182   1.099   0.195   2.690  0.7977  0.0512  1.0686
 5589TIP3    H238183   1.098   0.044   2.698  0.2267  0.0024  0.1703
 5590TIP3   OH238184   0.976   2.590  16.624  0.0141 -0.1221  0.2906
 5590TIP3    H138185   1.010   2.679  16.633  1.4800 -0.7638  1.7138
 5590TIP3    H238186   0.916   2.580  16.698  0.4099 -0.5400  0.5575
 5591TIP3   OH238187   4.652   6.227   6.200 -0.2684  0.3220 -0.0997
 5591TIP3    H138188   4.719   6.273   6.150  0.9263  1.0458  2.0602
 5591TIP3    H238189   4.603   6.296   6.245 -0.4554 -0.3488  0.7569
 5592TIP3   OH238190   3.649   3.359   1.413  0.1356 -0.7848  0.0854
 5592TIP3    H138191   3.607   3.310   1.483  0.4025 -0.0822  0.7566
 5592TIP3    H238192   3.613   3.322   1.332 -0.0975 -1.6716  0.5862
 5593TIP3   OH238193   4.805   4.098   2.346 -0.2198 -0.4199 -0.4120
 5593TIP3    H138194   4.800   4.050   2.264 -1.2913 -0.3918 -0.3735
 5593TIP3    H238195   4.743   4.054   2.404 -2.9520  2.2366 -1.0426
 5594TIP3   OH238196   2.832   5.528   2.522 -0.0123  0.4389  0.4304
 5594TIP3    H138197   2.797   5.440   2.505 -0.5816  0.1951  2.5434
 5594TIP3    H238198   2.912   5.533   2.470 -0.9198 -0.6284 -1.1386
 5595TIP3   OH238199   5.679   5.609  16.995  0.3307  0.0132  0.9367
 5595TIP3    H138200   5.678   5.642  16.906  2.3555 -1.3130  0.3451
 5595TIP3    H238201   5.659   5.685  17.050  3.0671  1.8747 -0.4232
 5596TIP3   OH238202   1.685   1.280  12.577  0.0578 -0.2248 -0.5068
 5596TIP3    H138203   1.631   1.297  12.654 -1.5687  1.1135 -1.8835
 5596TIP3    H238204   1.772   1.314  12.601 -0.3908  0.0935  0.7484
 5597TIP3   OH238205   2.556   6.460   4.932  0.5545  0.4957  0.3184
 5597TIP3    H138206   2.601   6.497   4.856  0.5558  2.0657  1.0467
 5597TIP3    H238207   2.572   6.523   5.002  0.5356 -0.8984  1.6340
 5598TIP3   OH238208   3.941   1.654  13.758  0.2692 -0.6274 -0.3712
 5598TIP3    H138209   3.925   1.653  13.853  0.2216 -0.2432 -0.3748
 5598TIP3    H238210   3.927   1.745  13.732  0.3463 -0.7188 -0.7387
 5599TIP3   OH238211   2.968   6.564  16.307 -0.0576 -0.5131 -0.2169
 5599TIP3    H138212   2.933   6.558  16.396 -0.0710 -0.2730 -0.2060
 5599TIP3    H238213   3.059   6.536  16.315 -0.3884 -1.6761 -0.3433
 5600TIP3   OH238214   6.606   3.377   1.955  0.5447  0.1621  0.0054
 5600TIP3    H138215   6.542   3.420   1.898  0.7672  1.1660  0.4947
 5600TIP3    H238216   6.572   3.391   2.043  0.8936 -0.2284  0.2040
 5601TIP3   OH238217   0.489   2.299   0.751 -0.1025  0.0164 -0.0590
 5601TIP3    H138218   0.495   2.276   0.658  0.0502  0.5491 -0.1845
 5601TIP3    H238219   0.506   2.393   0.754 -2.8152  0.5852  0.1956
 5602TIP3   OH238220   5.892   4.468   0.243 -0.6795  0.6124 -0.0364
 5602TIP3    H138221   5.974   4.506   0.276 -0.4585 -0.1928  0.3735
 5602TIP3    H238222   5.906   4.459   0.149 -1.0746  2.3454 -0.2962
 5603TIP3   OH238223   3.845   5.303  15.240  0.1111 -0.0998  0.6238
 5603TIP3    H138224   3.851   5.218  15.283  2.0812 -0.8210 -0.8906
 5603TIP3    H238225   3.752   5.324  15.239 -0.2471 -1.2964  2.7390
 5604TIP3   OH238226   2.891   4.449  17.266  0.0462  0.3917 -0.2096
 5604TIP3    H138227   2.954   4.388  17.226  0.0725 -0.4963  1.1096
 5604TIP3    H238228   2.928   4.536  17.249  2.6038 -0.1233  1.9375
 5605TIP3   OH238229   3.500   2.374  10.774  0.2900  0.5036 -0.8198
 5605TIP3    H138230   3.527   2.305  10.713 -0.3973 -0.2522 -0.2859
 5605TIP3    H238231   3.564   2.369  10.845 -1.1266 -1.2154  0.3927
 5606TIP3   OH238232   2.906   3.788  12.653 -0.0389  0.4907 -0.2359
 5606TIP3    H138233   2.856   3.714  12.688  0.4059  0.8059  1.0977
 5606TIP3    H238234   2.879   3.862  12.706  0.0272  1.1685 -1.1266
 5607TIP3   OH238235   0.740   5.698   2.015 -0.1914 -0.4155 -0.0184
 5607TIP3    H138236   0.762   5.619   2.064 -0.2246 -1.4147 -1.5526
 5607TIP3    H238237   0.689   5.751   2.077  1.1746 -0.8484  1.5595
 5608TIP3   OH238238   6.044   2.043   2.344  0.0999 -0.4225 -0.0339
 5608TIP3    H138239   5.970   2.064   2.399  0.1265 -3.0750  1.1828
 5608TIP3    H238240   6.116   2.025   2.405  0.9186 -0.7482 -1.0550
 5609TIP3   OH238241   1.413   5.955  11.044  0.5913 -0.2360  0.7811
 5609TIP3    H138242   1.417   5.967  10.949  0.6078 -3.0738  0.3481
 5609TIP3    H238243   1.345   6.016  11.073  0.2296  0.3262 -1.1098
 5610TIP3   OH238244   3.072   4.651  11.026 -0.2980 -0.1828 -0.2154
 5610TIP3    H138245   3.055   4.689  11.112  0.9264  0.1926 -0.1105
 5610TIP3    H238246   3.145   4.591  11.041  0.2877  0.2882 -1.0753
 5611TIP3   OH238247   0.007   0.829   5.391  0.4173  0.3689 -0.1189
 5611TIP3    H138248  -0.020   0.774   5.464 -0.4110 -0.3071 -0.9109
 5611TIP3    H238249  -0.025   0.916   5.414 -0.2273  0.0747  0.1362
 5612TIP3   OH238250   0.179   0.003  11.760 -0.3380  0.3902  0.0641
 5612TIP3    H138251   0.247   0.054  11.804  0.7350 -0.3639 -0.6702
 5612TIP3    H238252   0.227  -0.050  11.696 -1.7033  0.4033 -0.9968
 5613TIP3   OH238253   0.649   3.547   5.308 -0.1189  0.6235  0.4613
 5613TIP3    H138254   0.642   3.576   5.217  1.6190  0.8248  0.3606
 5613TIP3    H238255   0.686   3.622   5.355  1.0895 -0.2058  0.8814
 5614TIP3   OH238256   2.519   0.746   0.382 -0.3134 -0.5158  0.2463
 5614TIP3    H138257   2.460   0.671   0.395  1.0183 -1.2486  2.6638
 5614TIP3    H238258   2.606   0.711   0.402  0.5098  1.3776  0.1193
 5615TIP3   OH238259   2.988   5.752  12.812 -0.4411 -0.0543 -0.3379
 5615TIP3    H138260   2.992   5.780  12.721 -1.7948 -0.2042 -0.4568
 5615TIP3    H238261   3.018   5.828  12.862  0.1146  0.0946 -0.8789
 5616TIP3   OH238262   5.392   3.921  15.583  0.1574  0.2976 -0.4416
 5616TIP3    H138263   5.476   3.926  15.537  0.0948  0.1615 -0.5708
 5616TIP3    H238264   5.408   3.860  15.656  0.9153  2.2620  1.1226
 5617TIP3   OH238265   6.029   3.996  15.781 -0.2682 -0.4470  0.2632
 5617TIP3    H138266   6.079   3.923  15.744  0.4379 -0.0356  0.3777
 5617TIP3    H238267   5.966   4.019  15.713  1.9310  1.2194 -1.3472
 5618TIP3   OH238268   4.524   6.766  13.534 -0.0424 -0.7411  0.4401
 5618TIP3    H138269   4.459   6.697  13.523 -0.2335 -0.3997 -0.7422
 5618TIP3    H238270   4.476   6.839  13.573 -0.6130 -0.1687 -1.2690
 5619TIP3   OH238271   5.301   0.775  13.979  0.0237  0.4031 -0.2823
 5619TIP3    H138272   5.263   0.689  13.959 -0.8871  0.2890  1.7452
 5619TIP3    H238273   5.296   0.782  14.074  0.0718  2.7329 -0.4038
 5620TIP3   OH238274   4.592   4.550  12.146 -0.2186 -0.1110 -0.1124
 5620TIP3    H138275   4.598   4.473  12.090  2.0545 -0.0796 -0.0139
 5620TIP3    H238276   4.564   4.620  12.088 -0.1479 -0.5594 -0.6944
 5621TIP3   OH238277   5.796   5.420  14.450 -0.0002 -0.2153 -0.6338
 5621TIP3    H138278   5.706   5.388  14.455 -0.8341  2.0510  0.3398
 5621TIP3    H238279   5.838   5.388  14.529 -1.0876  1.6441  0.7970
 5622TIP3   OH238280   2.724   2.865   6.569 -0.0262  0.3422  0.0241
 5622TIP3    H138281   2.799   2.842   6.515 -0.3614  1.3156 -0.9025
 5622TIP3    H238282   2.651   2.815   6.532 -0.0050  0.0294  0.3987
 5623TIP3   OH238283   1.633   6.292   1.746  0.0810 -0.0592 -0.1656
 5623TIP3    H138284   1.619   6.315   1.654  0.9598 -1.5000 -0.7002
 5623TIP3    H238285   1.556   6.239   1.768  1.2463 -2.2120 -1.0155
 5624TIP3   OH238286   1.175   1.668  15.131  0.0006  0.2067  0.3970
 5624TIP3    H138287   1.241   1.637  15.193  1.3006  2.4816  0.2276
 5624TIP3    H238288   1.092   1.660  15.179  0.7755  0.2758  1.8039
 5625TIP3   OH238289   5.427   0.691  15.895 -0.5725  0.2054 -0.5567
 5625TIP3    H138290   5.518   0.684  15.865 -0.7669  1.4272 -1.5163
 5625TIP3    H238291   5.409   0.607  15.938  0.5792 -0.5817 -1.5489
 5626TIP3   OH238292   4.442   1.144  16.415 -0.0568  0.0442  0.0524
 5626TIP3    H138293   4.420   1.235  16.397 -0.1894 -0.2973 -1.6184
 5626TIP3    H238294   4.368   1.094  16.380  0.8857 -0.8010 -0.8013
 5627TIP3   OH238295   1.914   3.565  12.823  0.1926  0.3484  0.0968
 5627TIP3    H138296   1.850   3.633  12.800  0.6708  0.3491 -1.3535
 5627TIP3    H238297   1.863   3.483  12.818  0.0582  0.4379 -0.0258
 5628TIP3   OH238298   6.756   3.506  13.917 -1.0696  0.1502 -0.2634
 5628TIP3    H138299   6.796   3.540  13.997  1.5906  2.2847 -2.3021
 5628TIP3    H238300   6.802   3.424  13.900  0.7953  1.3412 -1.2570
 5629TIP3   OH238301   2.452   1.489  12.596 -0.5381  0.1427 -0.5844
 5629TIP3    H138302   2.444   1.579  12.627  1.3395  0.3343 -0.5355
 5629TIP3    H238303   2.468   1.497  12.502  2.5583  0.1029 -0.1601
 5630TIP3   OH238304   4.422   4.219  12.553  0.0482  0.2098  0.1162
 5630TIP3    H138305   4.492   4.170  12.511 -0.5723 -2.8906  2.4192
 5630TIP3    H238306   4.461   4.255  12.633 -0.6288 -0.4585  0.7644
 5631TIP3   OH238307   2.889   2.563  16.257  0.2842 -0.0733 -0.2517
 5631TIP3    H138308   2.807   2.605  16.282 -1.8097 -3.6062 -0.5918
 5631TIP3    H238309   2.923   2.526  16.339  0.4100 -0.4604 -0.4794
 5632TIP3   OH238310   0.972   1.381   5.066  0.2547  0.5130  0.3009
 5632TIP3    H138311   0.973   1.474   5.044  1.3161  1.0816  2.4148
 5632TIP3    H238312   1.064   1.359   5.081  0.0891 -1.0821 -0.7918
 5633TIP3   OH238313   2.430   3.084  16.269 -0.0928 -0.3333  0.6935
 5633TIP3    H138314   2.367   3.034  16.216 -1.2581  0.2471  1.4793
 5633TIP3    H238315   2.415   3.175  16.244 -0.9201 -0.0124  2.2382
 5634TIP3   OH238316   5.242   2.758  13.225  0.3419 -0.0582 -0.7509
 5634TIP3    H138317   5.279   2.722  13.306 -0.2404 -2.2396 -1.3824
 5634TIP3    H238318   5.318   2.789  13.175  0.7175  1.1399  0.5157
 5635TIP3   OH238319   4.992   4.612   4.416  0.1681  0.1448  0.6997
 5635TIP3    H138320   5.018   4.649   4.500 -1.9600  0.9941  1.0514
 5635TIP3    H238321   5.065   4.555   4.391  0.7286 -0.3771  3.2491
 5636TIP3   OH238322   1.412   0.696  14.132  0.8122  0.2754  0.4014
 5636TIP3    H138323   1.356   0.755  14.182 -1.1214 -0.4736 -0.7639
 5636TIP3    H238324   1.459   0.753  14.071  2.0214  1.0083  1.9697
 5637TIP3   OH238325   6.444   2.184  12.541 -0.0969 -0.3960 -0.1985
 5637TIP3    H138326   6.462   2.095  12.571  1.1830 -0.1638 -0.2392
 5637TIP3    H238327   6.416   2.231  12.620 -0.6348 -0.7862 -0.1508
 5638TIP3   OH238328   4.996   0.103   0.924 -0.3834 -0.1689  0.5571
 5638TIP3    H138329   5.005   0.117   0.830 -1.3225  0.5188  0.5547
 5638TIP3    H238330   5.040   0.178   0.964 -2.3584  1.0279  0.6011
 5639TIP3   OH238331   1.021   3.682  12.344  0.1924 -0.2992  0.1457
 5639TIP3    H138332   0.927   3.686  12.326 -0.7418 -2.6968  3.4380
 5639TIP3    H238333   1.050   3.604  12.296  0.4507  0.2233 -0.5622
 5640TIP3   OH238334   6.277   6.144   6.012  0.6847 -0.4496  0.6597
 5640TIP3    H138335   6.295   6.089   5.935  0.5629  0.4154 -0.0094
 5640TIP3    H238336   6.364   6.160   6.050  0.8036 -0.4748  0.4065
 5641TIP3   OH238337   5.833   0.962   4.485  0.0464  0.4289  0.5118
 5641TIP3    H138338   5.771   0.895   4.455  1.3539  0.2160 -2.0004
 5641TIP3    H238339   5.893   0.915   4.543  0.7085 -0.5591 -0.9071
 5642TIP3   OH238340   2.993   2.873  15.195 -0.4475 -0.7216 -0.0345
 5642TIP3    H138341   3.050   2.813  15.147 -1.6151 -0.1655 -2.3148
 5642TIP3    H238342   2.906   2.833  15.187 -1.0823  0.7372 -0.7552
 5643TIP3   OH238343   0.670   3.673  11.715  0.4043  0.2167  0.4933
 5643TIP3    H138344   0.683   3.591  11.764  1.0442 -0.2111 -0.3652
 5643TIP3    H238345   0.648   3.644  11.626  2.2018  0.9400 -0.2356
 5644TIP3   OH238346   2.596   3.110   0.425 -0.1345 -0.4045  0.0089
 5644TIP3    H138347   2.611   3.202   0.447 -0.3638 -0.3206 -0.1828
 5644TIP3    H238348   2.602   3.106   0.330 -0.3854 -0.5398 -0.0027
 5645TIP3   OH238349   3.026   0.732  12.065  0.3237  0.1503 -0.0964
 5645TIP3    H138350   3.058   0.779  11.987  0.0214 -1.1932 -1.0529
 5645TIP3    H238351   3.003   0.645  12.033 -1.5177  0.1273  1.1525
 5646TIP3   OH238352   5.110   3.507   1.396 -0.4392 -0.4088 -0.7755
 5646TIP3    H138353   5.176   3.439   1.398  1.3407  1.2340  0.3519
 5646TIP3    H238354   5.071   3.502   1.309 -0.9354 -3.2836 -0.4727
 5647TIP3   OH238355   3.214   3.273   1.999 -0.0433 -0.5805  0.0272
 5647TIP3    H138356   3.166   3.270   2.081 -0.9495  0.2148 -0.4594
 5647TIP3    H238357   3.212   3.365   1.972  1.4732 -0.5718 -0.1813
 5648TIP3   OH238358   3.757   2.658  12.988  1.0791 -0.2897  0.1835
 5648TIP3    H138359   3.849   2.680  12.970  0.6347  1.5954  0.0424
 5648TIP3    H238360   3.750   2.661  13.083  0.1147  4.7910  0.2209
 5649TIP3   OH238361   5.758   1.388  11.055  0.2873  0.1725 -0.2886
 5649TIP3    H138362   5.681   1.378  10.999 -0.3549  0.2530  0.5572
 5649TIP3    H238363   5.782   1.480  11.046  1.1680 -0.1626 -1.6550
 5650TIP3   OH238364   0.736   3.713   0.277 -0.6050 -0.0900  0.3283
 5650TIP3    H138365   0.769   3.630   0.242 -0.2878  0.1199  0.1227
 5650TIP3    H238366   0.815   3.764   0.296 -0.7495 -0.3895  1.8488
 5651TIP3   OH238367   1.060   1.708   5.859  0.5423 -0.2987  0.0243
 5651TIP3    H138368   1.110   1.768   5.805  2.3818 -0.8687  0.9993
 5651TIP3    H238369   0.984   1.759   5.889  0.6748  0.6858 -1.2455
 5652TIP3   OH238370   4.594   4.558   4.255 -0.0127 -0.5041  0.1754
 5652TIP3    H138371   4.665   4.618   4.231  0.3580 -0.8725  0.3698
 5652TIP3    H238372   4.518   4.594   4.209 -0.2566  1.2873  1.8635
 5653TIP3   OH238373   4.729   0.140   0.960  0.0124  0.1776 -0.3869
 5653TIP3    H138374   4.815   0.100   0.957  0.3795  0.7174  1.5003
 5653TIP3    H238375   4.742   0.229   0.926  0.0872  0.1093 -0.5380
 5654TIP3   OH238376   2.580   4.326  14.924 -0.1847 -0.0378 -0.2565
 5654TIP3    H138377   2.589   4.236  14.955 -0.5530 -0.3313 -0.9954
 5654TIP3    H238378   2.574   4.319  14.829 -4.7551  0.3486 -0.2256
 5655TIP3   OH238379   4.886   5.956  13.233  0.5052  0.5711 -0.0568
 5655TIP3    H138380   4.799   5.992  13.217 -0.0420 -0.1271  1.1773
 5655TIP3    H238381   4.928   6.019  13.292  1.3726  1.5967 -1.7109
 5656TIP3   OH238382   6.473   2.532  12.735 -0.2488  0.1349 -0.4238
 5656TIP3    H138383   6.389   2.507  12.696 -0.5305 -3.5612  2.0524
 5656TIP3    H238384   6.537   2.473  12.694  1.4649  3.3664 -2.8039
 5657TIP3   OH238385   5.396   5.699   1.292  0.5206 -0.1153 -0.2450
 5657TIP3    H138386   5.340   5.662   1.360  2.2075 -0.4970  1.0062
 5657TIP3    H238387   5.376   5.647   1.214 -0.6428 -0.4116  0.2277
 5658TIP3   OH238388   2.593   5.047  10.942 -0.1919  0.2138  0.3964
 5658TIP3    H138389   2.608   4.970  10.887 -2.4976  0.6204 -0.9157
 5658TIP3    H238390   2.577   5.119  10.881  0.8542  1.5288  1.6058
 5659TIP3   OH238391   5.450   5.682   4.642  0.1053  0.2953  0.6711
 5659TIP3    H138392   5.448   5.757   4.583 -1.1778  1.4956  2.1511
 5659TIP3    H238393   5.362   5.678   4.679  0.1726 -1.8978  0.7229
 5660TIP3   OH238394   0.180   6.069   2.644 -0.2394 -0.2156  0.6448
 5660TIP3    H138395   0.186   6.164   2.655 -0.6016  0.1781 -1.8058
 5660TIP3    H238396   0.122   6.040   2.714 -0.8882  1.5243  0.8801
 5661TIP3   OH238397   0.144   1.233   1.126  0.2265  0.2933  0.2153
 5661TIP3    H138398   0.238   1.220   1.115  0.2995 -0.9355  1.8890
 5661TIP3    H238399   0.136   1.322   1.160  1.0061 -0.2588  1.9710
 5662TIP3   OH238400   6.144   5.804  10.688 -0.3101  0.1196 -0.1378
 5662TIP3    H138401   6.229   5.835  10.720 -0.6273  1.6607 -0.6728
 5662TIP3    H238402   6.102   5.882  10.652 -0.1778 -1.3451 -3.8740
 5663TIP3   OH238403   0.845   2.653  14.575 -0.0890  0.5536 -0.1625
 5663TIP3    H138404   0.812   2.612  14.655 -3.1673 -1.3655 -2.2321
 5663TIP3    H238405   0.805   2.740  14.575  0.0525  0.6278  0.4155
 5664TIP3   OH238406   0.115   0.280   2.803 -0.2236 -0.1770 -0.3851
 5664TIP3    H138407   0.046   0.293   2.867 -0.2615  1.1391 -0.6620
 5664TIP3    H238408   0.162   0.202   2.833 -0.5739  0.0967  0.9296
 5665TIP3   OH238409   6.029   3.170   5.453  0.5657  0.0434 -0.2651
 5665TIP3    H138410   6.021   3.212   5.368 -0.7734  0.0131 -0.1702
 5665TIP3    H238411   6.034   3.076   5.434  0.9752  0.0754 -0.3344
 5666TIP3   OH238412   2.088   3.747   5.411  0.2779  0.1627 -0.3231
 5666TIP3    H138413   2.058   3.670   5.459  0.8249 -0.1239 -0.4423
 5666TIP3    H238414   2.058   3.733   5.321  0.8624 -0.1839 -0.4698
 5667TIP3   OH238415   2.912   2.767  16.849 -0.5723  0.2603  0.0178
 5667TIP3    H138416   2.818   2.777  16.865 -0.8283 -1.0031 -0.5928
 5667TIP3    H238417   2.942   2.708  16.918 -0.3039  0.3488 -0.0224
 5668TIP3   OH238418   5.882   5.061   4.660 -0.4449  0.6209  0.0236
 5668TIP3    H138419   5.880   4.980   4.609  3.0440 -1.5460  2.8601
 5668TIP3    H238420   5.822   5.044   4.733  1.2727 -0.0990  1.3408
 5669TIP3   OH238421   1.284   1.674  14.529 -0.6692  0.2924  0.1622
 5669TIP3    H138422   1.283   1.587  14.489  1.4054  0.4379 -0.3039
 5669TIP3    H238423   1.260   1.734  14.457 -0.1320  0.2687 -0.0414
 5670TIP3   OH238424   2.403   3.257   3.055 -0.0849 -0.0749 -0.3006
 5670TIP3    H138425   2.351   3.337   3.064  1.1948  0.7197  0.3108
 5670TIP3    H238426   2.340   3.190   3.028 -1.0524  1.2971 -1.5987
 5671TIP3   OH238427   3.525   3.342   5.738  0.3137 -0.5571  0.0083
 5671TIP3    H138428   3.494   3.256   5.711  0.9077 -0.7221 -0.1516
 5671TIP3    H238429   3.445   3.395   5.743 -0.1061 -1.2052  0.4768
 5672TIP3   OH238430   0.211   5.111   5.328  0.3449 -0.8224  0.1395
 5672TIP3    H138431   0.166   5.131   5.411 -0.4524  0.1937 -0.5171
 5672TIP3    H238432   0.177   5.026   5.303  1.9331 -2.0168  1.7273
 5673TIP3   OH238433   6.303   3.862  11.549 -0.4488 -0.6753 -0.1389
 5673TIP3    H138434   6.215   3.856  11.588 -0.3165  0.3030  0.3585
 5673TIP3    H238435   6.288   3.854  11.455 -1.2414  0.7105 -0.1646
 5674TIP3   OH238436   3.375   1.882  16.514 -0.1637  0.0426  0.1597
 5674TIP3    H138437   3.384   1.791  16.486  0.1408  0.4050 -0.9682
 5674TIP3    H238438   3.377   1.878  16.609 -1.2756 -1.2496  0.1565
 5675TIP3   OH238439   5.839   2.865  11.555 -0.2420  0.5874  0.1344
 5675TIP3    H138440   5.935   2.858  11.554 -0.3149 -0.8969  0.4009
 5675TIP3    H238441   5.811   2.808  11.483 -1.0020 -1.6789  2.0884
 5676TIP3   OH238442   0.969   2.013   0.078  0.5970 -0.2474  0.3481
 5676TIP3    H138443   0.887   1.972   0.106 -0.0677  0.0930 -0.9956
 5676TIP3    H238444   0.967   2.100   0.118 -1.1887  0.9034 -2.0193
 5677TIP3   OH238445   0.278   5.783   2.616  0.4143 -0.6349 -0.0650
 5677TIP3    H138446   0.331   5.829   2.680 -0.7687 -1.6091  1.6927
 5677TIP3    H238447   0.335   5.773   2.540  1.1924  2.3440  0.0098
 5678TIP3   OH238448   0.177   6.608  14.654 -0.3869  0.1737 -0.2959
 5678TIP3    H138449   0.223   6.668  14.712 -0.4325 -0.0794  0.0088
 5678TIP3    H238450   0.149   6.536  14.711 -1.2675  0.3789 -0.4560
 5679TIP3   OH238451   4.934   0.516   2.547  0.3594  0.2305 -0.4163
 5679TIP3    H138452   4.936   0.463   2.627 -0.3417  0.3179 -0.3388
 5679TIP3    H238453   4.923   0.606   2.578  1.4930  0.4252 -0.5512
 5680TIP3   OH238454   1.632   5.354  11.944 -0.1009  0.0467 -0.2520
 5680TIP3    H138455   1.622   5.436  11.895 -1.1359 -0.4107 -0.8583
 5680TIP3    H238456   1.696   5.303  11.894 -1.3059 -0.5029 -1.2963
 5681TIP3   OH238457   3.612   5.083  12.560  0.0868  0.4004 -0.3977
 5681TIP3    H138458   3.585   5.004  12.515 -0.7216  0.1681  0.4516
 5681TIP3    H238459   3.559   5.153  12.521 -0.2294  0.2849 -0.1817
 5682TIP3   OH238460   1.243   0.836   4.985 -0.3027  0.1613 -0.2430
 5682TIP3    H138461   1.283   0.820   4.899  1.6392  1.3254  0.3742
 5682TIP3    H238462   1.151   0.852   4.966 -0.3572 -1.7044 -1.8581
 5683TIP3   OH238463   2.937   2.241   3.416  0.6107  0.2234 -0.1322
 5683TIP3    H138464   3.025   2.249   3.453  0.7451  1.1417 -0.6190
 5683TIP3    H238465   2.943   2.284   3.331 -0.4701  0.8526  0.0928
 5684TIP3   OH238466   5.092   2.958   2.483 -0.0219 -0.1375 -0.1642
 5684TIP3    H138467   5.155   3.028   2.470 -0.0988  0.2514  1.3481
 5684TIP3    H238468   5.144   2.878   2.481  0.3920  0.1199  0.2523
 5685TIP3   OH238469   4.831   4.530   0.991  0.1766  0.1051  0.1920
 5685TIP3    H138470   4.837   4.589   1.066  0.3721 -0.4654  0.6296
 5685TIP3    H238471   4.742   4.542   0.958  0.3259  0.9015  0.0605
 5686TIP3   OH238472   0.564   3.823   0.813  0.5602  0.2906 -0.2935
 5686TIP3    H138473   0.531   3.913   0.814 -2.5765 -0.6930 -1.8536
 5686TIP3    H238474   0.489   3.770   0.841  1.8873 -1.9665 -0.7612
 5687TIP3   OH238475   1.771   2.623   0.124 -0.0086 -0.8915  0.0799
 5687TIP3    H138476   1.829   2.680   0.074 -0.8226 -0.2793 -0.1843
 5687TIP3    H238477   1.729   2.567   0.058 -1.2218  0.0419  0.0287
 5688TIP3   OH238478   3.898   5.739  14.316 -0.3410  0.3674 -0.1450
 5688TIP3    H138479   3.840   5.766  14.245  0.3526 -0.0962 -0.8981
 5688TIP3    H238480   3.964   5.685  14.274  0.0417  0.0247  0.8699
 5689TIP3   OH238481   4.489   6.037   3.249  0.2726  0.3579 -0.2215
 5689TIP3    H138482   4.403   5.998   3.229  1.3835 -1.3220 -2.1517
 5689TIP3    H238483   4.502   6.102   3.180 -0.2157  2.0569  1.2023
 5690TIP3   OH238484   6.711   3.216   6.128  0.1360  0.5001 -0.7527
 5690TIP3    H138485   6.622   3.249   6.138  0.5552  0.9921  3.4380
 5690TIP3    H238486   6.764   3.294   6.107 -0.1983  0.4804 -1.6960
 5691TIP3   OH238487   3.997   5.527   5.688  0.3857  0.1938 -0.7085
 5691TIP3    H138488   4.053   5.574   5.626 -0.3030  0.1070 -1.4151
 5691TIP3    H238489   4.058   5.482   5.746  1.0535  1.1902 -0.6076
 5692TIP3   OH238490   6.295   2.821   5.163 -0.3135 -0.2853 -0.3537
 5692TIP3    H138491   6.323   2.804   5.253  0.0403  0.9883 -0.2025
 5692TIP3    H238492   6.202   2.798   5.162 -1.0068  2.1629  1.0769
 5693TIP3   OH238493   1.245   0.631   5.165  0.1204 -0.1405  0.0075
 5693TIP3    H138494   1.274   0.564   5.104 -1.3543  0.4868 -1.4654
 5693TIP3    H238495   1.217   0.704   5.109 -1.8668  0.2278  1.3812
 5694TIP3   OH238496   3.558   3.635   2.152 -0.0570  0.5825  0.3721
 5694TIP3    H138497   3.468   3.601   2.144  0.1967  0.2109 -1.4307
 5694TIP3    H238498   3.557   3.716   2.102  0.8267  0.0623 -0.5306
 5695TIP3   OH238499   2.788   6.313   4.233 -0.0877 -0.5595  0.7909
 5695TIP3    H138500   2.826   6.231   4.200  2.2922  0.8854 -0.3323
 5695TIP3    H238501   2.857   6.378   4.220 -1.8112  1.6029  1.8649
 5696TIP3   OH238502   2.513   5.413  14.062 -0.1670  0.0318 -0.4232
 5696TIP3    H138503   2.530   5.324  14.094 -2.4485 -0.0640  0.7046
 5696TIP3    H238504   2.458   5.399  13.984  1.0465  0.4426 -1.3887
 5697TIP3   OH238505   0.007   6.682  12.499 -0.1256  0.7406  0.2013
 5697TIP3    H138506  -0.055   6.736  12.450 -0.6529 -1.3245 -1.5997
 5697TIP3    H238507   0.060   6.639  12.432  0.9932 -0.1334  1.5820
 5698TIP3   OH238508   5.068   5.391  16.119 -0.0605 -0.5439 -0.7431
 5698TIP3    H138509   5.090   5.300  16.136  0.1781 -0.1059  1.7216
 5698TIP3    H238510   5.124   5.441  16.179  1.0789  1.3737 -3.1973
 5699TIP3   OH238511   1.816   1.932  13.545 -0.3291  0.2699 -0.2875
 5699TIP3    H138512   1.910   1.950  13.556 -0.0985 -0.3315 -1.2141
 5699TIP3    H238513   1.792   1.883  13.624  1.2016 -3.6112 -1.9693
 5700TIP3   OH238514   4.105   0.031   1.028  0.1223 -0.1017 -0.5795
 5700TIP3    H138515   4.133   0.112   1.070  0.3822 -0.5934  0.2171
 5700TIP3    H238516   4.183  -0.024   1.029 -0.4175 -0.8769  0.1840
 5701TIP3   OH238517   3.538   5.072  13.361 -0.3409  0.2262  0.0138
 5701TIP3    H138518   3.536   5.041  13.270  1.9904  2.9001 -1.1107
 5701TIP3    H238519   3.627   5.051  13.391 -0.6442  0.5816  1.2051
 5702TIP3   OH238520   5.921   1.219  14.152  0.1624 -0.5921  0.1181
 5702TIP3    H138521   5.938   1.193  14.242 -0.6235  0.1111  0.4812
 5702TIP3    H238522   5.971   1.156  14.099  2.1972  0.1456  1.0554
 5703TIP3   OH238523   2.523   5.628  11.439 -0.1655  0.3685  0.1734
 5703TIP3    H138524   2.582   5.555  11.454 -0.2254  0.2943  0.0484
 5703TIP3    H238525   2.461   5.625  11.513  0.3797  0.8390  0.6654
 5704TIP3   OH238526   0.942   6.510  15.162 -0.2266 -0.6519 -0.0407
 5704TIP3    H138527   0.849   6.491  15.151 -0.2104 -0.6583 -0.1696
 5704TIP3    H238528   0.985   6.424  15.156 -0.3875 -0.9041  2.0091
 5705TIP3   OH238529   2.709   1.256   0.437  0.3306  0.0696 -0.9163
 5705TIP3    H138530   2.656   1.257   0.516 -0.3758  0.2231 -1.3829
 5705TIP3    H238531   2.795   1.289   0.465  0.1014  0.0808 -0.2108
 5706TIP3   OH238532   2.063   4.526  13.479  0.0708 -0.9475 -0.1093
 5706TIP3    H138533   2.084   4.435  13.501 -1.7786 -0.8871  2.2357
 5706TIP3    H238534   1.978   4.542  13.519  0.1498  1.7281 -0.8062
 5707TIP3   OH238535   6.715   5.845  13.211  0.0158 -0.1382  0.0571
 5707TIP3    H138536   6.759   5.913  13.263  0.1272  0.8523 -1.2705
 5707TIP3    H238537   6.730   5.764  13.260  1.1142  0.5730  0.9557
 5708TIP3   OH238538   1.785   1.004  17.055 -0.0587  0.2706  0.5121
 5708TIP3    H138539   1.786   0.989  17.149 -0.5208  1.2451  0.6801
 5708TIP3    H238540   1.706   1.055  17.039  0.5010  0.9227 -0.2800
 5709TIP3   OH238541   3.246   3.364   5.684  0.1995  0.0087 -0.4080
 5709TIP3    H138542   3.198   3.282   5.681  0.1795  0.0230 -0.5059
 5709TIP3    H238543   3.301   3.362   5.606  1.0206 -0.4012  0.1712
 5710TIP3   OH238544   0.498   1.216  12.267 -0.9700 -0.9129  0.4051
 5710TIP3    H138545   0.451   1.297  12.287 -1.2197 -0.4320 -1.8867
 5710TIP3    H238546   0.548   1.236  12.188  0.8034 -2.3264  1.1001
 5711TIP3   OH238547   3.067   3.705   4.022 -0.1049 -0.4003  0.1339
 5711TIP3    H138548   2.974   3.683   4.033  0.1485 -0.6934  2.0248
 5711TIP3    H238549   3.098   3.643   3.956 -1.0035 -1.0668  0.3094
 5712TIP3   OH238550   1.272   1.146   4.130  0.0263 -0.3561 -0.3554
 5712TIP3    H138551   1.245   1.054   4.136  0.4281 -0.4395  0.3480
 5712TIP3    H238552   1.249   1.172   4.041 -2.1850 -0.4498  0.1325
 5713TIP3   OH238553   1.813   0.057  14.990  0.2149  0.3384  0.6617
 5713TIP3    H138554   1.798   0.137  15.040 -0.1216  0.0396  1.0350
 5713TIP3    H238555   1.728   0.035  14.952  0.2758  0.0748  0.6757
 5714TIP3   OH238556   6.222   5.008   2.869 -0.0301  0.1575 -0.7905
 5714TIP3    H138557   6.303   4.966   2.842  1.5724  0.6114  2.8479
 5714TIP3    H238558   6.154   4.944   2.848  1.6567 -1.7619 -0.6593
 5715TIP3   OH238559   2.044   1.137   1.244  0.1133 -0.0059 -0.4656
 5715TIP3    H138560   2.090   1.119   1.162  0.0004 -1.6969 -0.2077
 5715TIP3    H238561   2.113   1.157   1.307  0.4059 -1.0671 -0.4317
 5716TIP3   OH238562   5.316   0.107  14.375 -0.0334  0.4331 -0.6110
 5716TIP3    H138563   5.246   0.094  14.312  0.0073  1.6197 -0.9276
 5716TIP3    H238564   5.273   0.145  14.452 -0.0900 -1.0322  0.1216
 5717TIP3   OH238565   1.036   5.332  14.449  0.2433 -0.3199  0.2217
 5717TIP3    H138566   0.955   5.306  14.404 -0.8113 -0.7004  2.2328
 5717TIP3    H238567   1.096   5.355  14.378 -0.9559 -1.9424 -1.4103
 5718TIP3   OH238568   1.021   1.709   3.829  0.3100  0.4555 -0.3670
 5718TIP3    H138569   1.092   1.713   3.765  0.0729 -0.0044 -0.6623
 5718TIP3    H238570   1.059   1.662   3.904  0.5459  0.8771 -0.2214
 5719TIP3   OH238571   0.809   2.186  15.120  0.1006  0.4852  0.4324
 5719TIP3    H138572   0.870   2.196  15.193 -0.1229 -0.4920  0.7709
 5719TIP3    H238573   0.788   2.093  15.119  0.0908  0.4809 -0.8810
 5720TIP3   OH238574   5.961   5.426   1.055 -0.5510 -0.1923 -0.3218
 5720TIP3    H138575   5.926   5.474   0.980  1.4125  2.1238  0.1174
 5720TIP3    H238576   5.906   5.454   1.128 -0.0814  0.6206 -0.2611
 5721TIP3   OH238577   1.018   5.656   0.706 -0.2503 -0.0716  0.7816
 5721TIP3    H138578   0.976   5.734   0.672  1.0798  0.9796  1.4253
 5721TIP3    H238579   1.112   5.674   0.698  0.1046 -2.0849 -0.1120
 5722TIP3   OH238580   4.324   3.246  12.121 -0.2004  0.3508 -0.1317
 5722TIP3    H138581   4.374   3.320  12.086 -0.2893  1.4072  1.8403
 5722TIP3    H238582   4.264   3.222  12.050 -0.9715  2.9648 -0.4633
 5723TIP3   OH238583   0.393   2.450   5.165  0.3308  0.4132 -0.2907
 5723TIP3    H138584   0.464   2.397   5.127 -1.1867 -0.5200 -2.0056
 5723TIP3    H238585   0.357   2.395   5.234 -1.5620 -1.1583 -2.3920
 5724TIP3   OH238586   6.558   0.663   4.583 -0.5068 -0.1193 -0.0566
 5724TIP3    H138587   6.593   0.689   4.668  1.9152  0.5147 -1.1387
 5724TIP3    H238588   6.515   0.579   4.599 -2.0310  0.9638  2.1410
 5725TIP3   OH238589   3.335   2.245  15.126  0.0900  0.4293 -0.7171
 5725TIP3    H138590   3.380   2.295  15.057 -1.3185  0.1417 -1.8957
 5725TIP3    H238591   3.322   2.158  15.087  2.6090 -1.0175  1.3212
 5726TIP3   OH238592   4.138   3.376   0.392 -0.1333  0.1255  0.4257
 5726TIP3    H138593   4.181   3.366   0.476 -0.3316  1.2478  0.6808
 5726TIP3    H238594   4.078   3.450   0.405  1.0353  1.4149 -1.1640
 5727TIP3   OH238595   4.569   2.731  15.802  0.1191 -0.2470  0.7559
 5727TIP3    H138596   4.510   2.790  15.848 -0.4351 -0.2064  0.0152
 5727TIP3    H238597   4.649   2.781  15.788  1.2438 -1.0182  3.7633
 5728TIP3   OH238598   0.830   6.241  13.558  0.0130 -0.2527 -0.2768
 5728TIP3    H138599   0.823   6.159  13.608  0.4089 -1.0152 -1.4354
 5728TIP3    H238600   0.876   6.217  13.478 -1.4601  0.7132 -1.4839
 5729TIP3   OH238601   2.554   0.622   2.618 -0.1568  0.1791  0.0435
 5729TIP3    H138602   2.643   0.654   2.632 -0.3465  1.1535 -0.8452
 5729TIP3    H238603   2.517   0.616   2.706  0.7977 -0.2918  0.4214
 5730TIP3   OH238604   5.666   4.847   0.810  0.0366 -0.3146  0.3802
 5730TIP3    H138605   5.677   4.886   0.897 -0.8709 -0.6345  0.6479
 5730TIP3    H238606   5.729   4.894   0.755 -0.4103  0.9351  0.8818
 5731TIP3   OH238607   2.201   2.652  13.969  0.0996  0.2842  0.0299
 5731TIP3    H138608   2.187   2.600  13.890  0.3545 -0.2140  0.3093
 5731TIP3    H238609   2.114   2.687  13.990 -0.5754 -1.8017  1.0666
 5732TIP3   OH238610   5.495   1.696   3.854  0.0263  0.2625 -0.1386
 5732TIP3    H138611   5.516   1.734   3.769 -0.1052  1.3220  0.2923
 5732TIP3    H238612   5.506   1.602   3.842  0.3201  0.4329 -1.2363
 5733TIP3   OH238613   5.776   4.936   5.729 -0.0894 -0.4888  0.0789
 5733TIP3    H138614   5.756   4.943   5.635  0.9379 -1.7655 -0.2603
 5733TIP3    H238615   5.691   4.922   5.770 -0.5657  0.1943 -0.6453
 5734TIP3   OH238616   6.004   0.101   6.382 -0.6777 -0.0537  0.1825
 5734TIP3    H138617   5.955   0.172   6.341 -1.8103  0.1347  1.7567
 5734TIP3    H238618   6.088   0.140   6.405 -1.5630  1.0710  1.7356
 5735TIP3   OH238619   3.235   4.445  13.657  0.8040  0.4802  0.5475
 5735TIP3    H138620   3.148   4.407  13.660  0.6645  0.5516 -1.3019
 5735TIP3    H238621   3.295   4.371  13.668  0.5436  0.4242  1.7598
 5736TIP3   OH238622   2.052   2.414  12.492 -0.1673  0.2848  0.3488
 5736TIP3    H138623   2.079   2.465  12.416 -0.3919  0.5479  0.4456
 5736TIP3    H238624   2.125   2.353  12.507 -0.3803 -0.1640 -0.4262
 5737TIP3   OH238625   1.444   5.174   3.633 -0.1618 -0.3912  0.5933
 5737TIP3    H138626   1.458   5.248   3.574 -0.4516  0.5985  1.7075
 5737TIP3    H238627   1.530   5.160   3.673  0.0032 -0.9735  0.0492
 5738TIP3   OH238628   3.697   4.343  14.243 -0.5173  0.3148  0.0899
 5738TIP3    H138629   3.783   4.302  14.256 -0.5184  0.6648  1.2685
 5738TIP3    H238630   3.688   4.404  14.316 -2.8470 -1.4813  1.4042
 5739TIP3   OH238631   3.226   6.662  15.740  0.3103  0.1275 -0.3542
 5739TIP3    H138632   3.235   6.598  15.811 -0.5147 -0.3246 -0.6458
 5739TIP3    H238633   3.273   6.739  15.772  0.3307 -0.2208  0.4949
 5740TIP3   OH238634   5.716   5.160   1.694  0.4743 -0.0004 -0.2307
 5740TIP3    H138635   5.676   5.083   1.655  0.4999  0.6281 -1.5329
 5740TIP3    H238636   5.682   5.162   1.784  0.1938 -1.3064 -0.2883
 5741TIP3   OH238637   0.980   6.778  16.047 -0.0181  0.4928  0.2282
 5741TIP3    H138638   1.009   6.863  16.080  0.2318  1.8213 -3.0112
 5741TIP3    H238639   1.052   6.750  15.990 -0.7963 -1.1423  0.0054
 5742TIP3   OH238640   5.817   4.501  14.013 -0.3672  0.2837 -0.1383
 5742TIP3    H138641   5.843   4.514  13.921  2.4378 -0.1272  0.4974
 5742TIP3    H238642   5.736   4.451  14.008  0.3670 -0.8425 -2.4299
 5743TIP3   OH238643   2.377   2.374   3.115  0.4798  0.4878  0.0534
 5743TIP3    H138644   2.364   2.335   3.201  1.3229  0.3584  0.1342
 5743TIP3    H238645   2.467   2.350   3.092  0.3015  0.6230 -0.8080
 5744TIP3   OH238646   3.417   5.587   5.272 -0.0253 -0.1709  1.0851
 5744TIP3    H138647   3.406   5.657   5.337  1.0575  0.1152  0.9857
 5744TIP3    H238648   3.512   5.584   5.257 -0.2739 -0.0822 -0.6434
 5745TIP3   OH238649   1.889   3.956   4.149  0.0685  0.8490  0.3759
 5745TIP3    H138650   1.907   3.901   4.224  0.4235  0.3102 -0.1027
 5745TIP3    H238651   1.812   4.007   4.175  0.0475  0.5002  1.0101
 5746TIP3   OH238652   3.468   1.587  11.933 -0.1373  0.2030 -0.1980
 5746TIP3    H138653   3.528   1.541  11.874 -1.7865 -0.4218 -1.4810
 5746TIP3    H238654   3.515   1.666  11.958  1.6187 -0.7555 -0.2917
 5747TIP3   OH238655   3.125   2.085   0.839 -0.0908 -0.7249  0.1787
 5747TIP3    H138656   3.030   2.097   0.849 -0.0793 -1.1829  0.9154
 5747TIP3    H238657   3.157   2.077   0.929  0.5552 -1.2683 -0.0932
 5748TIP3   OH238658   1.914   1.341  14.692 -0.0079 -0.5960  0.0606
 5748TIP3    H138659   1.882   1.425  14.658 -3.4742 -1.7653  0.0482
 5748TIP3    H238660   1.889   1.342  14.784 -1.3120 -2.0871 -0.2483
 5749TIP3   OH238661   1.646   2.603  11.078  0.0349 -0.1009 -0.2677
 5749TIP3    H138662   1.728   2.651  11.081 -0.7985  1.3610  0.3714
 5749TIP3    H238663   1.643   2.566  10.990  1.0162  0.4900 -0.5622
 5750TIP3   OH238664   1.079   1.829  14.931  0.1006 -0.4555  0.5819
 5750TIP3    H138665   1.078   1.775  14.852  1.2190  0.4019 -0.0479
 5750TIP3    H238666   1.114   1.772  14.999 -1.0262 -1.2524  0.5162
 5751TIP3   OH238667   6.137   3.254   4.832 -0.0918  0.4940 -0.3264
 5751TIP3    H138668   6.056   3.204   4.831  1.0281 -1.4850  1.0785
 5751TIP3    H238669   6.200   3.199   4.785  0.7429  1.4316 -0.3447
 5752TIP3   OH238670   6.424   3.030   3.023 -0.3385  0.9202 -0.0553
 5752TIP3    H138671   6.409   2.960   2.959 -0.9796 -0.2148  1.2773
 5752TIP3    H238672   6.373   3.104   2.991 -1.3960  0.0751 -0.3933
 5753TIP3   OH238673   4.982   5.217   2.783 -0.2238 -0.0408 -0.1569
 5753TIP3    H138674   5.069   5.240   2.817 -0.0059  0.8275 -1.2009
 5753TIP3    H238675   4.999   5.146   2.721 -0.3701 -0.4075  0.2234
 5754TIP3   OH238676   5.708   5.306  13.904 -0.2893  0.7100 -0.0155
 5754TIP3    H138677   5.625   5.316  13.857  0.4191 -0.1565 -1.4896
 5754TIP3    H238678   5.688   5.244  13.974 -1.5003  2.4572  1.2846
 5755TIP3   OH238679   2.533   0.731  16.306 -0.3363  0.3706  0.4493
 5755TIP3    H138680   2.588   0.793  16.354  0.4182 -0.1948  0.3367
 5755TIP3    H238681   2.585   0.651  16.302 -1.1088 -0.1297  0.1897
 5756TIP3   OH238682   6.478   5.774  16.071  0.0092  0.5807 -0.3116
 5756TIP3    H138683   6.544   5.794  16.004  1.6385  0.3648  1.1382
 5756TIP3    H238684   6.467   5.679  16.066  1.0883  0.3849  0.5038
 5757TIP3   OH238685   1.631   1.047   0.304 -0.5057 -0.3055  0.0326
 5757TIP3    H138686   1.685   1.058   0.382 -1.8909 -0.4771  1.0566
 5757TIP3    H238687   1.545   1.021   0.338 -1.4711  0.7290 -1.4773
 5758TIP3   OH238688   3.045   5.962  13.000 -0.2852  0.1591 -0.1436
 5758TIP3    H138689   3.125   5.932  12.957 -1.0538 -0.0210 -1.5041
 5758TIP3    H238690   3.046   5.918  13.086  1.3394  0.6165  0.1042
 5759TIP3   OH238691   0.320   6.612   0.961  0.0913  0.5669 -0.2701
 5759TIP3    H138692   0.375   6.534   0.963  0.6408  0.9028 -1.2681
 5759TIP3    H238693   0.361   6.668   0.894 -1.4180  0.8710 -0.9715
 5760TIP3   OH238694   3.076   3.995  14.886 -0.1011 -0.6611  0.3323
 5760TIP3    H138695   3.070   3.944  14.967  1.3428 -0.5059  0.5611
 5760TIP3    H238696   3.047   4.083  14.911  0.7206 -0.5133  0.7876
 5761TIP3   OH238697   3.846   0.358   0.557 -0.0699 -0.1011  0.3247
 5761TIP3    H138698   3.926   0.364   0.505  0.5244  0.2129  1.2498
 5761TIP3    H238699   3.804   0.444   0.545 -0.0291 -0.0960  0.2167
 5762TIP3   OH238700   3.998   3.009   4.052 -0.4079 -0.1396  0.0770
 5762TIP3    H138701   3.946   3.050   4.121  0.8191  0.9119  0.4223
 5762TIP3    H238702   3.935   2.960   3.999 -1.5017 -0.2002  1.3927
 5763TIP3   OH238703   1.479   4.878  15.955 -0.6482  0.5757 -0.3111
 5763TIP3    H138704   1.554   4.861  16.012 -0.7351  0.9111 -0.0942
 5763TIP3    H238705   1.448   4.791  15.930 -0.7019  0.4188  0.2760
 5764TIP3   OH238706   2.148   3.781   2.820  0.4147  0.2666 -0.0423
 5764TIP3    H138707   2.177   3.776   2.729  0.2749  0.9021 -0.1275
 5764TIP3    H238708   2.151   3.874   2.842 -1.6375  0.4005 -0.0894
 5765TIP3   OH238709   3.359   2.115   0.415 -0.0124 -0.0776  0.2171
 5765TIP3    H138710   3.323   2.044   0.469 -2.1156  0.8717  0.1438
 5765TIP3    H238711   3.408   2.169   0.477  0.2703 -0.7154  0.5653
 5766TIP3   OH238712   1.641   2.655   3.581  0.4128 -0.7031  0.5018
 5766TIP3    H138713   1.666   2.564   3.562  2.0305  0.2694 -2.6625
 5766TIP3    H238714   1.648   2.700   3.497  0.1021  2.4914  2.0456
 5767TIP3   OH238715   0.774   6.148  16.346  0.1675  0.5100  0.4813
 5767TIP3    H138716   0.858   6.190  16.363  1.6800 -2.1745  0.2702
 5767TIP3    H238717   0.794   6.055  16.341 -2.6506 -0.1560 -0.8167
 5768TIP3   OH238718   6.363   2.335   3.737  0.2332 -0.3594 -0.3916
 5768TIP3    H138719   6.383   2.242   3.732 -0.8284 -0.5416 -1.5212
 5768TIP3    H238720   6.345   2.361   3.647 -1.6669  0.4309  0.1602
 5769TIP3   OH238721   5.769   6.619   1.038 -0.3201 -0.0122 -0.4413
 5769TIP3    H138722   5.708   6.571   1.093  0.3517 -0.3919 -0.0128
 5769TIP3    H238723   5.739   6.710   1.042  0.4136  0.1888  1.5558
 5770TIP3   OH238724   2.143   4.216  15.418  0.1562 -0.7473 -0.5930
 5770TIP3    H138725   2.115   4.302  15.386 -0.4764 -0.6935  0.0604
 5770TIP3    H238726   2.111   4.154  15.352 -0.1700 -0.5496 -0.6248
 5771TIP3   OH238727   4.946   3.399  11.152 -0.5288  0.1188 -0.0944
 5771TIP3    H138728   4.915   3.469  11.209 -0.0684  0.0026  0.3120
 5771TIP3    H238729   4.870   3.342  11.139 -0.7822  0.4450 -0.0487
 5772TIP3   OH238730   0.869   4.411   4.577 -0.4651 -0.4586 -0.1967
 5772TIP3    H138731   0.894   4.457   4.658  1.3279  0.2405 -1.1022
 5772TIP3    H238732   0.950   4.401   4.529 -1.4206 -1.3477 -1.7065
 5773TIP3   OH238733   1.373   0.838   1.489 -0.0912  0.6277  0.1803
 5773TIP3    H138734   1.465   0.854   1.467  0.2013 -0.7149  0.3279
 5773TIP3    H238735   1.325   0.903   1.438  0.7843 -0.2242 -1.8334
 5774TIP3   OH238736   1.965   1.404  13.483  0.0984 -0.1866 -0.2625
 5774TIP3    H138737   1.945   1.485  13.436 -0.2431  0.3679  0.7990
 5774TIP3    H238738   1.976   1.338  13.415 -0.8672  0.4885 -1.0873
 5775TIP3   OH238739   3.982   0.855   2.503 -0.1661  0.4837  0.1890
 5775TIP3    H138740   3.926   0.779   2.490  0.1463  0.5777 -2.0302
 5775TIP3    H238741   4.029   0.866   2.420  0.1286  2.8404  0.5840
 5776TIP3   OH238742   1.573   2.742  15.085  0.0659  0.2127  0.0764
 5776TIP3    H138743   1.560   2.680  15.013 -0.8601  0.2527  0.1883
 5776TIP3    H238744   1.610   2.691  15.156  1.2011  0.2141 -0.4843
 5777TIP3   OH238745   5.409   6.039  15.690 -0.3392 -0.1877 -0.3739
 5777TIP3    H138746   5.417   6.134  15.692  0.0725 -0.2246 -0.2441
 5777TIP3    H238747   5.482   6.010  15.635 -0.6449 -0.4093 -0.6684
 5778TIP3   OH238748   5.172   5.056   3.536 -0.5396  0.1050  1.1230
 5778TIP3    H138749   5.256   5.087   3.503 -1.3828  0.6531 -0.6274
 5778TIP3    H238750   5.195   4.993   3.604  1.3479 -1.2736 -0.6548
 5779TIP3   OH238751   3.926   3.357  13.611 -0.4021 -0.4865  0.0522
 5779TIP3    H138752   4.006   3.406  13.596  0.0117 -0.3657  2.2767
 5779TIP3    H238753   3.861   3.400  13.555  0.5958  0.8052 -0.1686
 5780TIP3   OH238754   5.375   0.230   4.178  0.1715  0.0545 -0.3930
 5780TIP3    H138755   5.382   0.145   4.221 -0.9620 -0.1210 -0.5505
 5780TIP3    H238756   5.293   0.227   4.130 -0.4998  1.6754  0.5690
 5781TIP3   OH238757   1.072   3.189   4.920  0.0606 -0.1603 -0.1597
 5781TIP3    H138758   1.094   3.272   4.963 -2.1427  0.1252  0.5382
 5781TIP3    H238759   0.977   3.192   4.909  0.2314 -1.3765 -2.7400
 5782TIP3   OH238760   2.607   3.594  10.983  0.3585 -0.2072 -0.1883
 5782TIP3    H138761   2.587   3.529  11.050  1.6158  0.1243  0.5416
 5782TIP3    H238762   2.680   3.556  10.934 -0.4481 -0.3759 -1.2818
 5783TIP3   OH238763   5.312   4.770   1.417  0.2286  0.6884 -0.2716
 5783TIP3    H138764   5.346   4.754   1.506  1.2888  1.0014 -0.5991
 5783TIP3    H238765   5.342   4.858   1.396  0.8974  0.2348 -1.3276
 5784TIP3   OH238766   5.319   1.022   4.219  0.0040  0.0950  0.3823
 5784TIP3    H138767   5.397   1.064   4.256 -0.6794 -0.6938  2.8650
 5784TIP3    H238768   5.338   1.015   4.125  2.5583  0.6633  0.7898
 5785TIP3   OH238769   5.653   4.230  12.120  0.0140  0.3817 -0.2105
 5785TIP3    H138770   5.659   4.170  12.195 -1.3625 -1.1500 -1.2546
 5785TIP3    H238771   5.633   4.315  12.159 -0.2412 -0.2868  1.1933
 5786TIP3   OH238772   3.692   5.969  16.104  0.5020 -0.0211  0.1962
 5786TIP3    H138773   3.599   5.990  16.093  0.8830  2.1059  0.6641
 5786TIP3    H238774   3.722   5.949  16.015 -0.6284 -2.0008  0.1890
 5787TIP3   OH238775   3.975   5.828   3.077  0.5983  0.3316  0.4435
 5787TIP3    H138776   3.890   5.785   3.076  0.4538  0.5243 -2.1295
 5787TIP3    H238777   4.022   5.787   3.149 -0.7683 -1.6499  0.2768
 5788TIP3   OH238778   4.060   0.083  12.049  0.4001  0.0124  0.1511
 5788TIP3    H138779   4.016   0.166  12.068  3.2276  1.5089  0.5920
 5788TIP3    H238780   4.088   0.051  12.134  3.5051  1.1519 -0.3076
 5789TIP3   OH238781   4.925   0.799   1.840 -0.1601 -0.0802  0.2230
 5789TIP3    H138782   4.892   0.832   1.756  0.0946  0.1118  0.1964
 5789TIP3    H238783   4.940   0.878   1.892  0.7118 -0.1350  0.0677
 5790TIP3   OH238784   3.818   0.666   3.939 -0.1408 -0.1845  0.1369
 5790TIP3    H138785   3.888   0.731   3.942 -0.2890  0.1188 -1.7521
 5790TIP3    H238786   3.741   0.715   3.908 -0.1510 -1.2984 -1.7601
 5791TIP3   OH238787   5.478   6.135   2.211 -0.6093  0.3397  0.8260
 5791TIP3    H138788   5.536   6.137   2.287 -2.0015  1.3956  1.9075
 5791TIP3    H238789   5.394   6.168   2.244 -0.7092  2.8092 -1.6222
 5792TIP3   OH238790   0.948   4.615   6.355  0.1951  0.3226 -0.1067
 5792TIP3    H138791   0.873   4.652   6.307  0.8724 -0.0079 -1.4796
 5792TIP3    H238792   0.961   4.529   6.317  1.2000  0.3265  0.1889
 5793TIP3   OH238793   3.299   4.155   0.641  0.0622  0.1535  0.6296
 5793TIP3    H138794   3.391   4.137   0.618  0.2696  0.7204  0.9836
 5793TIP3    H238795   3.251   4.137   0.561  0.6772  1.3031 -0.0260
 5794TIP3   OH238796   5.444   0.320  12.699 -0.3264 -0.0499  0.0102
 5794TIP3    H138797   5.451   0.224  12.706 -1.2006 -0.0530  1.0193
 5794TIP3    H238798   5.370   0.333  12.640 -1.0361  0.0017  0.9051
 5795TIP3   OH238799   5.580   2.136  15.033 -0.3125  0.6135  0.1102
 5795TIP3    H138800   5.565   2.218  14.986  0.9028  0.4182 -0.6480
 5795TIP3    H238801   5.616   2.163  15.117  2.6777  0.8397 -1.1332
 5796TIP3   OH238802   1.669   0.477  13.568 -0.0898 -0.4530 -0.2908
 5796TIP3    H138803   1.685   0.443  13.656 -0.2683 -0.2134 -0.1665
 5796TIP3    H238804   1.637   0.566  13.582  0.9459 -0.0225 -0.6420
 5797TIP3   OH238805   2.001   3.718   3.460  0.1402 -0.0787 -0.8337
 5797TIP3    H138806   1.997   3.813   3.464  0.1838  0.0397 -2.5871
 5797TIP3    H238807   2.062   3.700   3.388  1.2797 -1.4516  0.4076
 5798TIP3   OH238808   5.445   5.021   5.000 -0.4085  0.1802  0.1726
 5798TIP3    H138809   5.540   5.034   4.988 -0.2201 -0.0731  1.2869
 5798TIP3    H238810   5.405   5.084   4.940  0.4816  1.9459  1.3368
 5799TIP3   OH238811   1.614   4.312   3.753  0.6113 -0.0835  0.1493
 5799TIP3    H138812   1.662   4.261   3.689  0.8806  0.9930 -0.5304
 5799TIP3    H238813   1.589   4.392   3.707  1.0720  0.8593  1.4561
 5800TIP3   OH238814   2.201   2.233  11.574 -0.2097  0.6208  0.4020
 5800TIP3    H138815   2.198   2.275  11.488  0.8127 -2.0713 -1.0691
 5800TIP3    H238816   2.294   2.233  11.598 -0.0801 -1.2460  0.0519
 5801TIP3   OH238817   1.591   2.251   3.884 -0.0190  0.7068 -0.0820
 5801TIP3    H138818   1.548   2.307   3.819  0.0975  1.2066  0.2656
 5801TIP3    H238819   1.536   2.258   3.962  1.0423  1.9049  0.5959
 5802TIP3   OH238820   1.945   5.297   6.528  0.2968  0.0602  0.0664
 5802TIP3    H138821   1.912   5.230   6.588 -0.5819  0.7803  0.4096
 5802TIP3    H238822   2.035   5.270   6.510 -0.5050 -2.0756 -1.0831
 5803TIP3   OH238823   3.723   0.360   4.178  0.3679 -0.2344  0.0247
 5803TIP3    H138824   3.716   0.444   4.223  1.6974  0.1681 -0.4510
 5803TIP3    H238825   3.799   0.317   4.219  0.6669 -0.5104 -0.7913
 5804TIP3   OH238826   4.195   5.331  10.994  0.0453 -0.6870  0.3053
 5804TIP3    H138827   4.261   5.345  10.926 -0.3156 -1.0080 -0.1175
 5804TIP3    H238828   4.160   5.418  11.013  0.7644 -0.4820  0.7122
 5805TIP3   OH238829   3.159   2.464  14.289 -0.1357 -0.6710  0.1062
 5805TIP3    H138830   3.105   2.541  14.273  0.9224 -0.1840 -1.3413
 5805TIP3    H238831   3.141   2.440  14.380 -2.7561 -0.5428 -0.3041
 5806TIP3   OH238832   6.046   1.858  12.089  0.0351  0.5455  0.1571
 5806TIP3    H138833   6.061   1.895  12.176  0.4987  0.6956  0.0143
 5806TIP3    H238834   6.030   1.934  12.033  3.0001  0.7555 -0.5636
 5807TIP3   OH238835   2.514   2.915   5.625 -0.0054 -0.0519 -0.4193
 5807TIP3    H138836   2.589   2.965   5.656  0.3249  0.1405 -1.4964
 5807TIP3    H238837   2.469   2.974   5.564 -0.8679 -0.2673 -0.0095
 5808TIP3   OH238838   6.773   2.523  12.902  0.1494  0.2227 -0.2633
 5808TIP3    H138839   6.814   2.509  12.987  0.8741  2.4828 -0.1704
 5808TIP3    H238840   6.758   2.618  12.898 -2.5836 -0.1481 -1.4513
 5809TIP3   OH238841   2.798   0.814  11.821 -0.3596  0.0640 -0.3984
 5809TIP3    H138842   2.866   0.859  11.770 -0.1051 -0.0096 -0.1244
 5809TIP3    H238843   2.787   0.868  11.899 -1.0823  0.4330 -0.7420
 5810TIP3   OH238844   0.945   0.685  11.271 -0.1094  0.2813 -0.0038
 5810TIP3    H138845   0.906   0.737  11.201 -0.6994  0.9975  0.8190
 5810TIP3    H238846   0.878   0.620  11.293 -1.2344  1.9397  1.8710
 5811TIP3   OH238847   0.376   0.003  15.681  0.0087 -0.2293  0.2144
 5811TIP3    H138848   0.446  -0.023  15.742  0.9709  0.3329 -0.6305
 5811TIP3    H238849   0.322  -0.076  15.673  1.8350 -1.4478 -0.8682
 5812TIP3   OH238850   5.691   4.248  15.022  0.2824  0.4375  0.4472
 5812TIP3    H138851   5.750   4.223  15.093 -0.3836 -0.0668  0.8335
 5812TIP3    H238852   5.664   4.165  14.983 -0.3565  0.6530  0.4244
 5813TIP3   OH238853   5.015   1.233  14.889 -0.4636  0.1076 -0.3546
 5813TIP3    H138854   5.105   1.220  14.920 -0.4877 -0.8492 -0.6474
 5813TIP3    H238855   4.961   1.196  14.960 -0.5718 -0.5651 -0.7786
 5814TIP3   OH238856   4.449   0.331  12.296 -0.0128 -0.2489  0.1902
 5814TIP3    H138857   4.411   0.270  12.359 -2.3253 -0.3919 -1.1870
 5814TIP3    H238858   4.379   0.395  12.280  1.3296  1.1066 -0.5193
 5815TIP3   OH238859   6.430   4.418  14.863 -1.0319 -0.4325 -0.0929
 5815TIP3    H138860   6.398   4.433  14.774  1.2305 -0.6551 -1.0078
 5815TIP3    H238861   6.358   4.372  14.907 -1.2077 -2.9053 -2.6697
 5816TIP3   OH238862   3.933   3.565   3.032  0.7933 -0.0063 -0.5241
 5816TIP3    H138863   3.900   3.630   3.095 -0.4393 -1.0669 -0.0307
 5816TIP3    H238864   3.939   3.484   3.083  0.7489 -0.6555 -1.5369
 5817TIP3   OH238865   5.572   1.193  14.082  0.0625  0.7433 -0.1701
 5817TIP3    H138866   5.658   1.224  14.054 -0.6397  2.3574 -0.6646
 5817TIP3    H238867   5.556   1.238  14.165  0.2440 -0.5865  0.6090
 5818TIP3   OH238868   4.945   3.071  10.715  0.1072  0.7588  0.0533
 5818TIP3    H138869   4.964   3.061  10.809  2.0718  0.0116 -0.3747
 5818TIP3    H238870   4.900   2.990  10.691 -1.5125  1.4679  0.5645
 5819TIP3   OH238871   2.419   5.412  16.540  0.1857 -0.2808  0.0199
 5819TIP3    H138872   2.395   5.435  16.451 -1.0965 -1.9221 -0.1178
 5819TIP3    H238873   2.443   5.320  16.536 -0.7528 -0.6332  1.4906
 5820TIP3   OH238874   6.573   3.731  11.984 -0.2963  0.1090  0.0306
 5820TIP3    H138875   6.612   3.787  12.051 -0.9178  0.1035  0.4050
 5820TIP3    H238876   6.480   3.754  11.984 -1.0931 -2.5725  1.9239
 5821TIP3   OH238877   2.204   6.500   1.637 -0.8753  0.2981 -0.2664
 5821TIP3    H138878   2.238   6.413   1.657 -0.4706  0.3026 -0.9101
 5821TIP3    H238879   2.109   6.492   1.648 -0.8255 -0.1737 -0.1670
 5822TIP3   OH238880   6.235   5.068   2.474 -0.6976  0.2811  0.4538
 5822TIP3    H138881   6.148   5.038   2.450 -0.4998 -1.1409  1.4165
 5822TIP3    H238882   6.269   5.000   2.531  1.0138  0.8565  0.1794
 5823TIP3   OH238883   2.200   0.118  11.767  0.1085 -0.2868  0.0399
 5823TIP3    H138884   2.243   0.187  11.716  0.6752 -1.2659 -0.8495
 5823TIP3    H238885   2.107   0.130  11.749  0.2967 -0.5688 -1.2065
 5824TIP3   OH238886   1.634   4.696  14.884  0.5508 -0.2967 -0.3493
 5824TIP3    H138887   1.539   4.705  14.887  0.6222  0.4544  0.0827
 5824TIP3    H238888   1.660   4.747  14.807  0.6318 -0.1714 -0.2399
 5825TIP3   OH238889   2.247   1.131   0.030  0.3849  0.5105 -0.3826
 5825TIP3    H138890   2.186   1.088  -0.030 -0.5561  1.1386  0.1133
 5825TIP3    H238891   2.295   1.059   0.071  1.6468  0.0603 -2.4493
 5826TIP3   OH238892   2.229   2.356  12.067  0.6455  0.0889  0.4723
 5826TIP3    H138893   2.261   2.308  12.144 -1.7437  1.3071  2.3754
 5826TIP3    H238894   2.196   2.439  12.102 -1.3431  0.3403 -1.7103
 5827TIP3   OH238895   3.069   5.077  16.690 -0.3630 -0.0269  0.3655
 5827TIP3    H138896   3.100   5.010  16.628 -0.3646  1.5416 -1.4318
 5827TIP3    H238897   2.993   5.038  16.732  1.1190 -2.1098  1.3050
 5828TIP3   OH238898   5.810   5.558  12.149 -0.3188  0.5193 -0.5365
 5828TIP3    H138899   5.774   5.522  12.230  1.6469  0.3351  0.3055
 5828TIP3    H238900   5.759   5.638  12.133  0.1993  1.3604  1.6934
 5829TIP3   OH238901   2.839   6.149  13.204 -0.2101 -0.0136  0.3451
 5829TIP3    H138902   2.800   6.231  13.174 -2.6974 -1.1006  0.3781
 5829TIP3    H238903   2.883   6.114  13.126 -0.9858  0.3330 -0.2677
 5830TIP3   OH238904   0.144   5.147   2.225 -0.0904  0.5077 -0.9498
 5830TIP3    H138905   0.182   5.103   2.301  0.5130  2.3876 -0.0997
 5830TIP3    H238906   0.069   5.093   2.201  0.6953 -1.0417 -0.0766
 5831TIP3   OH238907   2.811   6.274  15.712  0.4313  0.4762  0.0065
 5831TIP3    H138908   2.731   6.297  15.760  0.6186  1.9774 -0.3465
 5831TIP3    H238909   2.882   6.311  15.764  0.8117  0.1480 -0.2725
 5832TIP3   OH238910   1.691   3.778   4.584 -0.8003 -0.0938  0.3260
 5832TIP3    H138911   1.756   3.849   4.584 -1.3335  0.4017 -0.0213
 5832TIP3    H238912   1.638   3.795   4.662 -0.4054 -0.5983  0.7052
 5833TIP3   OH238913   2.976   3.977   4.038 -0.0427  0.2659  0.1383
 5833TIP3    H138914   3.020   3.892   4.048  0.4163  0.3901 -0.7797
 5833TIP3    H238915   2.900   3.958   3.983  0.4853  0.5855 -0.7072
 5834TIP3   OH238916   4.703   2.344  16.760  0.6503  0.4334  0.2593
 5834TIP3    H138917   4.754   2.266  16.737  1.9106  1.0771  0.7744
 5834TIP3    H238918   4.725   2.361  16.852 -1.6619 -0.1107  0.9825
 5835TIP3   OH238919   2.803   5.388  10.971  0.4368  0.0910  0.3015
 5835TIP3    H138920   2.849   5.449  10.913  0.1860  0.9830  1.0127
 5835TIP3    H238921   2.811   5.427  11.058  1.0954 -1.3869  0.9476
 5836TIP3   OH238922   3.599   5.422  16.535  0.2162  0.2580  0.4140
 5836TIP3    H138923   3.535   5.381  16.477  2.2987 -0.4400 -1.5352
 5836TIP3    H238924   3.548   5.449  16.611 -2.2749 -0.7323 -0.7799
 5837TIP3   OH238925   2.396   3.496   4.921  0.3522  0.4729  0.4931
 5837TIP3    H138926   2.429   3.462   5.004  0.4395  0.9751  0.6692
 5837TIP3    H238927   2.393   3.420   4.863 -1.4381 -0.2659  1.4681
 5838TIP3   OH238928   1.868   1.595   1.130  0.1995 -0.3320  0.3135
 5838TIP3    H138929   1.829   1.534   1.192 -0.9393 -1.1736 -1.1594
 5838TIP3    H238930   1.960   1.568   1.124 -0.0245 -1.1715  0.5548
 5839TIP3   OH238931   4.720   4.123   4.858  0.2897  0.2606 -0.1522
 5839TIP3    H138932   4.768   4.156   4.783 -0.6018  0.4811 -0.6379
 5839TIP3    H238933   4.667   4.050   4.824  0.2249  0.0604  0.3534
 5840TIP3   OH238934   6.716   0.201  13.207 -0.1152  0.2014 -0.8542
 5840TIP3    H138935   6.739   0.161  13.291  1.2003 -0.0957 -1.3348
 5840TIP3    H238936   6.669   0.133  13.160 -0.9221  0.3919 -0.3481
 5841TIP3   OH238937   3.248   6.653   2.760  0.0416 -0.1703 -0.1046
 5841TIP3    H138938   3.187   6.638   2.688  0.4698  2.3183 -1.0780
 5841TIP3    H238939   3.332   6.620   2.727 -0.0696 -0.4547 -0.1100
 5842TIP3   OH238940   1.220   5.689  17.095 -0.9195  0.1395  0.1404
 5842TIP3    H138941   1.255   5.712  17.182  0.2839 -1.7916  0.2286
 5842TIP3    H238942   1.258   5.604  17.076 -2.7136 -0.3636 -1.4681
 5843TIP3   OH238943   4.510   2.727   0.627  0.2198  0.0080 -0.4167
 5843TIP3    H138944   4.561   2.805   0.608  0.6655  0.3847  2.0324
 5843TIP3    H238945   4.419   2.755   0.616  0.3737  0.9213  0.4944
 5844TIP3   OH238946   2.053   0.350  16.934 -0.2660 -0.2437  0.1211
 5844TIP3    H138947   1.972   0.344  16.985 -0.1377 -0.9781  0.2383
 5844TIP3    H238948   2.123   0.353  16.999 -0.2821  3.9355  0.2353
 5845TIP3   OH238949   6.541   5.828   5.545 -0.2408  0.7513 -0.3102
 5845TIP3    H138950   6.555   5.894   5.612 -1.0017  1.8250 -1.1619
 5845TIP3    H238951   6.556   5.875   5.462  0.5748 -0.5013 -0.8893
 5846TIP3   OH238952   1.638   4.179   0.458  0.2411  0.5156 -0.2330
 5846TIP3    H138953   1.733   4.164   0.457  0.1110 -0.5068  0.7908
 5846TIP3    H238954   1.602   4.102   0.502 -0.9576  1.4660  0.5220
 5847TIP3   OH238955   4.386   4.890   3.596  0.5578  0.0073 -0.2995
 5847TIP3    H138956   4.428   4.976   3.601 -0.5641  0.5251  3.8352
 5847TIP3    H238957   4.293   4.909   3.584  0.4113 -0.6786 -0.3121
 5848TIP3   OH238958   1.147   2.082  10.477 -0.3776 -0.0905 -0.8614
 5848TIP3    H138959   1.127   2.172  10.503  0.8655  0.9371 -3.2120
 5848TIP3    H238960   1.156   2.086  10.382 -1.6509 -3.0032 -1.2188
 5849TIP3   OH238961   1.523   2.813   2.281 -0.3058  0.7396 -0.1228
 5849TIP3    H138962   1.496   2.831   2.191 -1.5335  0.1860  0.1056
 5849TIP3    H238963   1.592   2.877   2.299 -1.5556  2.3420 -0.7362
 5850TIP3   OH238964   1.617   3.915  13.962  1.2128  0.2468 -0.0784
 5850TIP3    H138965   1.560   3.949  13.893 -2.2212 -0.7759  2.0314
 5850TIP3    H238966   1.617   3.820  13.950 -0.6029 -0.0941  1.9953
 5851TIP3   OH238967   6.185   3.632  12.012  0.1592 -0.3651 -0.3173
 5851TIP3    H138968   6.095   3.610  12.035  0.1557 -1.6531 -1.4473
 5851TIP3    H238969   6.209   3.569  11.943  1.9163 -0.0512 -0.0490
 5852TIP3   OH238970   5.954   2.075   3.065 -0.0774 -0.2118  0.0302
 5852TIP3    H138971   5.985   2.012   3.001 -0.5614 -0.2573 -0.1630
 5852TIP3    H238972   5.899   2.135   3.015  0.8026  0.6878  0.1099
 5853TIP3   OH238973   4.480   3.309   2.811  0.4938 -0.0828  0.6946
 5853TIP3    H138974   4.490   3.324   2.717 -0.0034 -1.0824  0.4756
 5853TIP3    H238975   4.530   3.229   2.828 -1.9439 -1.7190  0.6780
 5854TIP3   OH238976   1.220   5.174   3.803  0.7078  0.0047  0.1543
 5854TIP3    H138977   1.268   5.145   3.725 -0.1495 -0.0057 -0.3981
 5854TIP3    H238978   1.267   5.135   3.877  2.4773  1.3087 -0.2275
 5855TIP3   OH238979   4.901   3.505  12.325 -0.6525 -0.2034  0.2132
 5855TIP3    H138980   4.862   3.571  12.381 -1.9435 -0.7218 -0.0504
 5855TIP3    H238981   4.846   3.504  12.247 -0.9288 -1.8754  0.3880
 5856TIP3   OH238982   6.733   5.701  15.639 -0.1450  0.2899 -0.7012
 5856TIP3    H138983   6.693   5.747  15.565 -0.1521  0.9943 -0.2750
 5856TIP3    H238984   6.827   5.713  15.627 -0.1470  0.4256 -0.5922
 5857TIP3   OH238985   1.124   5.103  14.267 -0.0561  0.0021  0.4797
 5857TIP3    H138986   1.161   5.166  14.329  3.0203 -0.9783 -0.1434
 5857TIP3    H238987   1.093   5.030  14.321  0.5588  0.1204  1.0022
 5858TIP3   OH238988   1.219   0.974   1.254 -0.2203 -0.8893  0.1748
 5858TIP3    H138989   1.138   1.015   1.284 -0.2715 -0.5951 -0.3502
 5858TIP3    H238990   1.278   1.048   1.237 -0.0465 -1.0732 -0.0265
 5859TIP3   OH238991   0.146   3.614  14.220 -0.0402 -0.1029 -0.7948
 5859TIP3    H138992   0.180   3.647  14.303  0.1381 -0.0008 -0.9080
 5859TIP3    H238993   0.126   3.522  14.237  0.4518 -0.2047 -0.7761
 5860TIP3   OH238994   2.966   1.315  15.865 -0.0583  0.0393 -0.1947
 5860TIP3    H138995   3.012   1.261  15.801 -1.3068  1.7764 -2.7054
 5860TIP3    H238996   2.874   1.314  15.837 -0.8775  0.0407  2.2140
 5861TIP3   OH238997   1.293   5.958  11.817 -0.5650  0.0446 -0.3399
 5861TIP3    H138998   1.215   5.931  11.770 -1.0753 -0.2653  0.6521
 5861TIP3    H238999   1.271   6.044  11.853 -0.2340  0.2193 -0.5548
 5862TIP3   OH239000   5.145   0.481  14.774 -0.0381  0.1290  0.0743
 5862TIP3    H139001   5.096   0.440  14.703 -0.6320  0.9421 -0.0016
 5862TIP3    H239002   5.084   0.485  14.847 -0.2527  1.5057 -0.1423
 5863TIP3   OH239003   0.702   6.521  15.341 -0.8356 -0.0246 -0.2453
 5863TIP3    H139004   0.661   6.602  15.373 -0.2314 -0.2857  1.2511
 5863TIP3    H239005   0.786   6.517  15.386  0.5988  0.1303 -2.7159
 5864TIP3   OH239006   3.949   1.469   0.219  0.5908 -0.6516 -0.9133
 5864TIP3    H139007   3.976   1.537   0.281 -1.2597 -0.3029 -0.4262
 5864TIP3    H239008   3.952   1.511   0.133 -0.1988 -0.0223 -0.6533
 5865TIP3   OH239009   2.795   0.840  13.962 -0.4570 -0.0987 -0.4008
 5865TIP3    H139010   2.790   0.893  13.883  1.1759 -0.3832 -0.7298
 5865TIP3    H239011   2.757   0.755  13.937  1.1185 -0.5840 -1.2715
 5866TIP3   OH239012   5.978   4.849  15.313  1.0586 -0.0849 -0.1204
 5866TIP3    H139013   6.073   4.843  15.300  0.9203  0.2547 -1.5381
 5866TIP3    H239014   5.956   4.937  15.282  0.1336 -0.6002 -1.0179
 5867TIP3   OH239015   3.925   1.586  13.336  0.3134  0.3927 -0.1993
 5867TIP3    H139016   3.974   1.608  13.256 -1.1359  1.4076 -0.8481
 5867TIP3    H239017   3.957   1.499  13.360  0.7604  0.0416 -1.9117
 5868TIP3   OH239018   3.247   6.476   3.521 -0.2734  0.0216 -0.3624
 5868TIP3    H139019   3.161   6.506   3.550 -0.4057 -1.5093  0.9913
 5868TIP3    H239020   3.309   6.537   3.561 -0.7118  1.2453 -1.5027
 5869TIP3   OH239021   1.628   4.157   5.818 -0.8283  0.0101  0.0779
 5869TIP3    H139022   1.621   4.126   5.908  0.3512  0.0335  0.1841
 5869TIP3    H239023   1.587   4.089   5.765  0.2366 -0.9450  0.4613
 5870TIP3   OH239024   5.355   1.384   5.213 -0.0561  0.4621  0.0588
 5870TIP3    H139025   5.427   1.422   5.162 -0.3690  0.5676 -0.3053
 5870TIP3    H239026   5.355   1.435   5.294  0.9738 -0.2464  0.5257
 5871TIP3   OH239027   1.684   0.523   0.568 -0.0315  0.2832 -0.2815
 5871TIP3    H139028   1.617   0.471   0.524 -0.5777  0.5176  0.2602
 5871TIP3    H239029   1.639   0.603   0.595  0.8240  1.1136 -1.2091
 5872TIP3   OH239030   0.514   4.196   3.031 -0.2580 -0.2718  0.5091
 5872TIP3    H139031   0.498   4.282   3.070  2.3191  0.0412  1.1016
 5872TIP3    H239032   0.463   4.196   2.951 -0.8419  1.5486  0.8334
 5873TIP3   OH239033   2.544   3.180   1.850  0.0794 -0.3181 -0.2210
 5873TIP3    H139034   2.592   3.115   1.901 -1.0966 -2.2539 -1.4075
 5873TIP3    H239035   2.610   3.242   1.820  1.1181 -0.4303  1.7005
 5874TIP3   OH239036   6.687   4.481   2.173 -0.1329  0.3957  0.3391
 5874TIP3    H139037   6.593   4.493   2.186 -0.0397  1.4492  0.1673
 5874TIP3    H239038   6.708   4.400   2.219 -1.3236 -0.4663 -0.5745
 5875TIP3   OH239039   5.109   2.254  14.363 -0.2778 -0.7742  0.0713
 5875TIP3    H139040   5.192   2.210  14.384 -0.1138 -0.9058 -0.7891
 5875TIP3    H239041   5.042   2.190  14.385 -0.0806 -1.1382 -0.3467
 5876TIP3   OH239042   5.094   5.994   4.991  0.0519 -0.0768  0.5817
 5876TIP3    H139043   5.058   5.940   5.062  3.0309 -0.8721  1.6510
 5876TIP3    H239044   5.159   6.049   5.034  1.3430  0.0421 -1.3880
 5877TIP3   OH239045   0.726   5.598  14.387 -0.1401  0.2549 -0.3057
 5877TIP3    H139046   0.766   5.512  14.374  1.0547  0.9441 -1.4446
 5877TIP3    H239047   0.773   5.634  14.463  0.2080  0.3768 -0.5758
 5878TIP3   OH239048   1.069   5.051  15.618  0.0737  0.1415  0.0674
 5878TIP3    H139049   1.057   5.014  15.705  0.7309 -1.4833 -0.4970
 5878TIP3    H239050   1.050   4.978  15.558  1.4588  0.6830 -1.0902
 5879TIP3   OH239051   3.729   5.144  16.793 -0.0210  0.5156  0.0562
 5879TIP3    H139052   3.738   5.118  16.884  0.9849  0.3331 -0.0756
 5879TIP3    H239053   3.643   5.111  16.766  0.0041 -0.1083  0.7212
 5880TIP3   OH239054   4.072   6.707  14.930 -0.0383  0.3750  0.0231
 5880TIP3    H139055   4.056   6.724  15.023  2.1009 -2.2131  1.0222
 5880TIP3    H239056   4.061   6.612  14.921 -0.0406  0.5387 -2.3574
 5881TIP3   OH239057   6.108   4.203  17.183  0.1106  0.5419 -0.1541
 5881TIP3    H139058   6.143   4.153  17.257 -2.4679 -1.1019  0.0826
 5881TIP3    H239059   6.089   4.289  17.219  0.1480  0.1814  0.7499
 5882TIP3   OH239060   1.269   5.305  12.556  0.6071 -0.1400 -0.4929
 5882TIP3    H139061   1.284   5.224  12.506 -0.6118 -0.6103 -0.1154
 5882TIP3    H239062   1.292   5.283  12.646  0.7261  0.0805 -0.4675
 5883TIP3   OH239063   0.687   0.077  13.970  0.2974  0.4920 -0.1241
 5883TIP3    H139064   0.665  -0.010  13.939 -1.4782  0.6137  0.6883
 5883TIP3    H239065   0.709   0.064  14.063 -2.8019  1.1987  0.8279
 5884TIP3   OH239066   6.315   5.229  10.949  0.2204 -0.2802  0.4533
 5884TIP3    H139067   6.287   5.177  11.024 -1.5332  1.3358  0.9902
 5884TIP3    H239068   6.329   5.317  10.984  0.9189  0.1519 -0.8240
 5885TIP3   OH239069   1.271   1.537   5.920 -0.4789  0.3339  0.0179
 5885TIP3    H139070   1.195   1.583   5.885 -0.0236  1.6390  0.7007
 5885TIP3    H239071   1.235   1.477   5.986 -1.1150 -0.6146 -1.1493
 5886TIP3   OH239072   6.421   5.114  13.410 -0.0055  0.4770  0.0319
 5886TIP3    H139073   6.357   5.185  13.407 -0.7879 -0.1642  0.8804
 5886TIP3    H239074   6.444   5.107  13.503 -2.3367 -2.4155  0.5213
 5887TIP3   OH239075   5.175   0.495  11.420  0.0960 -0.5194  0.2086
 5887TIP3    H139076   5.159   0.570  11.362 -0.3074  0.1716  1.1953
 5887TIP3    H239077   5.186   0.421  11.360 -2.4218 -0.2381 -0.7430
 5888TIP3   OH239078   6.006   0.539  11.027 -0.1542 -0.2828  0.1423
 5888TIP3    H139079   5.917   0.536  11.063  0.0599 -2.0567  0.6233
 5888TIP3    H239080   6.041   0.623  11.056 -1.3628  0.0424  0.7136
 5889TIP3   OH239081   6.473   3.864   2.748 -0.5491 -0.2740  0.2579
 5889TIP3    H139082   6.509   3.784   2.709 -0.2257  0.5447 -1.1986
 5889TIP3    H239083   6.534   3.933   2.722 -1.7403  0.7220  0.0363
 5890TIP3   OH239084   0.675   0.849   5.051  0.2511 -0.1181  0.0679
 5890TIP3    H139085   0.672   0.862   4.956 -1.9101 -2.0458 -0.2241
 5890TIP3    H239086   0.619   0.773   5.066  0.8257 -0.0779  2.8790
 5891TIP3   OH239087   5.835   1.365  15.515 -0.0304 -0.2709 -0.1399
 5891TIP3    H139088   5.789   1.289  15.480 -2.7401  0.8870  0.6851
 5891TIP3    H239089   5.815   1.435  15.453  0.8182  0.2396  0.1456
 5892TIP3   OH239090   0.343   2.214   2.362 -0.2071 -0.7534  0.2718
 5892TIP3    H139091   0.301   2.138   2.401 -0.0618 -0.8465  0.2456
 5892TIP3    H239092   0.436   2.191   2.357  0.2450  0.2916  2.4006
 5893TIP3   OH239093   6.057   6.767   3.330 -0.6934 -0.1283 -0.1107
 5893TIP3    H139094   6.079   6.677   3.303  0.5836 -0.3843  1.6084
 5893TIP3    H239095   6.140   6.814   3.329 -0.5155 -0.1347  3.0316
 5894TIP3   OH239096   4.804   5.254   1.141  0.4215  0.4618  0.0547
 5894TIP3    H139097   4.739   5.279   1.207 -1.0399 -1.1125 -0.7320
 5894TIP3    H239098   4.788   5.314   1.068  1.2587  1.4222  0.6237
 5895TIP3   OH239099   1.114   2.267   4.591  0.4457  0.4325 -0.1166
 5895TIP3    H139100   1.183   2.334   4.592  0.5250  0.3742 -1.0893
 5895TIP3    H239101   1.144   2.201   4.653  0.8449  0.8309  0.1211
 5896TIP3   OH239102   3.177   0.092  16.617  0.2088  0.2659  0.1405
 5896TIP3    H139103   3.093   0.078  16.573  0.2768  0.4991 -0.0602
 5896TIP3    H239104   3.215   0.004  16.624  0.3635  0.2698 -0.5931
 5897TIP3   OH239105   4.319   3.322  13.537  0.0247  0.1542  0.3677
 5897TIP3    H139106   4.341   3.230  13.524  0.2377  0.0529  1.3597
 5897TIP3    H239107   4.276   3.325  13.622  1.3348  1.1486  1.0461
 5898TIP3   OH239108   0.454   5.995   2.631  0.6308  0.0251 -0.3762
 5898TIP3    H139109   0.365   6.019   2.606  0.6218  0.6525  0.2186
 5898TIP3    H239110   0.509   6.037   2.565  0.5254  0.3166 -0.2801
 5899TIP3   OH239111   0.723   6.597   1.852  0.0951 -0.0833 -0.3068
 5899TIP3    H139112   0.774   6.600   1.771  0.8149  1.0989  0.1507
 5899TIP3    H239113   0.751   6.517   1.896  0.3762 -0.2606 -0.8057
 5900TIP3   OH239114   5.255   4.635   1.837 -0.6125  0.1861 -0.6443
 5900TIP3    H139115   5.182   4.646   1.776 -0.4737 -2.3689 -1.4099
 5900TIP3    H239116   5.241   4.549   1.876  2.0474 -0.5021 -0.9803
 5901TIP3   OH239117   3.683   4.371  12.377 -0.2938  0.8811  0.4221
 5901TIP3    H139118   3.775   4.391  12.394 -0.4412  0.5229  1.8233
 5901TIP3    H239119   3.643   4.456  12.357  0.5859  0.8626 -1.6986
 5902TIP3   OH239120   4.081   0.817  14.467 -0.1244 -0.6720 -0.2036
 5902TIP3    H139121   4.108   0.859  14.549  1.0656  1.2177 -1.4949
 5902TIP3    H239122   4.068   0.889  14.406 -0.6693 -2.0573 -1.7924
 5903TIP3   OH239123   4.971   2.431   3.693  0.3258  0.1810 -0.0572
 5903TIP3    H139124   5.052   2.409   3.647  0.8916 -1.6944  1.6954
 5903TIP3    H239125   4.914   2.355   3.681 -0.4227  0.6543  0.3822
 5904TIP3   OH239126   3.611   5.114   4.597  0.3941  0.3457  0.3359
 5904TIP3    H139127   3.564   5.050   4.650  1.4115  0.2537  1.1511
 5904TIP3    H239128   3.676   5.151   4.656  0.8792  0.9791 -0.5726
 5905TIP3   OH239129   1.870   4.445  14.000  0.4547 -0.2907 -0.1641
 5905TIP3    H139130   1.932   4.391  13.951  1.2370  0.1847  0.2713
 5905TIP3    H239131   1.850   4.394  14.078  0.6755 -0.2459 -0.0763
 5906TIP3   OH239132   5.287   3.437   5.189 -0.1846 -0.5812 -0.2812
 5906TIP3    H139133   5.265   3.393   5.107 -1.5168 -2.0766  0.8195
 5906TIP3    H239134   5.207   3.431   5.241  0.9361 -0.5220  1.5100
 5907TIP3   OH239135   6.609   0.540   3.128 -0.2230  0.3207 -0.4846
 5907TIP3    H139136   6.589   0.615   3.184 -0.9307  1.1674 -1.8347
 5907TIP3    H239137   6.600   0.573   3.039 -0.8090 -1.4264 -1.1197
 5908TIP3   OH239138   2.216   3.151  15.277  0.1725  0.3684  0.3959
 5908TIP3    H139139   2.311   3.147  15.286  0.0641 -1.3230  1.2650
 5908TIP3    H239140   2.184   3.072  15.322 -1.5458  0.0624 -1.2194
 5909TIP3   OH239141   4.994   3.088   5.192  0.5244 -0.0405  0.0169
 5909TIP3    H139142   5.067   3.095   5.131  0.7760  2.6115  0.4970
 5909TIP3    H239143   5.013   3.151   5.261 -2.2487  0.9119  0.0738
 5910TIP3   OH239144   2.805   0.523   4.481  0.0276 -0.2279  0.1027
 5910TIP3    H139145   2.841   0.487   4.400  2.6480  2.3230 -0.0058
 5910TIP3    H239146   2.710   0.521   4.468  0.3166 -1.3354 -2.3469
 5911TIP3   OH239147   6.634   2.993   2.673  0.1916  1.0575  0.2531
 5911TIP3    H139148   6.639   2.955   2.586  0.8958  2.1991 -0.2353
 5911TIP3    H239149   6.693   2.940   2.727 -2.5849 -1.6178  0.8662
 5912TIP3   OH239150   1.728   1.891   3.127 -0.3422  0.4245  0.0987
 5912TIP3    H139151   1.730   1.796   3.128 -0.9101  0.4089 -0.1191
 5912TIP3    H239152   1.798   1.916   3.068 -0.8034  0.1193 -0.5824
 5913TIP3   OH239153   3.682   3.068   5.557 -0.5645  0.8265  0.0324
 5913TIP3    H139154   3.614   3.127   5.589  0.3096  1.3054  1.0923
 5913TIP3    H239155   3.642   2.981   5.559 -1.1510  1.1074  0.6405
 5914TIP3   OH239156   2.992   0.942  15.126 -0.0703 -0.2638 -0.4038
 5914TIP3    H139157   2.985   0.972  15.035 -0.0548  0.8079 -0.0735
 5914TIP3    H239158   3.071   0.889  15.128  0.0038 -0.1819 -0.9876
 5915TIP3   OH239159   1.359   2.224  16.471 -0.1191 -0.5844 -0.0677
 5915TIP3    H139160   1.381   2.310  16.435  1.9426 -0.9587  0.2326
 5915TIP3    H239161   1.368   2.164  16.396  2.0010 -1.0314  0.4828
 5916TIP3   OH239162   5.996   2.649  15.181 -0.0823 -0.3773 -0.0819
 5916TIP3    H139163   5.989   2.617  15.092 -1.0491 -2.0541  0.5568
 5916TIP3    H239164   6.054   2.587  15.225 -0.1585  0.0438  0.6376
 5917TIP3   OH239165   2.017   2.664  15.855  0.1384  0.3982  0.1553
 5917TIP3    H139166   2.027   2.571  15.873 -0.3962  0.4074  0.5068
 5917TIP3    H239167   2.022   2.671  15.760  0.5171  0.0558  0.1447
 5918TIP3   OH239168   3.405   4.920   0.616 -0.4714  0.3524  0.2906
 5918TIP3    H139169   3.490   4.892   0.650  0.1896  1.0106 -0.7794
 5918TIP3    H239170   3.356   4.945   0.695 -0.1213 -1.1696  1.0180
 5919TIP3   OH239171   1.589   6.462   2.686  0.2895 -0.4445  0.6223
 5919TIP3    H139172   1.567   6.381   2.730 -1.0476 -0.9691 -0.9047
 5919TIP3    H239173   1.665   6.440   2.631 -0.1149 -0.7032  0.1562
 5920TIP3   OH239174   3.228   6.615   0.019  0.3037 -0.1545 -0.4534
 5920TIP3    H139175   3.246   6.708   0.005  1.8598 -0.2879  0.4745
 5920TIP3    H239176   3.132   6.610   0.024  0.0752  2.3352  5.0571
 5921TIP3   OH239177   1.906   3.535   5.940 -0.1417 -0.6215 -0.5009
 5921TIP3    H139178   1.955   3.615   5.919 -2.8464  1.1054 -0.7416
 5921TIP3    H239179   1.857   3.557   6.019  0.7152 -2.8688  0.7311
 5922TIP3   OH239180   6.749   4.149  11.792 -0.9557  0.2662  0.2153
 5922TIP3    H139181   6.753   4.140  11.887 -1.3361 -0.3599  0.1815
 5922TIP3    H239182   6.839   4.138  11.763 -0.9773 -0.6411  0.4330
 5923TIP3   OH239183   2.755   0.949  13.701  0.9619 -0.0819  0.1068
 5923TIP3    H139184   2.751   0.864  13.657 -0.0570 -0.1593  0.3160
 5923TIP3    H239185   2.833   0.990  13.666  1.8231 -1.3558  0.4521
 5924TIP3   OH239186   1.280   0.037  12.527  0.0000  0.0577 -0.0226
 5924TIP3    H139187   1.194  -0.005  12.534  0.4143 -1.0736 -1.2555
 5924TIP3    H239188   1.269   0.101  12.456  0.2140 -0.2475 -0.3370
 5925TIP3   OH239189   4.213   3.055  16.939 -0.1497 -0.7415 -0.7159
 5925TIP3    H139190   4.183   3.077  16.851 -1.3884 -0.2787 -0.2020
 5925TIP3    H239191   4.133   3.033  16.987  0.1858  1.4000  0.9603
 5926TIP3   OH239192   1.552   3.555  12.727  0.4432 -0.0229  0.1790
 5926TIP3    H139193   1.615   3.514  12.668  0.3353 -0.7592  0.5667
 5926TIP3    H239194   1.595   3.635  12.755  1.2858 -0.6003  0.5689
 5927TIP3   OH239195   1.944   5.566   2.621 -0.3573 -0.2115 -0.0147
 5927TIP3    H139196   1.983   5.580   2.707 -0.6257 -1.3039  0.3068
 5927TIP3    H239197   1.850   5.555   2.639 -0.5198  0.2791 -0.5321
 5928TIP3   OH239198   5.616   1.905   3.674 -0.3734 -0.1285  0.3950
 5928TIP3    H139199   5.702   1.923   3.636 -0.0671 -2.0489  0.1010
 5928TIP3    H239200   5.581   1.992   3.695  1.3353  0.7302 -0.1050
 5929TIP3   OH239201   0.589   6.707  15.103  0.1940  0.4695  0.5310
 5929TIP3    H139202   0.537   6.787  15.106  0.5066  0.7143 -0.2496
 5929TIP3    H239203   0.679   6.737  15.113  0.2364  0.0930  1.4149
 5930TIP3   OH239204   0.352   2.134  17.226  0.2466 -0.1227  0.1738
 5930TIP3    H139205   0.308   2.051  17.213  2.4940 -1.3080 -0.4471
 5930TIP3    H239206   0.439   2.121  17.187  1.0530  2.1493  1.0536
 5931TIP3   OH239207   2.175   6.588  13.636 -0.4357 -0.7335 -0.6133
 5931TIP3    H139208   2.133   6.503  13.645  0.3987 -1.0189  1.0043
 5931TIP3    H239209   2.169   6.608  13.543 -0.7970 -2.4828 -1.0035
 5932TIP3   OH239210   0.264   3.768  16.304  0.3934  0.7294  0.1978
 5932TIP3    H139211   0.329   3.835  16.283  0.5407  0.2907 -0.7782
 5932TIP3    H239212   0.184   3.797  16.261  0.3333  0.5235  0.1702
 5933TIP3   OH239213   2.603   4.707   2.935  0.3415 -0.1898 -0.5100
 5933TIP3    H139214   2.621   4.637   2.873  1.3056  0.1228 -0.5956
 5933TIP3    H239215   2.529   4.675   2.986  2.1292 -2.2842  0.9572
 5934TIP3   OH239216   1.129   1.259  11.185  0.1954  0.2780  0.3530
 5934TIP3    H139217   1.068   1.193  11.153  0.7352  0.7216 -1.7600
 5934TIP3    H239218   1.082   1.305  11.254 -1.2415 -0.4601 -0.1062
 5935TIP3   OH239219   0.777   5.760  11.175 -0.4823  0.5098 -0.3956
 5935TIP3    H139220   0.695   5.777  11.221 -0.2129  0.8253 -0.0238
 5935TIP3    H239221   0.751   5.719  11.092 -1.0292  0.9034 -0.4197
 5936TIP3   OH239222   3.793   2.482   0.779  0.0964 -0.4043  0.2951
 5936TIP3    H139223   3.797   2.429   0.699 -0.7311  0.0215 -0.0425
 5936TIP3    H239224   3.767   2.569   0.748  0.8504  0.0499  0.9080
 5937TIP3   OH239225   2.225   1.172  12.993 -0.1172  0.1241  0.5926
 5937TIP3    H139226   2.218   1.228  12.915  1.1820 -1.2994 -0.6299
 5937TIP3    H239227   2.249   1.232  13.064  0.4726  1.2308 -0.5029
 5938TIP3   OH239228   6.000   6.520   2.146 -0.3377 -0.4085 -0.3102
 5938TIP3    H139229   6.088   6.555   2.157 -0.9130  0.9318  0.1831
 5938TIP3    H239230   5.991   6.456   2.216  1.2475 -2.7672 -2.0913
 5939TIP3   OH239231   6.685   1.539   2.748  0.7051 -0.2190  0.5557
 5939TIP3    H139232   6.777   1.514   2.741  1.0250  1.1258 -0.3052
 5939TIP3    H239233   6.665   1.529   2.841  1.3766 -1.6114  0.5869
 5940TIP3   OH239234   4.685   1.995  13.127  0.1936  0.5394  0.0198
 5940TIP3    H139235   4.617   1.947  13.174  0.6182  1.0059  1.1513
 5940TIP3    H239236   4.638   2.066  13.083 -0.2916 -0.2716 -0.8038
 5941TIP3   OH239237   1.008   1.095   5.965 -0.1850 -0.3178  0.0191
 5941TIP3    H139238   1.027   1.013   5.919 -0.9222 -0.2844 -0.3565
 5941TIP3    H239239   1.004   1.071   6.057  0.5322 -0.5299 -0.0021
 5942TIP3   OH239240   4.947   0.402   6.293 -0.1814 -0.2000 -0.7251
 5942TIP3    H139241   4.900   0.367   6.217 -2.1457  0.0925  0.2837
 5942TIP3    H239242   4.946   0.497   6.279  0.7921 -0.2282 -1.0487
 5943TIP3   OH239243   2.302   1.596  13.728  0.6440 -0.2532  0.6437
 5943TIP3    H139244   2.312   1.508  13.690 -2.0507 -0.5326  0.3710
 5943TIP3    H239245   2.316   1.582  13.822 -0.6358 -1.2269  0.7334
 5944TIP3   OH239246   4.448   3.906  15.288 -0.2894 -0.1833 -0.3897
 5944TIP3    H139247   4.366   3.954  15.282  0.1837  0.6318 -0.3729
 5944TIP3    H239248   4.472   3.887  15.197 -0.5138 -0.4660 -0.3928
 5945TIP3   OH239249   4.891   4.513  12.187  0.2520 -0.5714 -0.6411
 5945TIP3    H139250   4.864   4.522  12.095  2.0247  0.8950 -1.0730
 5945TIP3    H239251   4.924   4.424  12.194  2.2076 -0.0131 -2.0688
 5946TIP3   OH239252   5.793   0.442  12.590 -0.0515 -0.2799  0.0847
 5946TIP3    H139253   5.856   0.371  12.604  0.4328  0.6228  3.3007
 5946TIP3    H239254   5.848   0.520  12.576 -0.5508 -0.1807 -1.4580
 5947TIP3   OH239255   0.420   1.145  14.622  0.4295  0.2837  0.3814
 5947TIP3    H139256   0.441   1.222  14.568 -2.0513 -0.0241 -1.1669
 5947TIP3    H239257   0.407   1.074  14.559  1.1160 -1.0703  1.6911
 5948TIP3   OH239258   6.599   3.706   2.567 -0.4230  0.2042  0.4421
 5948TIP3    H139259   6.684   3.728   2.530 -0.7337 -0.2320 -0.5647
 5948TIP3    H239260   6.576   3.623   2.525 -0.1603 -1.0668  2.6507
 5949TIP3   OH239261   4.428   6.517  12.676  0.5582 -0.6342 -0.0052
 5949TIP3    H139262   4.452   6.508  12.584 -0.8251  2.9288 -0.8865
 5949TIP3    H239263   4.509   6.541  12.720  0.9159 -0.6578 -0.6372
 5950TIP3   OH239264   4.927   2.744   5.905 -0.2480  0.1941 -0.4320
 5950TIP3    H139265   4.838   2.760   5.872 -0.4076  0.8646  0.2977
 5950TIP3    H239266   4.959   2.670   5.853 -0.8679  0.5811 -1.3787
 5951TIP3   OH239267   4.398   0.771   3.652  0.8323  0.0340 -0.6419
 5951TIP3    H139268   4.469   0.793   3.713  0.1276 -0.2559  0.3129
 5951TIP3    H239269   4.337   0.720   3.705 -0.0879  0.2852 -1.4440
 5952TIP3   OH239270   1.600   5.256  15.772  0.3820  0.4577 -0.0925
 5952TIP3    H139271   1.508   5.239  15.753  0.6129  1.4712 -2.5272
 5952TIP3    H239272   1.647   5.184  15.730  0.7376 -0.3943  1.6566
 5953TIP3   OH239273   4.110   0.962  11.704 -0.5424  0.6488 -0.3063
 5953TIP3    H139274   4.169   1.032  11.729  1.5933 -0.6852 -1.3257
 5953TIP3    H239275   4.025   0.987  11.741  0.6076  2.7040  1.1063
 5954TIP3   OH239276   5.447   2.045   2.956  0.1862  0.4798 -0.1048
 5954TIP3    H139277   5.468   2.016   3.045 -2.3498  3.3141  1.6172
 5954TIP3    H239278   5.474   1.972   2.900 -0.7553 -2.7365  3.2213
 5955TIP3   OH239279   6.208   5.828  15.207  0.2201 -0.4490  0.4658
 5955TIP3    H139280   6.169   5.742  15.192 -0.4323 -0.0134 -0.4212
 5955TIP3    H239281   6.193   5.876  15.125  0.1361  0.6699  1.1136
 5956TIP3   OH239282   3.261   5.972  13.771  0.3488 -0.5283  0.4041
 5956TIP3    H139283   3.183   5.986  13.824  1.0351  1.7929  0.8852
 5956TIP3    H239284   3.228   5.963  13.681 -0.5326 -0.7124  0.7375
 5957TIP3   OH239285   5.672   2.592   6.489  0.4249 -0.9526 -0.0194
 5957TIP3    H139286   5.626   2.673   6.509  1.3492  0.0281 -1.5886
 5957TIP3    H239287   5.739   2.584   6.557  0.8835  0.0782 -0.3437
 5958TIP3   OH239288   0.529   5.792  14.400 -0.4133  0.0139 -0.2981
 5958TIP3    H139289   0.566   5.704  14.394 -0.4235  0.0992 -2.0454
 5958TIP3    H239290   0.477   5.790  14.480  0.1442 -1.3487  0.0645
 5959TIP3   OH239291   1.835   6.718   1.281 -0.0824  0.0887  0.0634
 5959TIP3    H139292   1.833   6.791   1.344 -0.7432  0.1727 -0.0476
 5959TIP3    H239293   1.801   6.756   1.200  0.9724  0.0365 -0.4173
 5960TIP3   OH239294   3.642   5.653   2.387 -0.0457 -0.3511  0.2756
 5960TIP3    H139295   3.564   5.609   2.421  0.2155 -0.9054  0.1583
 5960TIP3    H239296   3.714   5.592   2.404  0.2755 -0.0965 -0.1437
 5961TIP3   OH239297   6.326   3.242   1.859 -0.0520 -0.4825 -0.4248
 5961TIP3    H139298   6.336   3.207   1.771  2.2923  0.4129 -0.5918
 5961TIP3    H239299   6.302   3.167   1.912 -1.6391 -1.0078 -1.8205
 5962TIP3   OH239300   3.237   5.470  14.321  0.4264  0.1534 -0.1114
 5962TIP3    H139301   3.291   5.411  14.373  1.1549 -1.0260 -2.0890
 5962TIP3    H239302   3.147   5.444  14.341  0.7208 -1.1061 -0.3220
 5963TIP3   OH239303   2.469   3.892   4.515  0.0253  0.4532 -0.0898
 5963TIP3    H139304   2.428   3.978   4.530  0.5967  0.6960  0.1040
 5963TIP3    H239305   2.396   3.835   4.491 -0.4523  0.8487  0.3889
 5964TIP3   OH239306   0.180   1.231   4.191  0.5638 -0.0978 -0.0225
 5964TIP3    H139307   0.090   1.223   4.221  0.8757 -1.1249  0.7015
 5964TIP3    H239308   0.208   1.318   4.220 -1.5073  2.1914 -4.0534
 5965TIP3   OH239309   2.030   0.120  12.655 -0.4102 -0.7511  0.1769
 5965TIP3    H139310   1.950   0.130  12.603 -1.1281 -0.1118  1.3556
 5965TIP3    H239311   2.044   0.206  12.695  2.5022  0.0380 -2.1824
 5966TIP3   OH239312   5.089   6.754  16.721  0.2263 -0.5349 -0.0959
 5966TIP3    H139313   5.010   6.742  16.668  0.0554 -0.8249  0.2235
 5966TIP3    H239314   5.096   6.849  16.732  1.0961 -0.3564 -1.8916
 5967TIP3   OH239315   4.891   4.960   6.209 -0.7290  0.0348 -0.2243
 5967TIP3    H139316   4.816   4.997   6.255 -0.8105  0.3278 -0.5822
 5967TIP3    H239317   4.868   4.869   6.192 -0.5591 -0.1709  0.6047
 5968TIP3   OH239318   2.211   5.213  14.806  0.3477  0.2047 -0.1859
 5968TIP3    H139319   2.295   5.257  14.822 -0.5295  1.9404 -0.0998
 5968TIP3    H239320   2.225   5.123  14.834  1.3374  1.1263  2.5898
 5969TIP3   OH239321   0.226   3.703  14.480  0.0247 -0.7233  0.0835
 5969TIP3    H139322   0.259   3.627  14.529 -1.2079 -1.4044 -0.0930
 5969TIP3    H239323   0.172   3.750  14.543 -0.4006 -0.8103 -0.2100
 5970TIP3   OH239324   1.675   2.196   1.805  0.1266  0.1826  0.1956
 5970TIP3    H139325   1.766   2.224   1.817 -0.0474  0.9884 -0.2775
 5970TIP3    H239326   1.660   2.131   1.874  1.2577 -0.4421 -0.1406
 5971TIP3   OH239327   5.396   1.418   4.103 -0.9499 -0.1797 -0.1121
 5971TIP3    H139328   5.371   1.500   4.146  0.2118  0.5799 -0.8295
 5971TIP3    H239329   5.481   1.437   4.063  0.0536 -2.1813  0.9375
 5972TIP3   OH239330   1.122   2.692  12.823 -0.5774  0.1329 -0.0585
 5972TIP3    H139331   1.105   2.599  12.837  0.9892 -0.0932  0.4855
 5972TIP3    H239332   1.216   2.702  12.833 -0.4384  1.4612 -2.0354
 5973TIP3   OH239333   0.138   6.156   4.824  0.8406  0.0958 -0.3668
 5973TIP3    H139334   0.066   6.193   4.873  1.7427  0.1531  0.9776
 5973TIP3    H239335   0.141   6.206   4.743 -0.9030 -0.2251 -0.6566
 5974TIP3   OH239336   2.565   5.399  13.460  0.3728  0.0407 -0.5674
 5974TIP3    H139337   2.607   5.435  13.382  2.0732  0.2275  0.3906
 5974TIP3    H239338   2.535   5.312  13.433  2.0030 -0.3855 -1.1499
 5975TIP3   OH239339   4.923   2.804  16.862 -0.4175 -0.3496 -0.0786
 5975TIP3    H139340   5.003   2.855  16.881 -0.9404 -0.5203  2.9687
 5975TIP3    H239341   4.894   2.838  16.777 -0.0549  3.6884  1.1635
 5976TIP3   OH239342   5.529   6.518  16.576  0.1927 -0.0026 -0.0701
 5976TIP3    H139343   5.462   6.566  16.625  0.4344  0.6542 -0.3703
 5976TIP3    H239344   5.489   6.500  16.491  0.0066 -0.5791  0.1322
 5977TIP3   OH239345   6.206   1.982   4.384 -0.3720  0.3147 -0.1271
 5977TIP3    H139346   6.220   1.970   4.290 -1.1669 -0.8353 -0.1189
 5977TIP3    H239347   6.158   2.065   4.391 -1.4413 -0.2140 -0.8570
 5978TIP3   OH239348   5.212   6.321  15.713  0.2373  0.2638 -0.0596
 5978TIP3    H139349   5.305   6.300  15.717  0.5713  1.1061 -2.1326
 5978TIP3    H239350   5.200   6.390  15.778  0.9663 -0.1062  0.4780
 5979TIP3   OH239351   5.642   3.898   4.142 -0.9279  0.3951  0.8230
 5979TIP3    H139352   5.616   3.934   4.227 -0.6767 -0.9722  1.5074
 5979TIP3    H239353   5.696   3.822   4.164 -1.5515 -0.4840 -0.5582
 5980TIP3   OH239354   1.744   1.919  16.016  1.1157 -0.3077  0.3587
 5980TIP3    H139355   1.784   1.889  15.934 -0.3444 -2.3361  0.3193
 5980TIP3    H239356   1.789   1.869  16.084  0.7338 -0.3502  0.5841
 5981TIP3   OH239357   1.538   5.502  16.129 -0.4235 -0.1558  0.3156
 5981TIP3    H139358   1.605   5.505  16.197  0.4888 -3.9455 -0.2356
 5981TIP3    H239359   1.586   5.516  16.047 -0.7858 -0.0948  0.1110
 5982TIP3   OH239360   3.381   2.816  11.234 -0.0321 -0.5855  0.7207
 5982TIP3    H139361   3.423   2.792  11.317 -0.4464  1.0574  1.4584
 5982TIP3    H239362   3.396   2.911  11.226 -0.4042 -0.6274 -0.8584
 5983TIP3   OH239363   3.040   0.414   0.955  0.2812 -0.1187 -0.2488
 5983TIP3    H139364   3.037   0.469   1.034 -0.0068 -0.2820 -0.1448
 5983TIP3    H239365   3.114   0.355   0.970  0.0518 -0.3401  0.0275
 5984TIP3   OH239366   0.936   6.048  12.846 -0.1575 -0.1828 -0.0541
 5984TIP3    H139367   0.991   5.981  12.887  1.8824  1.1649 -0.4671
 5984TIP3    H239368   0.994   6.123  12.832 -1.7903  0.8790 -1.6919
 5985TIP3   OH239369   1.805   1.365   3.835  0.7041 -0.3677  0.2855
 5985TIP3    H139370   1.714   1.345   3.814 -0.4777  3.2979  1.0269
 5985TIP3    H239371   1.818   1.329   3.922 -0.4877  0.0526  0.6646
 5986TIP3   OH239372   6.164   5.726   5.409  0.1761 -0.6925 -0.3255
 5986TIP3    H139373   6.165   5.815   5.446  0.1755 -0.6943 -0.3214
 5986TIP3    H239374   6.080   5.720   5.364  1.1946  0.2175 -2.5305
 5987TIP3   OH239375   6.241   1.016   3.599 -0.0509  0.2760  0.3836
 5987TIP3    H139376   6.218   1.091   3.544 -0.5394 -1.1891 -1.5133
 5987TIP3    H239377   6.336   1.006   3.588 -0.2038 -0.2540 -0.5678
 5988TIP3   OH239378   5.757   2.402   5.200  0.0679 -0.7119 -0.1722
 5988TIP3    H139379   5.686   2.339   5.190  0.8513 -1.5817 -0.4011
 5988TIP3    H239380   5.746   2.462   5.126 -1.9446  0.7457  1.1993
 5989TIP3   OH239381   2.489   2.690   0.917 -0.1784 -0.1087 -0.3976
 5989TIP3    H139382   2.512   2.711   1.008 -0.6037  0.3385 -0.3927
 5989TIP3    H239383   2.454   2.771   0.881  0.9807  0.0345 -1.2926
 5990TIP3   OH239384   2.608   5.558   1.060 -0.4825 -0.2819 -0.6632
 5990TIP3    H139385   2.691   5.605   1.068 -0.0527 -1.2370  1.0682
 5990TIP3    H239386   2.633   5.470   1.033 -1.1368 -0.0288 -2.1881
 5991TIP3   OH239387   3.070   0.693  16.515 -0.5096  0.4871  0.0337
 5991TIP3    H139388   3.032   0.606  16.526  0.0659  0.2082 -0.1364
 5991TIP3    H239389   3.142   0.680  16.454 -0.7824  1.1908 -0.4455
 5992TIP3   OH239390   4.988   2.309   2.857  0.6118 -0.7021 -0.1980
 5992TIP3    H139391   4.923   2.342   2.919 -0.3140  0.2041 -1.6013
 5992TIP3    H239392   4.939   2.289   2.778  2.1177  1.0205 -1.6804
 5993TIP3   OH239393   1.666   4.494   1.829 -0.4487  0.5251 -0.2415
 5993TIP3    H139394   1.608   4.498   1.752  0.1138  0.2922 -0.6865
 5993TIP3    H239395   1.704   4.406   1.825  0.3536  0.8658 -0.2739
 5994TIP3   OH239396   1.775   6.729   2.992  0.3140  0.1563 -1.0483
 5994TIP3    H139397   1.840   6.780   3.039 -0.7732  0.4874  0.1623
 5994TIP3    H239398   1.718   6.694   3.061 -1.7943  1.2887 -2.1490
 5995TIP3   OH239399   4.948   2.752   2.819  0.6126 -0.2248 -0.1971
 5995TIP3    H139400   4.976   2.674   2.772 -0.3884  0.0343 -1.2790
 5995TIP3    H239401   4.984   2.742   2.907  0.9741 -1.6226 -0.4829
 5996TIP3   OH239402   6.349   6.154   4.658  0.4179  0.3517 -0.2399
 5996TIP3    H139403   6.402   6.210   4.601  0.9492 -1.6160 -1.7565
 5996TIP3    H239404   6.299   6.099   4.599 -0.6779 -0.2623  1.2013
 5997TIP3   OH239405   1.670   4.903  16.152 -0.2946  0.1394 -0.0402
 5997TIP3    H139406   1.658   4.943  16.238 -0.8164 -1.0832  0.4801
 5997TIP3    H239407   1.680   4.977  16.092 -2.3531  1.0921  0.7081
 5998TIP3   OH239408   0.483   6.246   4.071  0.1087 -0.4181 -0.5904
 5998TIP3    H139409   0.517   6.305   4.004 -0.2251 -0.6133 -0.9362
 5998TIP3    H239410   0.511   6.159   4.042 -0.2726 -0.5294 -0.6265
 5999TIP3   OH239411   1.171   3.616   6.381  0.5305  0.0303  0.7548
 5999TIP3    H139412   1.195   3.532   6.420  3.3028  1.0273  1.4615
 5999TIP3    H239413   1.124   3.662   6.450 -0.9530 -0.8867  0.3808
 6000TIP3   OH239414   1.219   3.731  12.876  1.2035 -0.1627 -0.3223
 6000TIP3    H139415   1.178   3.753  12.792  0.1890 -0.3836  0.1073
 6000TIP3    H239416   1.245   3.816  12.912 -0.8852  0.2269  0.4029
 6001TIP3   OH239417   4.167   0.930  12.761  0.3675  0.6960 -0.1228
 6001TIP3    H139418   4.159   0.878  12.841  0.3923  0.1906 -0.4457
 6001TIP3    H239419   4.222   1.004  12.786 -1.9896  2.1303  1.1103
 6002TIP3   OH239420   4.064   4.176  13.568  0.2976 -0.2366 -0.2783
 6002TIP3    H139421   3.969   4.171  13.561  0.3130  0.7305 -1.3522
 6002TIP3    H239422   4.088   4.096  13.616 -1.0526 -0.3998  0.1793
 6003TIP3   OH239423   5.798   1.062  11.086  0.3754  0.1359  0.7323
 6003TIP3    H139424   5.784   0.983  11.034  0.3559  0.3454  0.4139
 6003TIP3    H239425   5.716   1.110  11.080  0.2379 -0.0262  1.2906
 6004TIP3   OH239426   4.245   4.949  17.234 -0.0576 -0.0693  0.0211
 6004TIP3    H139427   4.294   4.922  17.311  0.9344 -0.0395 -0.5831
 6004TIP3    H239428   4.235   4.869  17.183 -0.7019 -0.0870  0.1738
 6005TIP3   OH239429   1.063   6.502   5.558  0.8185  0.3309 -0.1682
 6005TIP3    H139430   1.116   6.508   5.478  0.3628  0.4875 -0.4593
 6005TIP3    H239431   1.029   6.590   5.571 -0.1957  0.0050 -0.5474
 6006TIP3   OH239432   5.995   6.116   0.709 -0.0970  0.0178 -0.3428
 6006TIP3    H139433   5.941   6.051   0.753 -0.4433  0.8182  0.4409
 6006TIP3    H239434   6.079   6.113   0.754 -0.2969  0.5000  0.0745
 6007TIP3   OH239435   1.077   4.263   3.390 -0.3626  0.0486  0.1142
 6007TIP3    H139436   1.066   4.205   3.465 -0.9102  1.1017  0.8676
 6007TIP3    H239437   1.040   4.214   3.316  0.0674 -0.9434  0.5444
 6008TIP3   OH239438   4.466   2.203   0.483 -0.7414 -0.2514  0.0836
 6008TIP3    H139439   4.454   2.287   0.438 -1.0964 -0.3194  0.0567
 6008TIP3    H239440   4.429   2.138   0.424  1.2809 -0.6841 -0.8277
 6009TIP3   OH239441   2.152   1.794   4.117 -0.3378  0.3103 -0.7347
 6009TIP3    H139442   2.188   1.713   4.153 -1.1687  0.4192  0.3821
 6009TIP3    H239443   2.217   1.823   4.053 -0.5143 -1.7927 -1.9456
 6010TIP3   OH239444   3.055   1.386  13.615 -0.4274 -0.1370 -1.0797
 6010TIP3    H139445   3.075   1.356  13.703  1.3550 -0.9910 -1.7220
 6010TIP3    H239446   3.133   1.365  13.564 -1.1160  1.0156 -2.7067
 6011TIP3   OH239447   3.001   4.975   5.607  0.6351  0.1304  0.2146
 6011TIP3    H139448   3.047   5.030   5.543  0.9332  1.0538  1.1801
 6011TIP3    H239449   3.065   4.907   5.629 -0.2847 -1.6390 -2.1574
 6012TIP3   OH239450   0.431   5.770  14.675 -0.0827  0.2910 -0.1596
 6012TIP3    H139451   0.520   5.775  14.710  0.2977 -2.9613 -0.3706
 6012TIP3    H239452   0.379   5.825  14.733  1.5861 -0.0004  1.7066
 6013TIP3   OH239453   5.210   5.597  14.818 -0.2770  0.0321  0.3326
 6013TIP3    H139454   5.244   5.598  14.908 -2.1894  0.1956  1.0892
 6013TIP3    H239455   5.129   5.547  14.823 -0.0560 -0.5798 -1.4673
 6014TIP3   OH239456   2.628   2.278   3.147 -0.0823 -0.1367  0.4995
 6014TIP3    H139457   2.661   2.197   3.186 -1.7793 -1.3647 -0.4928
 6014TIP3    H239458   2.706   2.323   3.115  0.9418 -1.0996  1.5611
 6015TIP3   OH239459   1.066   0.717  14.286  0.2555 -0.0113  0.1763
 6015TIP3    H139460   1.095   0.668  14.210  1.5301 -1.1642  1.3471
 6015TIP3    H239461   1.035   0.651  14.348 -3.8475  1.0497 -0.4462
 6016TIP3   OH239462   2.022   5.175  14.019 -0.1684  0.3276 -0.1582
 6016TIP3    H139463   2.048   5.249  14.073 -0.8339  0.0646  0.5393
 6016TIP3    H239464   2.067   5.099  14.057 -0.8408  0.1002  0.2062
 6017TIP3   OH239465   0.443   5.523   3.541 -0.8234 -0.3996  0.0807
 6017TIP3    H139466   0.484   5.474   3.613 -1.6321 -0.0373  0.8138
 6017TIP3    H239467   0.374   5.464   3.509 -0.3752 -0.6154 -0.4978
 6018TIP3   OH239468   6.302   0.054   0.880 -0.5939  0.2467  0.4667
 6018TIP3    H139469   6.221   0.040   0.929 -1.1174  0.2843 -0.3690
 6018TIP3    H239470   6.288   0.136   0.834  0.0003  0.3501  0.4735
 6019TIP3   OH239471   3.593   0.940   4.649 -0.1224  0.5257  0.4294
 6019TIP3    H139472   3.519   0.891   4.615 -0.9683  1.4932  0.8264
 6019TIP3    H239473   3.631   0.882   4.716 -0.4503 -0.0146  0.1543
 6020TIP3   OH239474   5.585   3.444  12.908  0.0928 -0.4562  0.3214
 6020TIP3    H139475   5.605   3.356  12.877 -0.9000 -0.6946  0.3403
 6020TIP3    H239476   5.541   3.431  12.991  0.6753  0.1011  0.7272
 6021TIP3   OH239477   3.142   5.715   4.283  0.0521 -0.0263  0.4640
 6021TIP3    H139478   3.088   5.761   4.347  1.0607  1.0186  0.5933
 6021TIP3    H239479   3.224   5.698   4.329 -0.0394 -1.3488  0.1798
 6022TIP3   OH239480   5.560   4.676   4.404  0.1460 -0.2443 -0.4715
 6022TIP3    H139481   5.608   4.730   4.342 -0.1268  1.9058  1.0663
 6022TIP3    H239482   5.585   4.586   4.383  3.1393  0.6393 -1.1213
 6023TIP3   OH239483   2.647   4.355  16.928  1.0455 -0.1632  0.2127
 6023TIP3    H139484   2.607   4.398  17.004 -1.3120  0.0869 -1.0586
 6023TIP3    H239485   2.682   4.427  16.875 -0.7814  0.0687 -0.7595
 6024TIP3   OH239486   0.087   0.192  12.129 -0.0783  0.2306  0.5994
 6024TIP3    H139487   0.036   0.211  12.051  0.3766  0.3413  0.3228
 6024TIP3    H239488   0.098   0.097  12.128 -2.0292 -0.0519  1.7771
 6025TIP3   OH239489   0.366   6.186   1.537 -1.0841 -0.3127 -0.5263
 6025TIP3    H139490   0.367   6.140   1.454 -1.0649 -0.3698 -0.4946
 6025TIP3    H239491   0.322   6.269   1.518 -2.8515 -1.1175 -0.1815
 6026TIP3   OH239492   6.558   1.842  13.512  0.1872  0.3498 -1.0802
 6026TIP3    H139493   6.604   1.807  13.589  0.7254  3.6915  0.3046
 6026TIP3    H239494   6.539   1.765  13.459  0.0644 -2.1348  2.2119
 6027TIP3   OH239495   1.144   0.511   3.343 -0.1699 -0.9417 -0.1649
 6027TIP3    H139496   1.100   0.441   3.293  2.0160 -2.1010 -0.5712
 6027TIP3    H239497   1.118   0.592   3.299 -1.4181 -1.6240 -0.7360
 6028TIP3   OH239498   3.814   0.388  14.976  0.3264 -0.3278  0.5403
 6028TIP3    H139499   3.754   0.448  14.932  1.3061  0.4722  0.2636
 6028TIP3    H239500   3.823   0.314  14.916  0.6974  0.1883 -0.0399
 6029TIP3   OH239501   6.290   4.792  17.094 -0.3270 -0.3828 -0.1155
 6029TIP3    H139502   6.200   4.819  17.071 -0.2150  1.3456  1.2308
 6029TIP3    H239503   6.337   4.875  17.105  1.4680 -1.2545 -0.7782
 6030TIP3   OH239504   5.804   5.639  13.028  0.0413  0.6444 -0.8369
 6030TIP3    H139505   5.828   5.548  13.042  2.1164  0.9112 -2.1917
 6030TIP3    H239506   5.821   5.654  12.935 -1.6329  2.0583 -0.9719
 6031TIP3   OH239507   0.494   1.860  14.568  0.2160  0.2477  0.3121
 6031TIP3    H139508   0.494   1.770  14.536  0.2746  1.2275 -2.7434
 6031TIP3    H239509   0.581   1.872  14.606  0.1844 -0.9740  0.8156
 6032TIP3   OH239510   3.662   3.809  12.596  0.2103  0.1062  0.4947
 6032TIP3    H139511   3.709   3.842  12.520  0.5829 -1.0032  0.2141
 6032TIP3    H239512   3.715   3.734  12.625 -3.1787 -3.7179 -2.0921
 6033TIP3   OH239513   6.400   3.549  13.149  0.0745  0.8620  0.5982
 6033TIP3    H139514   6.383   3.546  13.055 -2.4638  0.8406  0.9980
 6033TIP3    H239515   6.465   3.481  13.164 -1.3706 -0.9383 -0.8100
 6034TIP3   OH239516   4.017   0.616  14.752  0.1439  0.0601 -0.0455
 6034TIP3    H139517   3.989   0.525  14.753  0.1850 -0.0441 -2.9126
 6034TIP3    H239518   4.111   0.612  14.773  0.8166 -0.9221 -2.8833
 6035TIP3   OH239519   5.644   4.099   3.370 -0.5828 -0.0856  0.0155
 6035TIP3    H139520   5.664   4.189   3.345 -0.2841 -0.1514  0.0229
 6035TIP3    H239521   5.609   4.059   3.290 -0.7421  0.0418  0.0200
 6036TIP3   OH239522   0.261   0.831   5.929  0.4719 -0.6611  0.5727
 6036TIP3    H139523   0.315   0.910   5.925  0.8477 -0.8730  1.2143
 6036TIP3    H239524   0.301   0.779   5.998  2.6985 -3.2306 -2.3449
 6037TIP3   OH239525   5.330   2.179  12.930  0.5537  0.1718 -0.0708
 6037TIP3    H139526   5.253   2.223  12.965 -0.0746 -0.4254 -0.6590
 6037TIP3    H239527   5.347   2.107  12.992 -0.4338 -0.7597 -0.8412
 6038TIP3   OH239528   2.794   1.448  13.589 -0.4858 -0.8266  0.0459
 6038TIP3    H139529   2.889   1.442  13.594 -0.5660 -1.4645  1.0513
 6038TIP3    H239530   2.777   1.536  13.555  0.4293  0.0374  1.7208
 6039TIP3   OH239531   6.421   3.742   3.877 -0.2241  0.2959 -0.0895
 6039TIP3    H139532   6.506   3.786   3.882  0.2938 -0.6601 -0.2964
 6039TIP3    H239533   6.404   3.711   3.966  0.2389 -0.5847 -0.2960
 6040TIP3   OH239534   6.444   2.489   4.515 -0.0943  0.3868  0.1891
 6040TIP3    H139535   6.385   2.563   4.500 -3.6065 -1.7960  1.8319
 6040TIP3    H239536   6.421   2.426   4.447  2.4540  0.4584 -0.8518
 6041TIP3   OH239537   0.499   4.348   3.281 -0.4004  0.3877  0.2951
 6041TIP3    H139538   0.513   4.432   3.326  0.5878  0.2803  0.2118
 6041TIP3    H239539   0.435   4.303   3.336 -1.2612  1.3556  0.1173
 6042TIP3   OH239540   0.612   4.893  16.839  0.8187  0.5402  0.3445
 6042TIP3    H139541   0.695   4.846  16.855 -0.0138 -0.8809  0.6715
 6042TIP3    H239542   0.572   4.845  16.766  1.0010  2.2153 -0.9042
 6043TIP3   OH239543   6.281   1.304  17.245 -0.5881 -0.0196 -0.3312
 6043TIP3    H139544   6.308   1.379  17.298 -2.5979  1.5070 -1.3384
 6043TIP3    H239545   6.266   1.340  17.158 -0.7915 -1.7826 -1.0727
 6044TIP3   OH239546   3.041   5.503  12.915  0.3012  0.1456  0.1988
 6044TIP3    H139547   2.997   5.587  12.899 -1.7249 -0.2766  2.8438
 6044TIP3    H239548   3.113   5.526  12.975  1.0938  0.2382 -0.7612
 6045TIP3   OH239549   0.756   2.561  11.872 -0.2264  0.4138 -0.5275
 6045TIP3    H139550   0.742   2.617  11.948  2.5812  1.0312 -0.3418
 6045TIP3    H239551   0.716   2.609  11.799 -1.1522  0.8111  0.2308
 6046TIP3   OH239552   4.012   2.700   3.672 -0.1305 -0.0336  0.2888
 6046TIP3    H139553   4.060   2.672   3.750  1.2157 -2.1151 -1.1868
 6046TIP3    H239554   4.069   2.676   3.599 -1.3542  1.8144 -1.3771
 6047TIP3   OH239555   4.600   0.356  10.749  0.0727  0.1225 -0.1681
 6047TIP3    H139556   4.539   0.429  10.739  1.4733  1.2148 -1.1013
 6047TIP3    H239557   4.628   0.360  10.840 -1.6761 -0.7837  0.4532
 6048TIP3   OH239558   4.975   3.603   2.734  0.2114 -0.3157  0.3734
 6048TIP3    H139559   4.973   3.699   2.732  2.2265 -0.2497  0.0833
 6048TIP3    H239560   4.888   3.578   2.766  0.5773  1.6690  3.3057
 6049TIP3   OH239561   3.540   6.677   0.197  0.1193 -0.0228 -0.0884
 6049TIP3    H139562   3.524   6.710   0.109 -1.0293 -1.1853 -0.3499
 6049TIP3    H239563   3.513   6.749   0.255 -0.1830  0.3383 -0.6665
 6050TIP3   OH239564   1.457   1.395  13.095 -0.1604  0.3677  0.0760
 6050TIP3    H139565   1.483   1.327  13.158 -1.0583  1.2987  1.5180
 6050TIP3    H239566   1.457   1.351  13.010 -0.0322 -1.2487  0.8764
 6051TIP3   OH239567   6.776   0.590   1.400  0.0637  0.3376 -0.2236
 6051TIP3    H139568   6.868   0.563   1.393 -0.3081 -1.2278  0.4713
 6051TIP3    H239569   6.727   0.514   1.370 -1.0089  1.4856 -1.4602
 6052TIP3   OH239570   0.574   2.726  12.404  0.0577  0.2769  0.0226
 6052TIP3    H139571   0.663   2.732  12.370  0.0693 -0.6491 -0.1285
 6052TIP3    H239572   0.570   2.640  12.447 -0.6170  0.5084  0.4492
 6053TIP3   OH239573   2.123   0.628   2.981  0.0632 -0.0411 -0.2998
 6053TIP3    H139574   2.138   0.548   3.032  0.6858  0.7762  0.8336
 6053TIP3    H239575   2.029   0.644   2.987  0.2153  0.4110  1.1851
 6054TIP3   OH239576   3.711   1.272   4.387 -0.3506 -0.3728  0.1295
 6054TIP3    H139577   3.738   1.202   4.447  0.8015  1.1668  1.4809
 6054TIP3    H239578   3.662   1.333   4.442  0.1754  0.7476 -0.6126
 6055TIP3   OH239579   6.756   1.187  16.212  0.7856  0.5134  0.0442
 6055TIP3    H139580   6.798   1.273  16.208  0.9364  0.4309 -0.1545
 6055TIP3    H239581   6.762   1.162  16.304  0.5868  0.7914  0.1349
 6056TIP3   OH239582   2.336   4.036  14.343  0.5042  0.4811  0.2916
 6056TIP3    H139583   2.267   4.099  14.363  0.1684 -0.0721  0.9329
 6056TIP3    H239584   2.364   4.058  14.254 -0.1968  0.9905  0.1886
 6057TIP3   OH239585   4.082   6.600   2.355 -0.9634  0.1870 -0.3326
 6057TIP3    H139586   4.046   6.662   2.292 -0.2514  2.3957  1.2970
 6057TIP3    H239587   4.125   6.655   2.420  0.1821 -2.0833  0.9420
 6058TIP3   OH239588   0.439   1.066  16.259 -0.3314  0.0704  0.0858
 6058TIP3    H139589   0.364   1.075  16.318 -1.3548 -2.6439 -0.6097
 6058TIP3    H239590   0.399   1.061  16.171  0.3496 -3.2188 -0.1703
 6059TIP3   OH239591   1.902   1.050   6.452 -0.3767 -0.0056  0.5545
 6059TIP3    H139592   1.961   0.992   6.501  0.0921 -0.7430 -0.8418
 6059TIP3    H239593   1.819   1.002   6.448 -0.3529 -0.0345  0.4296
 6060TIP3   OH239594   1.826   3.223   1.536 -0.6617  0.0335  0.2489
 6060TIP3    H139595   1.858   3.204   1.624  1.8048  1.1790 -0.3151
 6060TIP3    H239596   1.841   3.142   1.486 -0.4947 -0.0813  0.4859
 6061TIP3   OH239597   0.705   2.381  16.637 -0.5527  0.1484  0.1246
 6061TIP3    H139598   0.615   2.394  16.665 -1.0873  2.0027 -2.1223
 6061TIP3    H239599   0.758   2.417  16.709 -1.6586  0.6002  0.7395
 6062TIP3   OH239600   6.040   0.758  13.406 -0.0934 -0.4730 -0.1174
 6062TIP3    H139601   6.123   0.805  13.410 -0.0993 -0.4785  0.0969
 6062TIP3    H239602   6.063   0.671  13.373  0.3046 -1.1582  1.8198
 6063TIP3   OH239603   3.890   6.183   1.161  0.4751 -0.5193  0.1152
 6063TIP3    H139604   3.980   6.194   1.189  1.0708 -0.4438 -1.6717
 6063TIP3    H239605   3.867   6.094   1.187  1.1883 -0.6555  0.2861
 6064TIP3   OH239606   1.725   2.625  16.935 -0.0573  0.2393 -0.3391
 6064TIP3    H139607   1.775   2.640  17.015 -0.4920  1.0395 -0.2069
 6064TIP3    H239608   1.746   2.700  16.879  2.0425 -1.4006 -1.9412
 6065TIP3   OH239609   4.101   0.036  14.066 -0.0754  0.2309 -0.2331
 6065TIP3    H139610   4.117   0.114  14.118  1.1508  0.1199 -0.4107
 6065TIP3    H239611   4.012   0.047  14.032 -1.3155 -0.1240  2.5877
 6066TIP3   OH239612   4.026   6.493   5.582 -0.6320  0.5252  0.4298
 6066TIP3    H139613   4.020   6.533   5.669 -0.0305  0.1047  0.6641
 6066TIP3    H239614   3.985   6.407   5.592  0.7724 -0.1392  0.6834
 6067TIP3   OH239615   4.208   1.538   2.889 -0.1174  0.0472  0.6127
 6067TIP3    H139616   4.156   1.608   2.928 -0.5570  0.1522 -0.1606
 6067TIP3    H239617   4.150   1.495   2.826  0.3674 -0.5692  0.5657
 6068TIP3   OH239618   2.332   2.750  15.297  0.1939  0.5675  0.1018
 6068TIP3    H139619   2.237   2.750  15.305  0.1252  2.4584 -0.4203
 6068TIP3    H239620   2.364   2.732  15.386 -0.6131 -1.2801  0.0636
 6069TIP3   OH239621   3.314   4.085   4.440  0.3394  0.6789 -0.1607
 6069TIP3    H139622   3.371   4.008   4.445  0.7479  0.9695 -0.3503
 6069TIP3    H239623   3.345   4.142   4.510  0.2662  0.8322 -0.2546
 6070TIP3   OH239624   6.236   1.303  10.870 -0.2736 -0.3327 -0.2015
 6070TIP3    H139625   6.304   1.237  10.856  0.5024  0.2146  0.8063
 6070TIP3    H239626   6.253   1.370  10.804  0.7843  0.2513  0.6231
 6071TIP3   OH239627   5.957   6.012  13.795  0.0907  0.3190 -0.2942
 6071TIP3    H139628   5.980   6.082  13.856 -0.1413 -1.4483  1.9781
 6071TIP3    H239629   5.864   6.024  13.777 -0.3703 -0.3493  1.4760
 6072TIP3   OH239630   2.815   2.603  12.608  0.2774 -0.0322  0.0312
 6072TIP3    H139631   2.865   2.551  12.671 -1.1178 -0.0910  1.1385
 6072TIP3    H239632   2.815   2.692  12.644 -0.2735 -0.0028 -0.0342
 6073TIP3   OH239633   1.851   6.101   0.357 -0.0703 -0.0160 -0.2138
 6073TIP3    H139634   1.906   6.089   0.280 -1.3614  0.4217 -1.2536
 6073TIP3    H239635   1.882   6.183   0.396  0.9958 -0.5587  0.1177
 6074TIP3   OH239636   0.995   2.957   0.062  0.4539  0.2541  0.2968
 6074TIP3    H139637   0.931   2.988   0.126  0.1062 -0.3713  0.2628
 6074TIP3    H239638   0.977   2.863   0.055  1.8256 -0.0672  0.7969
 6075TIP3   OH239639   4.089   2.247   4.783 -0.6008 -0.7983 -0.0658
 6075TIP3    H139640   4.083   2.302   4.861  0.2752 -1.9541  0.8508
 6075TIP3    H239641   4.180   2.255   4.755 -0.7191 -1.0012 -0.5085
 6076TIP3   OH239642   4.697   2.652  14.792  1.0484 -0.0899 -0.7978
 6076TIP3    H139643   4.732   2.576  14.838  0.5214 -0.4658 -1.0026
 6076TIP3    H239644   4.656   2.615  14.714  1.5793  0.4966 -1.3695
 6077TIP3   OH239645   5.361   4.548  14.440  0.3479 -0.1059 -0.9076
 6077TIP3    H139646   5.327   4.459  14.449 -1.1005  0.5905  1.5256
 6077TIP3    H239647   5.442   4.538  14.390 -0.4571 -2.5839 -1.8839
 6078TIP3   OH239648   6.039   2.381  17.235 -0.3247 -0.3034  0.2456
 6078TIP3    H139649   5.956   2.348  17.202 -0.2717  0.3979 -0.6193
 6078TIP3    H239650   6.103   2.314  17.209 -0.4268 -0.2089 -0.2586
 6079TIP3   OH239651   2.035   6.064   5.655  0.8987 -0.1438 -0.2709
 6079TIP3    H139652   1.961   6.118   5.683  0.0623 -0.6484 -1.4323
 6079TIP3    H239653   2.110   6.124   5.654  0.2222  0.7097 -0.4002
 6080TIP3   OH239654   4.183   1.425  11.277 -0.1986 -0.6856  0.0236
 6080TIP3    H139655   4.185   1.518  11.298 -0.6437 -0.3355 -1.3514
 6080TIP3    H239656   4.122   1.387  11.341  0.1190 -0.0716  0.6997
 6081TIP3   OH239657   1.724   1.667   4.733 -0.0118 -0.0179 -0.1278
 6081TIP3    H139658   1.768   1.647   4.815 -1.4647 -0.6048  0.5504
 6081TIP3    H239659   1.685   1.583   4.706 -3.0573  0.9722  0.8072
 6082TIP3   OH239660   3.753   6.555  12.643 -0.1817 -0.5706  0.3748
 6082TIP3    H139661   3.667   6.517  12.627 -0.7371  0.5442  0.6299
 6082TIP3    H239662   3.795   6.556  12.557 -2.1336  2.9268 -0.7294
 6083TIP3   OH239663   0.209   4.624   1.089 -0.1605  0.3862 -0.2263
 6083TIP3    H139664   0.233   4.680   1.015  1.7652  0.3383  0.3199
 6083TIP3    H239665   0.291   4.607   1.134 -0.8070 -2.1580  0.1543
 6084TIP3   OH239666   1.938   4.070   3.901  0.0633 -0.2308  0.3034
 6084TIP3    H139667   1.875   4.028   3.842  1.7473 -2.1320 -0.2854
 6084TIP3    H239668   1.920   4.032   3.987  0.3954 -0.8033  0.1281
 6085TIP3   OH239669   1.970   3.254   0.438 -0.3842  0.7005  0.2600
 6085TIP3    H139670   1.998   3.333   0.392  0.6374  0.3426  0.2383
 6085TIP3    H239671   1.925   3.286   0.516  1.0859  1.3226  0.8954
 6086TIP3   OH239672   0.500   2.436  14.163 -0.0455  0.4212  0.0795
 6086TIP3    H139673   0.420   2.448  14.111 -1.2220  0.8788  1.8867
 6086TIP3    H239674   0.470   2.389  14.241  1.5497  0.2408  0.6171
 6087TIP3   OH239675   1.621   3.693  13.402  0.2876  0.3579 -0.2396
 6087TIP3    H139676   1.598   3.777  13.363 -0.8002  0.0223 -0.3584
 6087TIP3    H239677   1.626   3.632  13.328  0.9622  0.2934 -0.1442
 6088TIP3   OH239678   6.649   5.563  17.167  0.9376  0.4415  0.3497
 6088TIP3    H139679   6.640   5.521  17.082  0.6420  1.6719 -0.2377
 6088TIP3    H239680   6.632   5.655  17.151 -0.5464  0.5071  1.9831
 6089TIP3   OH239681   0.460   5.311  15.102 -0.2320  0.5395  0.3605
 6089TIP3    H139682   0.519   5.305  15.027 -2.0951 -0.5666 -1.0816
 6089TIP3    H239683   0.444   5.220  15.128 -1.8997  0.7738  0.2171
 6090TIP3   OH239684   1.564   6.180   4.459  0.2174  0.2898 -0.0245
 6090TIP3    H139685   1.567   6.156   4.551 -2.9999 -2.5507 -0.4599
 6090TIP3    H239686   1.489   6.240   4.452  1.0134  1.2462 -0.7233
 6091TIP3   OH239687   5.841   5.548  16.429 -0.0676 -0.1299 -0.1210
 6091TIP3    H139688   5.804   5.474  16.381  0.3413 -0.0074 -0.6338
 6091TIP3    H239689   5.816   5.532  16.520 -0.3065 -0.6991 -0.2814
 6092TIP3   OH239690   4.676   3.057   1.953 -0.4806  0.1136 -0.1998
 6092TIP3    H139691   4.682   2.997   2.028 -3.1240  1.3477  1.1300
 6092TIP3    H239692   4.761   3.101   1.951  0.2429 -1.1293  1.0237
 6093TIP3   OH239693   0.911   0.438  15.654  0.4864 -0.1456 -0.0634
 6093TIP3    H139694   0.879   0.487  15.730  1.3414  0.6438 -0.2052
 6093TIP3    H239695   0.877   0.485  15.578 -0.2534 -0.8570 -0.1870
 6094TIP3   OH239696   3.718   6.719   1.142  0.2320 -0.1159  0.7061
 6094TIP3    H139697   3.748   6.810   1.151 -1.5192  0.6376 -0.5842
 6094TIP3    H239698   3.653   6.709   1.212 -0.3275 -0.0320  0.2014
 6095TIP3   OH239699   0.455   1.294   5.070 -0.2721 -0.1568  0.1611
 6095TIP3    H139700   0.429   1.239   4.996  0.2327  0.5237 -0.5339
 6095TIP3    H239701   0.481   1.231   5.138  1.2466 -0.7989 -0.9547
 6096TIP3   OH239702   5.842   2.637  13.568  0.0380  0.1840  0.4720
 6096TIP3    H139703   5.749   2.645  13.589  0.1111 -2.5704  2.4180
 6096TIP3    H239704   5.845   2.587  13.486 -0.2220 -0.2682  0.7349
 6097TIP3   OH239705   0.289   3.642   0.595 -0.0747  0.3183 -0.4143
 6097TIP3    H139706   0.277   3.553   0.563 -0.8919  0.3044 -0.0928
 6097TIP3    H239707   0.366   3.674   0.548  0.1125 -0.4892 -0.6716
 6098TIP3   OH239708   4.199   3.314  10.605  0.0827 -0.9899 -0.1368
 6098TIP3    H139709   4.245   3.398  10.609 -0.9091 -0.4257 -0.3517
 6098TIP3    H239710   4.268   3.248  10.615  0.8361 -0.1463  0.3011
 6099TIP3   OH239711   6.406   6.538  10.791  0.3306  0.2292  0.3326
 6099TIP3    H139712   6.457   6.585  10.858  0.0835 -0.1899  0.8266
 6099TIP3    H239713   6.315   6.560  10.812  0.1563 -1.1057  1.0797
 6100TIP3   OH239714   4.959   2.486  16.231 -0.1828 -0.9010  0.0940
 6100TIP3    H139715   4.977   2.580  16.232  1.0524 -1.0602 -1.8917
 6100TIP3    H239716   4.947   2.463  16.323  2.1177  0.7254  0.8964
 6101TIP3   OH239717   6.352   0.577  16.823  0.0208 -0.0509  0.2515
 6101TIP3    H139718   6.441   0.557  16.850 -0.0281 -0.0094  0.4446
 6101TIP3    H239719   6.362   0.625  16.741  0.2428  1.2377  1.0056
 6102TIP3   OH239720   2.187   6.549  11.700 -0.0655 -0.6727 -0.1860
 6102TIP3    H139721   2.237   6.628  11.721 -0.3580 -0.5709  0.1503
 6102TIP3    H239722   2.156   6.517  11.785 -0.9023 -0.5018 -0.4150
 6103TIP3   OH239723   1.636   2.212   0.261 -0.2663  0.4419  0.1072
 6103TIP3    H139724   1.637   2.159   0.181  5.3830  0.9480 -0.5238
 6103TIP3    H239725   1.648   2.149   0.332 -0.3496  0.3828  0.0696
 6104TIP3   OH239726   0.778   2.379  14.113 -0.0228 -0.0983  0.2417
 6104TIP3    H139727   0.824   2.424  14.184 -0.4672 -0.5813  0.8455
 6104TIP3    H239728   0.685   2.392  14.133 -0.1875 -1.9490  0.8906
 6105TIP3   OH239729   0.028   0.847  16.406 -0.2756 -0.2578 -0.1197
 6105TIP3    H139730  -0.048   0.841  16.463 -0.9511 -1.0824 -1.0556
 6105TIP3    H239731   0.010   0.783  16.336  0.6520  0.4786 -1.0702
 6106TIP3   OH239732   0.651   4.634   5.350  0.4305 -0.4201  0.2035
 6106TIP3    H139733   0.669   4.610   5.259  0.4837 -0.1970  0.1537
 6106TIP3    H239734   0.731   4.677   5.379  0.4242 -0.5203  0.3652
 6107TIP3   OH239735   4.996   6.224  11.357  0.1782  0.0773 -0.3527
 6107TIP3    H139736   5.007   6.226  11.262 -2.1363  0.5191 -0.6817
 6107TIP3    H239737   4.959   6.138  11.376  0.7527 -0.0614  0.1607
 6108TIP3   OH239738   2.245   5.994  14.942 -0.2860 -0.1716 -0.0935
 6108TIP3    H139739   2.310   5.926  14.961  0.7277  0.5979 -0.7611
 6108TIP3    H239740   2.286   6.050  14.876 -2.0874 -0.3703 -1.4798
 6109TIP3   OH239741   1.423   5.156   1.809  0.2851  0.3691  0.1403
 6109TIP3    H139742   1.490   5.091   1.832  0.2993  0.5179  0.5350
 6109TIP3    H239743   1.370   5.164   1.888  1.1246  1.8661  0.6067
 6110TIP3   OH239744   2.120   1.356   5.715  1.1522 -0.2741 -0.3154
 6110TIP3    H139745   2.091   1.396   5.797  0.8495 -1.9599  0.4359
 6110TIP3    H239746   2.040   1.343   5.665  1.3740  1.0871 -1.0696
 6111TIP3   OH239747   0.684   0.950  14.921 -0.3109  0.1093 -0.1902
 6111TIP3    H139748   0.740   0.913  14.990  0.2894  1.8455  0.2975
 6111TIP3    H239749   0.596   0.919  14.943 -0.0494  0.1999  1.0469
 6112TIP3   OH239750   1.747   2.016  14.583 -0.0411  0.1684 -0.3970
 6112TIP3    H139751   1.785   2.014  14.496 -0.8141  0.5580 -0.7559
 6112TIP3    H239752   1.683   1.944  14.583 -0.1972  0.3047 -0.2283
 6113TIP3   OH239753   1.015   6.502  12.076 -0.1337 -0.1218 -0.0589
 6113TIP3    H139754   1.010   6.410  12.102  1.7577  0.1541  1.5529
 6113TIP3    H239755   0.985   6.551  12.152 -1.9019  0.6400 -1.1821
 6114TIP3   OH239756   2.617   4.717   1.262  0.3889  0.1740  0.0517
 6114TIP3    H139757   2.653   4.788   1.315 -0.6113  0.0276  0.9655
 6114TIP3    H239758   2.619   4.750   1.172  1.3666  0.7400  0.2714
 6115TIP3   OH239759   1.345   4.059  16.880 -0.0231  0.3090  0.1690
 6115TIP3    H139760   1.406   4.034  16.949  0.4402  0.7223 -0.0877
 6115TIP3    H239761   1.266   4.085  16.927  0.8441  2.2062  0.6667
 6116TIP3   OH239762   6.064   4.327  12.701 -0.1940 -0.1647  0.2097
 6116TIP3    H139763   6.126   4.280  12.645 -1.0534 -0.2041 -0.7372
 6116TIP3    H239764   5.983   4.277  12.695 -1.4165  1.8583 -1.5608
 6117TIP3   OH239765   1.389   2.763   3.639  0.4618 -0.3700  0.3059
 6117TIP3    H139766   1.387   2.858   3.653  2.5724 -0.4178  1.3624
 6117TIP3    H239767   1.474   2.748   3.597 -0.1442 -1.7406 -0.4794
 6118TIP3   OH239768   4.100   3.767   2.856 -0.2402  0.1043  0.5403
 6118TIP3    H139769   4.178   3.805   2.895  0.2470 -1.5125  1.2350
 6118TIP3    H239770   4.086   3.686   2.905 -1.5774 -0.3043 -0.4595
 6119TIP3   OH239771   5.414   3.389   1.686  0.2825  0.3554  0.1432
 6119TIP3    H139772   5.416   3.330   1.762 -2.2574 -1.5863 -1.1400
 6119TIP3    H239773   5.470   3.347   1.621  0.7877  0.9159  0.2078
 6120TIP3   OH239774   1.801   6.732   4.918 -0.2687 -0.8763  0.1760
 6120TIP3    H139775   1.768   6.647   4.948  1.3366 -0.3921  3.7701
 6120TIP3    H239776   1.746   6.796   4.963 -0.5913  0.0688 -1.4667
 6121TIP3   OH239777   5.091   6.664  13.167  0.3321 -0.2356  0.0725
 6121TIP3    H139778   5.089   6.572  13.192  0.1550 -0.2619 -0.0350
 6121TIP3    H239779   5.006   6.679  13.124  0.1516  0.1046  0.5371
 6122TIP3   OH239780   6.205   5.807   6.213 -0.5269 -0.6413 -0.3286
 6122TIP3    H139781   6.214   5.880   6.275  0.7650  0.0909 -1.3312
 6122TIP3    H239782   6.119   5.771   6.231 -1.3281  1.3225  0.0112
 6123TIP3   OH239783   4.169   6.628  12.599 -0.1539 -0.8232  0.0080
 6123TIP3    H139784   4.133   6.545  12.567 -1.3708 -0.8474  1.3198
 6123TIP3    H239785   4.255   6.605  12.634  0.0968 -1.2590 -0.8588
 6124TIP3   OH239786   1.595   4.572  11.422  0.1828  0.4899  0.3243
 6124TIP3    H139787   1.588   4.483  11.387 -0.2699  0.1556  1.2333
 6124TIP3    H239788   1.514   4.585  11.472  0.8952  0.8558  1.4306
 6125TIP3   OH239789   5.259   1.696  14.936 -0.1795 -0.0616 -0.3851
 6125TIP3    H139790   5.275   1.667  15.026 -0.8591 -0.6977 -0.4625
 6125TIP3    H239791   5.291   1.786  14.934  1.7955 -0.7082 -0.0844
 6126TIP3   OH239792   1.405   1.551  12.781 -0.3584 -0.1474 -0.2479
 6126TIP3    H139793   1.485   1.514  12.819 -0.8954 -1.0012  0.0914
 6126TIP3    H239794   1.400   1.639  12.817 -0.4799 -0.6945  1.1550
 6127TIP3   OH239795   6.126   5.301  15.516  0.1470  0.4134  0.0614
 6127TIP3    H139796   6.081   5.232  15.466  1.3057  1.0935 -2.0591
 6127TIP3    H239797   6.181   5.254  15.578 -1.3764 -0.4686  0.7971
 6128TIP3   OH239798   5.074   6.614   1.965 -0.7674 -0.4836  0.0779
 6128TIP3    H139799   5.036   6.537   2.007  0.6679 -0.7828  0.9217
 6128TIP3    H239800   5.078   6.591   1.872 -3.4005 -0.0665 -0.2204
 6129TIP3   OH239801   4.849   6.445  17.000  0.8920 -0.3063 -0.1214
 6129TIP3    H139802   4.876   6.488  17.081 -0.6896  1.0475 -0.2635
 6129TIP3    H239803   4.786   6.379  17.029 -0.4422  0.8546 -0.2895
 6130TIP3   OH239804   2.181   5.242   4.680  0.2513  0.5082 -0.1679
 6130TIP3    H139805   2.154   5.327   4.647 -1.4163 -0.4082 -1.2566
 6130TIP3    H239806   2.170   5.249   4.775 -2.3946  0.7330 -0.4152
 6131TIP3   OH239807   5.413   6.010   1.067  0.0864 -0.1372  0.0617
 6131TIP3    H139808   5.415   5.978   0.976 -0.1076  1.5617 -0.5850
 6131TIP3    H239809   5.505   6.024   1.088  0.1621 -0.9156  0.2949
 6132TIP3   OH239810   1.558   1.020   5.760 -0.0605  0.2863  0.1812
 6132TIP3    H139811   1.571   0.933   5.798 -0.0271  0.1032 -0.2387
 6132TIP3    H239812   1.618   1.022   5.685 -1.5205 -0.0987 -1.0442
 6133TIP3   OH239813   3.049   4.018  13.090  0.3754 -0.9309  0.3370
 6133TIP3    H139814   3.032   3.925  13.103  1.5577 -1.4095 -1.2101
 6133TIP3    H239815   3.143   4.028  13.101  0.3972 -0.1122 -0.4360
 6134TIP3   OH239816   3.257   0.904   2.994  0.0793  0.1500  0.1342
 6134TIP3    H139817   3.190   0.961   2.955 -0.7428  0.2295  1.5882
 6134TIP3    H239818   3.340   0.939   2.962 -0.5096  0.8493 -0.6837
 6135TIP3   OH239819   1.651   4.991   0.632  0.4162 -0.7608 -0.1185
 6135TIP3    H139820   1.704   4.969   0.708 -0.8119 -1.3037  0.6164
 6135TIP3    H239821   1.690   5.070   0.596 -0.2946  0.8379  2.4321
 6136TIP3   OH239822   2.415   2.695  15.547  0.4989  0.2232  0.0405
 6136TIP3    H139823   2.352   2.741  15.602 -1.8750  0.4694 -2.6218
 6136TIP3    H239824   2.445   2.621  15.600 -1.1750  0.7448  1.8272
 6137TIP3   OH239825   5.909   4.260   0.463  0.3946 -0.1306 -0.2225
 6137TIP3    H139826   5.891   4.303   0.379  2.1244 -2.4943 -1.9564
 6137TIP3    H239827   5.965   4.322   0.509  1.0462  0.4421 -1.7005
 6138TIP3   OH239828   4.332   2.163   3.546  0.1672  0.1077 -0.6578
 6138TIP3    H139829   4.272   2.132   3.614  0.2136 -1.9125 -1.4691
 6138TIP3    H239830   4.296   2.248   3.520 -0.4731  0.4125  1.0928
 6139TIP3   OH239831   6.232   3.108  15.809 -0.4078 -1.2223 -0.1366
 6139TIP3    H139832   6.295   3.049  15.768  0.6942  0.0800 -0.4074
 6139TIP3    H239833   6.224   3.076  15.899  0.5637 -1.5050 -0.1361
 6140TIP3   OH239834   0.547   2.322   3.245 -0.1824  0.2500 -0.0902
 6140TIP3    H139835   0.555   2.417   3.259 -1.0967  0.4637 -0.9419
 6140TIP3    H239836   0.636   2.294   3.225 -0.2588  1.3724 -2.3427
 6141TIP3   OH239837   0.956   0.285  12.641 -0.0245 -0.4943 -0.2509
 6141TIP3    H139838   0.898   0.356  12.667  0.3428  0.1406 -1.0938
 6141TIP3    H239839   0.897   0.213  12.619 -0.5668  0.2883 -1.5424
 6142TIP3   OH239840   3.572   2.554   4.381 -0.2648 -0.3271  0.0762
 6142TIP3    H139841   3.561   2.622   4.315  3.2192 -0.7997 -1.2019
 6142TIP3    H239842   3.644   2.586   4.437 -0.1588 -1.8998  0.9002
 6143TIP3   OH239843   5.783   2.258   2.973  0.8979  0.4612  0.5774
 6143TIP3    H139844   5.833   2.335   2.947 -0.0488  0.9190  0.0639
 6143TIP3    H239845   5.730   2.286   3.048  0.4753  0.3525  0.3269
 6144TIP3   OH239846   2.189   5.395   3.057 -0.6059  0.1581  0.3400
 6144TIP3    H139847   2.117   5.430   3.109 -2.0712 -1.5951 -0.4033
 6144TIP3    H239848   2.193   5.302   3.080  2.1669  0.3877  1.1504
 6145TIP3   OH239849   5.387   2.252   0.227 -0.3889  0.0124 -0.0615
 6145TIP3    H139850   5.379   2.245   0.132 -1.3003 -1.0659  0.0729
 6145TIP3    H239851   5.297   2.244   0.259 -0.1802  1.1228  0.8561
 6146TIP3   OH239852   2.131   6.089  12.861 -0.4637 -0.3523  0.6171
 6146TIP3    H139853   2.060   6.025  12.861  1.4827 -2.6636  0.4872
 6146TIP3    H239854   2.207   6.040  12.894  0.7571  2.3965  2.1591
 6147TIP3   OH239855   4.708   3.876   4.684  0.3846  0.2081  0.2376
 6147TIP3    H139856   4.614   3.884   4.695  0.0951 -2.3431  0.2452
 6147TIP3    H239857   4.722   3.876   4.590  0.1172 -1.1541  0.1687
 6148TIP3   OH239858   4.073   2.003  17.137  0.2934  0.5823 -0.4643
 6148TIP3    H139859   4.083   1.930  17.075 -0.5915  0.5082 -0.5217
 6148TIP3    H239860   4.132   1.981  17.209  0.6951  0.2467 -0.8879
 6149TIP3   OH239861   3.340   4.570  14.677  1.0493 -0.3644 -0.9417
 6149TIP3    H139862   3.322   4.537  14.765  0.4976 -0.3065 -1.0313
 6149TIP3    H239863   3.435   4.572  14.672  1.1664  1.9603  0.5423
 6150TIP3   OH239864   3.246   2.570  12.620 -0.6786 -0.1341  0.1986
 6150TIP3    H139865   3.254   2.654  12.664  0.8018  1.3591 -2.6793
 6150TIP3    H239866   3.328   2.524  12.640 -0.1290  0.4279 -0.6950
 6151TIP3   OH239867   4.264   5.689  16.448  0.0718 -0.1211  0.3721
 6151TIP3    H139868   4.238   5.733  16.529  1.3471  0.7838  0.3254
 6151TIP3    H239869   4.215   5.607  16.448  0.1084 -0.1750  2.0992
 6152TIP3   OH239870   2.888   4.396  14.706  0.3670  0.0424  0.1786
 6152TIP3    H139871   2.894   4.492  14.697  1.6132  0.1256  1.4741
 6152TIP3    H239872   2.959   4.363  14.651 -0.3461 -0.1832 -0.6253
 6153TIP3   OH239873   3.084   2.297   1.800  0.5460  0.2092  0.1113
 6153TIP3    H139874   3.042   2.374   1.762  1.8025  1.7981  1.6990
 6153TIP3    H239875   3.023   2.226   1.786 -1.1207  1.7043 -0.5773
 6154TIP3   OH239876   5.538   2.917   4.060  0.3980 -0.2746  0.2672
 6154TIP3    H139877   5.453   2.960   4.046  1.0889  1.0586  0.0007
 6154TIP3    H239878   5.597   2.961   3.999  1.5974 -0.2313  1.4296
 6155TIP3   OH239879   4.135   6.761   0.390 -0.4060 -0.6364  0.0913
 6155TIP3    H139880   4.223   6.767   0.352 -0.9800 -1.2439 -1.3831
 6155TIP3    H239881   4.138   6.821   0.464  0.9626  0.1086 -0.5184
 6156TIP3   OH239882   4.046   3.533  12.593 -0.2153  0.4367  0.6523
 6156TIP3    H139883   4.078   3.574  12.673 -0.1889 -0.7197  1.2604
 6156TIP3    H239884   4.118   3.543  12.530  0.2347  0.3267  1.1440
 6157TIP3   OH239885   5.712   3.603  11.172 -0.0526 -0.1681  0.0486
 6157TIP3    H139886   5.698   3.516  11.210 -2.1870  0.0959 -0.0491
 6157TIP3    H239887   5.630   3.624  11.128  0.7522  1.5255 -0.7400
 6158TIP3   OH239888   0.533   1.624  14.422 -0.1394  0.0052  0.2835
 6158TIP3    H139889   0.629   1.627  14.421 -0.1642  0.7596 -0.2690
 6158TIP3    H239890   0.508   1.625  14.330 -0.5942 -4.9968  0.0714
 6159TIP3   OH239891   3.219   1.034  14.390  0.3220 -0.0472 -0.4134
 6159TIP3    H139892   3.210   0.996  14.478 -1.6314  0.0030 -0.5502
 6159TIP3    H239893   3.174   0.971  14.332 -1.7932  1.7212 -0.8215
 6160TIP3   OH239894   6.409   6.204   0.657 -0.7499 -0.1196 -0.1737
 6160TIP3    H139895   6.431   6.211   0.750 -0.5841  0.1455 -0.2328
 6160TIP3    H239896   6.341   6.270   0.643  0.1677  0.7687 -0.5289
 6161TIP3   OH239897   5.872   4.330   4.384  0.3393 -0.2761  0.0042
 6161TIP3    H139898   5.957   4.289   4.363  0.0881 -1.4415  1.1032
 6161TIP3    H239899   5.810   4.257   4.384 -0.8310  0.6754 -1.5102
 6162TIP3   OH239900   3.635   2.307  14.492  0.6821 -0.1121  0.0065
 6162TIP3    H139901   3.545   2.331  14.513  0.3764  1.9839 -3.0622
 6162TIP3    H239902   3.688   2.373  14.537  0.1716  2.7634 -3.1563
 6163TIP3   OH239903   1.365   3.846  15.405 -0.4884  0.8400  0.3228
 6163TIP3    H139904   1.387   3.866  15.314 -0.8603  3.0684  0.6692
 6163TIP3    H239905   1.424   3.774  15.428 -0.5554  0.0499 -1.7211
 6164TIP3   OH239906   4.992   1.040   1.977  0.8654 -0.4647 -0.4712
 6164TIP3    H139907   5.069   1.003   1.933  1.9363  0.2219  0.7615
 6164TIP3    H239908   5.025   1.115   2.026 -0.1869 -1.3235  1.7079
 6165TIP3   OH239909   0.687   4.064  15.448  0.4335  0.0106 -0.3253
 6165TIP3    H139910   0.757   4.018  15.400  1.0084 -0.1250  0.6166
 6165TIP3    H239911   0.606   4.034  15.406  0.9451  0.8396 -2.0258
 6166TIP3   OH239912   0.776   6.094  15.139 -0.2717 -0.2494 -0.1266
 6166TIP3    H139913   0.762   6.009  15.181  0.7963  0.7140  2.3983
 6166TIP3    H239914   0.868   6.114  15.154 -0.5268  1.4220 -0.5298
 6167TIP3   OH239915   5.945   5.340  16.148  0.5270 -0.0572 -0.2624
 6167TIP3    H139916   6.031   5.325  16.188  0.4376 -0.7168 -0.2971
 6167TIP3    H239917   5.960   5.406  16.081  1.1163 -0.5457 -0.6204
 6168TIP3   OH239918   6.528   5.358   0.618 -0.3142  0.4862 -0.2332
 6168TIP3    H139919   6.598   5.310   0.574 -0.8066  1.1634 -1.8461
 6168TIP3    H239920   6.549   5.450   0.602 -0.9052  0.7248  0.3300
 6169TIP3   OH239921   0.136   2.557   1.556 -0.2837 -0.2530  0.5658
 6169TIP3    H139922   0.227   2.541   1.582 -0.4841 -0.6937  1.0069
 6169TIP3    H239923   0.129   2.516   1.470  0.1709  0.5498  0.1272
 6170TIP3   OH239924   1.710   0.137   6.030 -0.2405  0.3960  0.1900
 6170TIP3    H139925   1.768   0.062   6.014 -1.5554 -0.3628 -1.4500
 6170TIP3    H239926   1.709   0.184   5.947 -0.3028  1.6146  0.8708
 6171TIP3   OH239927   3.320   4.749  14.278 -0.2804  0.5648  0.1790
 6171TIP3    H139928   3.365   4.671  14.310  1.8777  2.0647  1.0088
 6171TIP3    H239929   3.275   4.719  14.199  2.7940 -0.9478 -1.1902
 6172TIP3   OH239930   5.243   4.256  13.115  0.1187  0.5920  0.3749
 6172TIP3    H139931   5.334   4.273  13.135  0.4259 -0.3828 -0.1292
 6172TIP3    H239932   5.240   4.250  13.019 -0.2829 -0.3378  0.4351
 6173TIP3   OH239933   3.699   2.421  14.757  0.0239 -0.0997 -0.0675
 6173TIP3    H139934   3.697   2.499  14.703  1.5060  0.6339  0.8575
 6173TIP3    H239935   3.787   2.420  14.795  0.5069 -2.8965 -1.0094
 6174TIP3   OH239936   3.808   5.331   3.324  0.2931 -0.3817  0.7156
 6174TIP3    H139937   3.848   5.369   3.245  0.7426 -1.0647  0.6084
 6174TIP3    H239938   3.876   5.275   3.361 -0.0959 -0.4693  1.3130
 6175TIP3   OH239939   0.724   6.297   1.360 -0.0039  0.7875 -0.2292
 6175TIP3    H139940   0.808   6.309   1.315 -1.4062  0.6113 -3.1825
 6175TIP3    H239941   0.716   6.202   1.370 -0.0618  0.7701 -0.4284
 6176TIP3   OH239942   4.869   2.827   2.564 -0.5727  0.0169 -0.2119
 6176TIP3    H139943   4.949   2.878   2.560  0.2462 -1.0181  1.7943
 6176TIP3    H239944   4.868   2.790   2.652 -2.1020 -1.8523 -0.9409
 6177TIP3   OH239945   5.753   0.142   4.850  0.1301  0.6953 -0.0290
 6177TIP3    H139946   5.683   0.173   4.793  0.3445 -1.3638 -1.5248
 6177TIP3    H239947   5.729   0.052   4.871  0.9968  0.8255  1.6701
 6178TIP3   OH239948   0.164   4.539  16.343 -0.3655  0.6456 -0.4489
 6178TIP3    H139949   0.098   4.469  16.343 -0.3739  0.6436 -1.1380
 6178TIP3    H239950   0.115   4.618  16.369 -0.4508  0.4857 -0.1142
 6179TIP3   OH239951   6.191   0.993  12.336 -0.1190  0.8912  0.0935
 6179TIP3    H139952   6.096   0.989  12.331 -0.2275  0.8991  1.7148
 6179TIP3    H239953   6.214   1.078  12.298 -0.4752 -0.2904 -3.0396
 6180TIP3   OH239954   2.627   5.273   0.284  0.3643  0.1491 -0.1416
 6180TIP3    H139955   2.698   5.322   0.325 -0.1713  1.6514 -0.9120
 6180TIP3    H239956   2.603   5.325   0.207 -1.2812 -0.5303 -0.1400
 6181TIP3   OH239957   3.143   0.901  13.739 -0.0798  0.3354 -0.9152
 6181TIP3    H139958   3.082   0.845  13.788 -0.0017  0.0727 -1.1160
 6181TIP3    H239959   3.222   0.903  13.793 -0.2019  0.5338 -0.7402
 6182TIP3   OH239960   5.816   2.552  11.649 -0.2081  0.4002 -0.1296
 6182TIP3    H139961   5.819   2.502  11.567 -1.2953  2.4551 -1.5142
 6182TIP3    H239962   5.722   2.563  11.666  0.0163  0.5954  1.0403
 6183TIP3   OH239963   6.339   3.792   3.614  0.2421 -0.3407 -0.1352
 6183TIP3    H139964   6.268   3.851   3.637 -0.8272 -1.7449  0.2867
 6183TIP3    H239965   6.374   3.762   3.698 -0.2501 -1.4779 -0.3177
 6184TIP3   OH239966   5.313   5.143  12.695 -0.4650  0.3071  0.2443
 6184TIP3    H139967   5.274   5.225  12.725  0.5016  0.9974 -0.3177
 6184TIP3    H239968   5.326   5.156  12.601 -1.3191 -0.9314 -0.0786
 6185TIP3   OH239969   3.705   3.538  13.761  0.7404 -0.1764  0.3363
 6185TIP3    H139970   3.636   3.475  13.742 -0.2941  0.8836  0.4207
 6185TIP3    H239971   3.764   3.492  13.820 -0.1074 -0.9912  0.5754
 6186TIP3   OH239972   0.782   2.232   2.958  0.0242 -0.0965  0.3519
 6186TIP3    H139973   0.695   2.270   2.951  0.1136  0.5255  2.1697
 6186TIP3    H239974   0.767   2.137   2.965 -0.4179 -0.0902 -0.4294
 6187TIP3   OH239975   3.529   4.535   0.160 -0.0393 -0.0045 -0.2072
 6187TIP3    H139976   3.469   4.604   0.188  1.3472  1.3451 -0.4209
 6187TIP3    H239977   3.591   4.526   0.232 -0.6919 -1.7025  0.2017
 6188TIP3   OH239978   5.813   3.211  12.442 -0.0266  0.0603 -0.0752
 6188TIP3    H139979   5.776   3.232  12.528  1.1035  0.0478  0.4275
 6188TIP3    H239980   5.852   3.293  12.412  2.2694 -0.6063  0.8191
 6189TIP3   OH239981   5.321   5.427  11.898 -0.0312  0.2806  0.1811
 6189TIP3    H139982   5.300   5.401  11.808 -0.0817  1.7427 -0.2643
 6189TIP3    H239983   5.323   5.345  11.947  1.5624 -0.7382 -1.4616
 6190TIP3   OH239984   0.519   5.773   0.016  0.6693 -0.3652  0.3399
 6190TIP3    H139985   0.540   5.681   0.027 -1.9563 -0.7979  2.7957
 6190TIP3    H239986   0.566   5.818   0.086  0.8866 -0.0369 -0.0142
 6191TIP3   OH239987   2.113   2.401   6.373 -0.5202 -1.1682  0.4586
 6191TIP3    H139988   2.184   2.367   6.318  0.5354 -0.1438  1.1266
 6191TIP3    H239989   2.144   2.487   6.401 -1.2157 -1.4723  2.2885
 6192TIP3   OH239990   6.315   3.608   3.397 -0.0129  0.1985  0.0784
 6192TIP3    H139991   6.402   3.622   3.360 -1.1441  3.4293 -1.7038
 6192TIP3    H239992   6.311   3.666   3.473 -0.4777 -0.3292  0.4714
 6193TIP3   OH239993   5.569   4.415   5.490 -0.0529 -0.3366  0.2290
 6193TIP3    H139994   5.533   4.497   5.456 -0.1127 -0.0959  0.8773
 6193TIP3    H239995   5.655   4.407   5.449 -0.4969 -0.5139 -0.7044
 6194TIP3   OH239996   0.583   2.717   1.001 -0.0237 -0.0452 -0.2840
 6194TIP3    H139997   0.665   2.674   1.026 -1.5214 -1.3683  3.0240
 6194TIP3    H239998   0.589   2.804   1.039  0.1164  0.1325 -0.7038
 6195TIP3   OH239999   6.499   4.623   4.922 -0.6549  0.0951 -0.8301
 6195TIP3    H140000   6.573   4.671   4.959 -0.1243 -1.2382 -0.0768
 6195TIP3    H240001   6.459   4.683   4.860  0.7036  1.0579 -0.7961
 6196TIP3   OH240002   4.334   4.049  16.627  0.0811  0.1510  0.0712
 6196TIP3    H140003   4.241   4.069  16.635 -0.0330 -0.6115  0.7808
 6196TIP3    H240004   4.374   4.089  16.704  0.4230  0.8491 -0.4485
 6197TIP3   OH240005   5.479   4.182   1.486  0.0047 -0.2555 -0.3088
 6197TIP3    H140006   5.518   4.257   1.529  1.1962 -1.7181  1.2482
 6197TIP3    H240007   5.395   4.170   1.530 -0.2460  0.1926 -0.6450
 6198TIP3   OH240008   0.429   1.792   1.502 -0.7065  1.0327 -0.2013
 6198TIP3    H140009   0.407   1.844   1.579 -0.4104  0.7827  0.0517
 6198TIP3    H240010   0.497   1.732   1.531 -2.9720 -1.5079  0.3104
 6199TIP3   OH240011   5.645   5.382  12.815  0.8081  0.3725 -0.5739
 6199TIP3    H140012   5.733   5.393  12.849  0.3618  0.4043  0.6059
 6199TIP3    H240013   5.611   5.471  12.807  0.1776  0.2891  0.9248
 6200TIP3   OH240014   5.641   0.121   0.684  0.3100  0.2042  0.1842
 6200TIP3    H140015   5.641   0.215   0.668  1.7750  0.3973  1.1331
 6200TIP3    H240016   5.733   0.099   0.699  0.2863 -1.7581 -2.0200
 6201TIP3   OH240017   4.142   6.462  11.285 -0.0205  0.2126  0.2366
 6201TIP3    H140018   4.189   6.505  11.214 -0.6435 -0.8859 -0.8748
 6201TIP3    H240019   4.066   6.518  11.302 -0.7081 -0.2941 -1.0440
 6202TIP3   OH240020   2.595   1.559   3.591  0.6992  0.3276 -0.1453
 6202TIP3    H140021   2.594   1.655   3.589  1.5991  0.4276 -3.9895
 6202TIP3    H240022   2.594   1.533   3.499 -1.8899 -3.4747  0.7013
 6203TIP3   OH240023   6.096   2.786  13.037 -0.3625 -0.0292 -0.4218
 6203TIP3    H140024   6.149   2.714  13.070 -2.0722 -1.6290 -0.9765
 6203TIP3    H240025   6.066   2.832  13.116 -0.2818 -0.7199  0.0197
 6204TIP3   OH240026   4.081   0.161  11.462  0.4530  0.5680 -0.1356
 6204TIP3    H140027   4.058   0.236  11.517 -0.9368 -0.6370  1.0111
 6204TIP3    H240028   4.013   0.157  11.396  1.6329  1.4716 -1.4704
 6205TIP3   OH240029   2.689   6.755   3.690 -0.0233 -0.5296 -0.1759
 6205TIP3    H140030   2.617   6.782   3.632 -0.2651 -1.1361 -0.1726
 6205TIP3    H240031   2.695   6.660   3.677  0.4550 -0.5528  0.1946
 6206TIP3   OH240032   1.191   4.290  15.855  0.3655 -0.4496  0.0251
 6206TIP3    H140033   1.222   4.332  15.935  0.2802 -2.1881  1.0162
 6206TIP3    H240034   1.122   4.348  15.822  1.4616  1.0817  0.3241
 6207TIP3   OH240035   2.233   5.959   0.319 -0.7055 -0.2546 -0.3315
 6207TIP3    H140036   2.202   6.031   0.373  0.4253 -0.0367  0.0528
 6207TIP3    H240037   2.281   6.002   0.248 -1.8109 -0.5560 -1.2981
 6208TIP3   OH240038   4.685   1.311  11.005  1.1475  0.8410  0.4640
 6208TIP3    H140039   4.780   1.327  11.008  1.1159  1.0465  0.3604
 6208TIP3    H240040   4.674   1.247  10.935  1.0174  2.2301 -0.8528
 6209TIP3   OH240041   3.527   4.503   2.545 -0.7287 -0.1389  0.4316
 6209TIP3    H140042   3.525   4.469   2.456  0.1492  0.5814  0.1315
 6209TIP3    H240043   3.459   4.452   2.591 -1.6899 -0.0279 -0.8048
 6210TIP3   OH240044   4.561   2.041   4.397 -0.2611 -0.1324  0.8160
 6210TIP3    H140045   4.603   2.103   4.457  0.7138 -0.8963  0.9408
 6210TIP3    H240046   4.632   1.986   4.365 -1.3457 -2.5681  2.3306
 6211TIP3   OH240047   2.751   0.170   0.014 -0.0515  0.4380 -0.1518
 6211TIP3    H140048   2.759   0.234   0.085 -0.1611 -0.2921  0.5289
 6211TIP3    H240049   2.839   0.162  -0.021  0.3288 -0.3559  0.9382
 6212TIP3   OH240050   4.998   0.790   1.271 -0.5352  0.3279 -0.2926
 6212TIP3    H140051   5.030   0.774   1.360  1.4323  0.7468 -0.8835
 6212TIP3    H240052   5.046   0.866   1.240 -3.7788  2.5068 -0.5102
 6213TIP3   OH240053   6.389   5.232  10.313  0.4397  0.0486 -0.1718
 6213TIP3    H140054   6.421   5.304  10.368  0.9597 -1.1883  1.1823
 6213TIP3    H240055   6.330   5.275  10.251 -0.9066  1.4184  1.9169
 6214TIP3   OH240056   1.028   2.609  13.265  0.3002 -0.6030 -0.5523
 6214TIP3    H140057   1.120   2.608  13.240  0.9097  2.5012  1.0465
 6214TIP3    H240058   1.029   2.580  13.357  0.1938  1.9388  0.3564
 6215TIP3   OH240059   2.402   3.499  11.640 -0.0950  0.1132  0.0693
 6215TIP3    H140060   2.408   3.530  11.730  0.4921  0.2229 -0.0023
 6215TIP3    H240061   2.403   3.578  11.586 -0.0884  0.0346 -0.0479
 6216TIP3   OH240062   5.721   0.039  15.414  0.4164  0.6440 -0.0684
 6216TIP3    H140063   5.700  -0.030  15.351  1.3385  0.5959 -0.3354
 6216TIP3    H240064   5.648   0.101  15.407  0.5890  0.7321 -1.3195
 6217TIP3   OH240065   0.308   6.201  11.965  0.1113  0.5120  0.2719
 6217TIP3    H140066   0.229   6.247  11.938 -0.2677 -0.1943  0.1749
 6217TIP3    H240067   0.299   6.192  12.060 -1.4148 -2.2403 -0.0341
 6218TIP3   OH240068   3.802   5.051  17.028 -0.3030  0.0656 -0.0582
 6218TIP3    H140069   3.847   4.968  17.043  0.2323  0.6414  1.8053
 6218TIP3    H240070   3.811   5.098  17.110 -2.6090  1.0465 -0.2883
 6219TIP3   OH240071   3.874   2.848   0.948 -0.2311 -0.0253 -0.4839
 6219TIP3    H140072   3.876   2.938   0.981 -1.4379 -0.6706  1.5528
 6219TIP3    H240073   3.962   2.814   0.965  0.2930  0.7855 -1.4410
 6220TIP3   OH240074   1.175   6.372  15.661 -0.4183  0.1172 -0.2917
 6220TIP3    H140075   1.180   6.448  15.603 -1.5038  2.0213  1.9520
 6220TIP3    H240076   1.156   6.409  15.747  1.0425 -2.5807  1.3092
 6221TIP3   OH240077   1.628   3.245  13.184  0.2704  0.0245 -0.2598
 6221TIP3    H140078   1.597   3.288  13.104  0.4392  0.7059  0.0390
 6221TIP3    H240079   1.592   3.157  13.179  0.8794 -0.1827 -1.4579
 6222TIP3   OH240080   2.731   4.679   3.203  0.0803 -0.3566 -0.0270
 6222TIP3    H140081   2.798   4.673   3.271  0.8759  0.4418 -0.7270
 6222TIP3    H240082   2.724   4.590   3.168 -1.0561 -1.0227  1.7360
 6223TIP3   OH240083   2.640   1.135  13.372 -0.5822  0.0708 -0.0837
 6223TIP3    H140084   2.664   1.131  13.465 -0.6042  0.3842 -0.0626
 6223TIP3    H240085   2.641   1.229  13.351 -1.4792  0.0758 -0.1644
 6224TIP3   OH240086   1.861   5.127   0.933  0.0275  0.0931 -0.2213
 6224TIP3    H140087   1.954   5.142   0.917 -0.2391  1.3347 -0.7286
 6224TIP3    H240088   1.818   5.205   0.898 -1.0797  0.2394  1.3459
 6225TIP3   OH240089   3.667   6.104  15.032 -0.2675 -0.1473  0.5188
 6225TIP3    H140090   3.583   6.142  15.058  0.5470  0.8174  1.8612
 6225TIP3    H240091   3.679   6.030  15.092  0.0942  0.0658  0.7139
 6226TIP3   OH240092   5.021   1.207  13.052 -0.7525 -0.4702  0.1635
 6226TIP3    H140093   5.109   1.228  13.084 -1.0050  0.4186  0.3201
 6226TIP3    H240094   5.025   1.222  12.958 -1.7647  3.7894  0.5744
 6227TIP3   OH240095   1.545   4.985  14.879  0.3790  0.3907 -0.2627
 6227TIP3    H140096   1.568   5.023  14.795  0.1140  1.2752  0.0529
 6227TIP3    H240097   1.479   4.919  14.858  0.5749  0.3570 -0.7790
 6228TIP3   OH240098   6.778   6.382  10.931 -0.2286 -0.3656  0.0256
 6228TIP3    H140099   6.702   6.361  10.876 -0.9151  2.2673 -0.1664
 6228TIP3    H240100   6.834   6.305  10.924 -1.4409 -1.1501 -2.3668
 6229TIP3   OH240101   4.088   6.653   2.672  0.1868  0.4853 -0.2442
 6229TIP3    H140102   4.035   6.573   2.669  0.0789  0.4513  1.6681
 6229TIP3    H240103   4.025   6.724   2.670  0.0904  0.4564  1.3049
 6230TIP3   OH240104   3.090   5.707   2.176 -0.3650 -0.5197  0.2519
 6230TIP3    H140105   3.047   5.621   2.171  0.0628 -0.6845 -0.9517
 6230TIP3    H240106   3.182   5.687   2.195 -0.1032 -0.3850 -0.8340
 6231TIP3   OH240107   5.042   1.347   0.236  0.2167 -0.0719 -0.1711
 6231TIP3    H140108   5.125   1.301   0.237  0.0997 -0.3269  1.2411
 6231TIP3    H240109   5.046   1.405   0.160  2.6286  1.5934  1.1102
 6232TIP3   OH240110   0.443   1.342  14.439  0.3148  0.1390  0.1670
 6232TIP3    H140111   0.485   1.316  14.357 -2.2388  0.9197 -1.4886
 6232TIP3    H240112   0.449   1.437  14.440 -1.4010  0.2677 -0.1347
 6233TIP3   OH240113   6.401   6.502   2.631 -0.2432 -0.2959  0.1764
 6233TIP3    H140114   6.312   6.487   2.599 -0.3073  0.9055 -0.2568
 6233TIP3    H240115   6.457   6.452   2.573 -0.6742 -1.7498  0.9630
 6234TIP3   OH240116   1.554   4.795  10.964 -0.3505 -0.0273  0.7153
 6234TIP3    H140117   1.637   4.770  10.925 -0.2324 -0.4378  1.2167
 6234TIP3    H240118   1.488   4.761  10.903 -0.1790 -1.1041  1.1095
 6235TIP3   OH240119   3.087   5.350  15.395  0.1049  0.2112 -0.0886
 6235TIP3    H140120   3.050   5.364  15.482  0.0307 -0.7808  0.0469
 6235TIP3    H240121   3.103   5.438  15.362  0.8415  0.5904  1.2215
 6236TIP3   OH240122   1.844   6.617  15.672  0.1117  0.0046  0.2685
 6236TIP3    H140123   1.854   6.630  15.766  2.2859 -0.3333  0.1388
 6236TIP3    H240124   1.902   6.543  15.651 -1.3320 -0.8038 -1.1496
 6237TIP3   OH240125   2.190   1.542   3.536 -0.5810 -0.2536 -0.3174
 6237TIP3    H140126   2.209   1.448   3.535 -0.8075 -0.2960 -0.6055
 6237TIP3    H240127   2.216   1.572   3.449 -0.6681 -0.0808 -0.2826
 6238TIP3   OH240128   3.924   0.017   0.052 -0.0560 -0.4850 -0.2429
 6238TIP3    H140129   3.921  -0.018   0.141  1.9147 -0.9882 -0.3431
 6238TIP3    H240130   3.838   0.057   0.040 -0.3948 -0.4572  1.8544
 6239TIP3   OH240131   3.062   4.753   0.933  0.6462  0.2541 -0.8536
 6239TIP3    H140132   2.974   4.739   0.966  1.0547  0.8193  0.5408
 6239TIP3    H240133   3.051   4.813   0.859 -0.0139  1.6454  0.3302
 6240TIP3   OH240134   3.120   1.346   1.971 -0.1693  0.1877 -0.3699
 6240TIP3    H140135   3.028   1.353   1.997 -0.5151  0.2744 -1.5711
 6240TIP3    H240136   3.125   1.394   1.889  0.8550 -0.2212 -0.5531
 6241TIP3   OH240137   6.245   6.203   4.089  0.4227 -0.4100  0.3394
 6241TIP3    H140138   6.275   6.117   4.118  1.9516 -0.5454 -1.4186
 6241TIP3    H240139   6.248   6.197   3.993 -1.0811  1.0657  0.1647
 6242TIP3   OH240140   4.069   4.606  15.002 -0.8923  0.0434 -0.4057
 6242TIP3    H140141   4.012   4.681  14.989 -0.0432  0.5950 -1.0467
 6242TIP3    H240142   4.093   4.610  15.094  0.8619  1.8498 -0.8734
 6243TIP3   OH240143   4.939   0.161   2.980  0.2609 -0.5945  0.1576
 6243TIP3    H140144   5.031   0.150   3.006  0.7939  1.2139 -0.7676
 6243TIP3    H240145   4.891   0.163   3.062  1.2663 -0.0028  0.7629
 6244TIP3   OH240146   3.928   6.227  15.073  0.0902  0.3487  0.2756
 6244TIP3    H140147   3.840   6.225  15.037 -0.3541  1.2082  1.2550
 6244TIP3    H240148   3.977   6.162  15.022 -0.9139  0.3770 -0.7474
 6245TIP3   OH240149   0.882   4.530   4.830  0.1868 -0.4782  0.3806
 6245TIP3    H140150   0.953   4.533   4.894 -0.1356  1.4510  0.7132
 6245TIP3    H240151   0.878   4.619   4.795 -0.1255 -1.3056 -1.8205
 6246TIP3   OH240152   3.455   0.041   3.932  0.1395  0.1042 -0.6124
 6246TIP3    H140153   3.537   0.082   3.959 -1.1816  0.8064  2.8615
 6246TIP3    H240154   3.387   0.104   3.957 -1.6020 -1.4090 -1.2792
 6247TIP3   OH240155   6.725   4.591  17.233 -0.2337  0.2921  0.4636
 6247TIP3    H140156   6.793   4.524  17.228  0.7669  1.1396  1.8063
 6247TIP3    H240157   6.773   4.674  17.223 -1.4519  0.8519 -1.3443
 6248TIP3   OH240158   6.537   1.519  15.397  0.0194  0.2743 -0.0025
 6248TIP3    H140159   6.454   1.484  15.367  1.1766 -1.1969 -1.7407
 6248TIP3    H240160   6.534   1.612  15.373 -1.5773  0.5515  1.1319
 6249TIP3   OH240161   4.290   3.042   3.323 -0.4386  0.5300 -0.7772
 6249TIP3    H140162   4.300   3.116   3.382  0.9647  1.2794 -1.9001
 6249TIP3    H240163   4.207   3.060   3.277 -2.3311 -0.8062  1.8745
 6250TIP3   OH240164   2.850   1.371  13.134  0.0214  0.3119  0.6422
 6250TIP3    H140165   2.819   1.328  13.054 -0.2739 -0.3131  1.0870
 6250TIP3    H240166   2.945   1.377  13.123  0.0145 -0.0527  0.3839
 6251TIP3   OH240167   5.304   6.146  16.785  0.0660  0.3531  0.1822
 6251TIP3    H140168   5.237   6.214  16.777  0.3381  0.5977 -0.0264
 6251TIP3    H240169   5.354   6.170  16.863  0.1787  0.4066  0.0933
 6252TIP3   OH240170   0.224   2.504  11.926 -0.3307 -0.4590  0.3458
 6252TIP3    H140171   0.235   2.598  11.938  0.5341 -0.2498 -1.6499
 6252TIP3    H240172   0.291   2.464  11.981 -1.0749  0.0323  1.6452
 6253TIP3   OH240173   0.087   6.689  10.939 -0.6313  0.1456  0.5642
 6253TIP3    H140174   0.179   6.695  10.966 -1.0964  1.3256  2.0824
 6253TIP3    H240175   0.053   6.612  10.984 -0.1270 -1.0703 -1.0211
 6254TIP3   OH240176   0.360   1.025  15.441  0.6313  0.2909 -0.0197
 6254TIP3    H140177   0.379   1.087  15.370 -0.0572  0.7081  0.1485
 6254TIP3    H240178   0.419   1.050  15.512 -0.6326  1.7217  0.5843
 6255TIP3   OH240179   4.059   4.379  15.435  0.5607 -0.0494 -0.0055
 6255TIP3    H140180   4.091   4.425  15.357  0.9817  1.9987  1.3045
 6255TIP3    H240181   3.985   4.431  15.466  1.8781  0.6155  2.2828
 6256TIP3   OH240182   0.167   6.732   5.070 -0.2951 -0.3605 -0.0052
 6256TIP3    H140183   0.213   6.815   5.062 -1.5294  0.2868 -0.8180
 6256TIP3    H240184   0.188   6.686   4.989 -1.1600  0.0060 -0.4538
 6257TIP3   OH240185   5.543   0.791  12.447  0.6661  0.4399 -0.3277
 6257TIP3    H140186   5.451   0.814  12.447  1.0927  2.3297 -0.5239
 6257TIP3    H240187   5.581   0.843  12.376  1.6864 -1.1999 -1.0271
 6258TIP3   OH240188   5.291   0.049  11.873 -0.5591 -0.1366 -0.1091
 6258TIP3    H140189   5.262   0.099  11.949  0.2659 -0.1585  0.2231
 6258TIP3    H240190   5.228   0.073  11.804  0.0828  1.7420 -0.1029
 6259TIP3   OH240191   3.706   5.236   5.378 -0.3450  0.1343 -0.3851
 6259TIP3    H140192   3.680   5.171   5.444  1.0096  0.0902  0.1384
 6259TIP3    H240193   3.633   5.237   5.316 -0.3854 -1.9782 -0.4666
 6260TIP3   OH240194   0.049   1.427   2.294 -0.0789 -0.4182 -1.2117
 6260TIP3    H140195  -0.037   1.408   2.331  0.7237 -0.2567  0.8479
 6260TIP3    H240196   0.111   1.388   2.355  1.3599  0.8925 -1.7670
 6261TIP3   OH240197   2.376   2.534  11.739 -0.3787  0.0501  0.5922
 6261TIP3    H140198   2.430   2.574  11.671 -0.8564  0.0640  0.2199
 6261TIP3    H240199   2.322   2.606  11.772 -0.5895 -0.0864  0.5505
 6262TIP3   OH240200   0.961   1.799   1.172  0.8117  0.0410 -0.0882
 6262TIP3    H140201   1.038   1.751   1.140 -0.8830 -1.7187 -1.7942
 6262TIP3    H240202   0.939   1.757   1.255  1.3628  0.2428  0.1714
 6263TIP3   OH240203   3.396   4.141   5.200  0.2808 -0.8175 -0.4501
 6263TIP3    H140204   3.476   4.189   5.221  0.5526 -0.9683 -1.1261
 6263TIP3    H240205   3.390   4.074   5.269 -0.8348  0.9692  1.3170
 6264TIP3   OH240206   1.271   6.612   2.655 -0.4904  0.2228  0.0595
 6264TIP3    H140207   1.333   6.659   2.600 -1.0235  0.6521 -0.1812
 6264TIP3    H240208   1.200   6.674   2.671 -1.0747 -0.4052 -0.0430
 6265TIP3   OH240209   2.316   1.632   0.582  0.6312  0.1037 -0.3753
 6265TIP3    H140210   2.248   1.685   0.540  0.1294  0.4486  0.8165
 6265TIP3    H240211   2.333   1.562   0.520 -0.8976 -0.0487 -0.6705
 6266TIP3   OH240212   4.443   1.090   3.451  0.1434  0.0373  0.3327
 6266TIP3    H140213   4.432   0.999   3.424  0.1139 -0.6017  2.3126
 6266TIP3    H240214   4.537   1.099   3.467  0.2232  0.5290 -0.3778
 6267TIP3   OH240215   5.420   2.466   5.805 -0.2841  0.2836 -0.0567
 6267TIP3    H140216   5.501   2.457   5.856 -0.9756  0.6226  1.1425
 6267TIP3    H240217   5.378   2.381   5.811 -0.3638  0.3227 -0.0592
 6268TIP3   OH240218   3.113   6.007  14.900  0.2822  0.5694 -0.7458
 6268TIP3    H140219   3.105   6.022  14.994 -0.2125  0.7600 -0.8158
 6268TIP3    H240220   3.103   6.094  14.861  0.1941  0.4509 -0.9909
 6269TIP3   OH240221   4.277   2.042   4.473 -0.3154  0.0211  0.3476
 6269TIP3    H140222   4.337   2.072   4.405  0.3283  1.1040  1.3333
 6269TIP3    H240223   4.314   2.077   4.554 -1.8611  0.0715  1.0817
 6270TIP3   OH240224   4.725   1.558   1.445  0.4912 -0.1339  0.6951
 6270TIP3    H140225   4.748   1.472   1.412 -1.1741 -1.0229  1.7184
 6270TIP3    H240226   4.692   1.606   1.369 -0.0912 -0.9742  0.4091
 6271TIP3   OH240227   3.905   1.098   2.629 -0.2840  0.4685 -0.2862
 6271TIP3    H140228   3.935   1.127   2.543  0.5183 -0.9293 -0.5161
 6271TIP3    H240229   3.933   1.007   2.635  1.3036  1.0046  2.1600
 6272TIP3   OH240230   1.185   1.686  12.220 -0.0605  0.5971 -0.3560
 6272TIP3    H140231   1.159   1.743  12.147  0.9099 -0.3263 -1.4594
 6272TIP3    H240232   1.248   1.626  12.182 -1.3866 -1.5567  0.6437
 6273TIP3   OH240233   2.504   4.778  16.786 -0.3264  0.6051 -0.7061
 6273TIP3    H140234   2.476   4.813  16.871 -0.4631 -1.8219  0.3240
 6273TIP3    H240235   2.599   4.777  16.791 -0.3177  0.9280 -0.7867
 6274TIP3   OH240236   2.370   1.332   4.762  0.8560  0.4191 -0.0420
 6274TIP3    H140237   2.279   1.303   4.765  0.5469  0.9123 -2.7388
 6274TIP3    H240238   2.421   1.251   4.766  0.1942 -0.0831 -1.3930
 6275TIP3   OH240239   2.652   5.145   4.148  0.3092  0.0909  0.1212
 6275TIP3    H140240   2.712   5.193   4.204  0.4235  0.7391 -0.5397
 6275TIP3    H240241   2.668   5.053   4.169  1.0351  0.2863  0.4511
 6276TIP3   OH240242   2.218   6.374   3.271 -0.3372 -0.1464 -0.2069
 6276TIP3    H140243   2.206   6.352   3.179 -2.4719 -0.5747  0.1256
 6276TIP3    H240244   2.158   6.316   3.318  0.8113 -0.0497  1.4910
 6277TIP3   OH240245   2.383   6.735   4.665  0.5903 -0.2377 -0.0015
 6277TIP3    H140246   2.360   6.675   4.594  1.0271 -0.8694  0.3729
 6277TIP3    H240247   2.471   6.766   4.643  0.0315  0.9529 -0.6337
 6278TIP3   OH240248   3.612   1.961   3.829  1.1604  0.3113  0.4297
 6278TIP3    H140249   3.607   1.975   3.924 -1.4976 -0.2104  0.4495
 6278TIP3    H240250   3.610   2.049   3.792  2.3573  0.5244  0.8434
 6279TIP3   OH240251   4.750   1.094   5.720 -0.3752 -0.2259  0.2582
 6279TIP3    H140252   4.837   1.109   5.755 -0.0802 -2.2335  0.5454
 6279TIP3    H240253   4.742   1.154   5.646  1.6955 -0.7429 -0.4577
 6280TIP3   OH240254   6.739   5.036  12.119 -0.0262  0.4216  0.0913
 6280TIP3    H140255   6.782   5.053  12.035 -0.2462 -1.3238 -0.4147
 6280TIP3    H240256   6.781   5.097  12.180 -0.2397  2.1138 -1.3643
 6281TIP3   OH240257   3.476   3.862   4.405  0.4220  0.2937 -0.2625
 6281TIP3    H140258   3.452   3.774   4.376  1.0153  0.3358 -0.8975
 6281TIP3    H240259   3.569   3.870   4.386  0.5933  0.7280  0.6639
 6282TIP3   OH240260   4.769   1.407   6.353 -0.2943 -0.0301  0.1448
 6282TIP3    H140261   4.792   1.402   6.446  1.3422 -1.2795 -0.2745
 6282TIP3    H240262   4.734   1.320   6.333  1.1966 -0.4562 -0.8073
 6283TIP3   OH240263   2.090   5.086  14.499  0.0546 -0.7152  0.0761
 6283TIP3    H140264   2.022   5.106  14.563 -0.6387  2.9690 -1.5328
 6283TIP3    H240265   2.170   5.122  14.536  0.2049 -0.9741  0.0087
 6284TIP3   OH240266   4.774   3.179  11.674  0.7531  0.0420  0.5978
 6284TIP3    H140267   4.846   3.241  11.668 -0.9831  2.1016 -0.8471
 6284TIP3    H240268   4.747   3.165  11.583 -1.0354 -0.1648  1.1218
 6285TIP3   OH240269   5.462   0.126  13.065 -0.3083 -0.1478  0.1443
 6285TIP3    H140270   5.448   0.032  13.078 -0.8085 -0.4198 -1.9961
 6285TIP3    H240271   5.541   0.131  13.010  2.4247  0.9547  3.7350
 6286TIP3   OH240272   4.259   3.404  13.794 -0.4054  0.3011  0.2451
 6286TIP3    H140273   4.174   3.376  13.827  0.1327  0.1693  1.5744
 6286TIP3    H240274   4.245   3.494  13.766 -1.1787  0.0161 -0.3247
 6287TIP3   OH240275   0.225   4.300   4.927  0.8762 -0.4327  0.0207
 6287TIP3    H140276   0.173   4.238   4.876  0.5454 -0.9621  0.9888
 6287TIP3    H240277   0.216   4.271   5.018  0.2268  1.3635  0.5843
 6288TIP3   OH240278   4.238   1.941  12.932 -0.5555  0.1725 -0.1073
 6288TIP3    H140279   4.266   1.974  13.018  2.3041 -1.3746 -0.3120
 6288TIP3    H240280   4.177   1.870  12.953 -0.9257  0.6789  0.5750
 6289TIP3   OH240281   0.875   4.008   5.715  0.0837 -0.2540  0.1844
 6289TIP3    H140282   0.902   3.929   5.669  1.6392  1.8534 -2.8768
 6289TIP3    H240283   0.804   4.043   5.663 -1.8917 -0.4722  2.5527
 6290TIP3   OH240284   0.738   4.333   5.181  0.2777  0.5535  0.1510
 6290TIP3    H140285   0.796   4.299   5.113  1.5285  2.1535  0.3575
 6290TIP3    H240286   0.650   4.316   5.149  0.8341 -1.0520 -0.6424
 6291TIP3   OH240287   4.589   2.144  15.190  0.0008  0.5664  0.2046
 6291TIP3    H140288   4.598   2.188  15.275 -1.3622 -0.9064  1.1699
 6291TIP3    H240289   4.618   2.055  15.206  0.1202  0.3752 -0.9939
 6292TIP3   OH240290   5.055   0.553   3.688 -0.3203  0.2845  0.3941
 6292TIP3    H140291   5.077   0.526   3.599  0.2833  1.7357  0.0687
 6292TIP3    H240292   5.110   0.498   3.744  2.4180  2.1255 -0.3191
 6293TIP3   OH240293   6.289   4.105   0.663 -0.0742 -0.7593  0.3300
 6293TIP3    H140294   6.202   4.099   0.702 -0.2852  0.7827  0.1506
 6293TIP3    H240295   6.278   4.076   0.573 -0.4451 -0.4070  0.2608
 6294TIP3   OH240296   0.439   3.004   4.949  0.5997  0.0900 -0.2461
 6294TIP3    H140297   0.402   2.916   4.951  0.4477  0.1643  0.4407
 6294TIP3    H240298   0.534   2.991   4.946  0.6522 -0.1104  1.3999
 6295TIP3   OH240299   2.408   0.195   4.125  0.2492 -0.1619  0.4706
 6295TIP3    H140300   2.463   0.201   4.047 -0.9132  3.0702 -0.2403
 6295TIP3    H240301   2.343   0.264   4.114 -0.6612 -0.3329  3.7912
 6296TIP3   OH240302   6.257   1.682   1.131  0.0205 -0.6140  0.5408
 6296TIP3    H140303   6.268   1.773   1.104  0.3259 -0.6139  0.6592
 6296TIP3    H240304   6.163   1.672   1.145 -0.1161 -0.5607 -0.3172
 6297TIP3   OH240305   0.180   2.447   0.558  0.0855 -0.1208  0.4238
 6297TIP3    H140306   0.177   2.356   0.530 -0.9348  0.2686 -0.8205
 6297TIP3    H240307   0.146   2.446   0.647 -2.4413 -0.6553 -0.4771
 6298TIP3   OH240308   4.376   5.935  12.268  0.0916 -0.3469 -0.1407
 6298TIP3    H140309   4.435   6.010  12.263 -1.4238  0.8429 -1.2435
 6298TIP3    H240310   4.341   5.938  12.358  0.3003  0.0530 -0.0706
 6299TIP3   OH240311   4.171   5.184  16.004  0.3283 -0.5294  0.4682
 6299TIP3    H140312   4.240   5.153  15.946  0.0717 -0.5096  0.1520
 6299TIP3    H240313   4.179   5.129  16.082  1.0374 -0.1797  0.6513
 6300TIP3   OH240314   0.221   4.270   2.427  0.0833  0.2644 -0.2431
 6300TIP3    H140315   0.161   4.196   2.430 -1.5137  1.5196 -0.0590
 6300TIP3    H240316   0.276   4.259   2.505 -0.4180 -0.4945  0.0161
 6301TIP3   OH240317   4.660   2.391  14.995  0.1993 -0.3552  0.1073
 6301TIP3    H140318   4.604   2.465  15.015 -1.1429 -0.9174 -1.3878
 6301TIP3    H240319   4.662   2.339  15.075 -0.6910  0.1393  0.4525
 6302TIP3   OH240320   1.000   4.944   3.244  0.7853 -0.0065 -0.5890
 6302TIP3    H140321   1.013   4.986   3.159 -0.5272  1.3350 -0.1771
 6302TIP3    H240322   0.918   4.895   3.234  0.4229  0.4658 -0.0008
 6303TIP3   OH240323   0.889   6.661   4.282  0.1659 -0.4638  0.0611
 6303TIP3    H140324   0.879   6.597   4.212  1.1488  0.1745 -0.6986
 6303TIP3    H240325   0.881   6.746   4.238  3.2210  0.0136  0.2156
 6304TIP3   OH240326   2.381   5.692  15.840  0.2009  0.1446  0.3092
 6304TIP3    H140327   2.357   5.712  15.750 -1.1429 -0.2842  0.5456
 6304TIP3    H240328   2.475   5.678  15.837  0.1858  0.1899 -1.0195
 6305TIP3   OH240329   3.997   6.082  15.445 -0.6637 -0.5269 -0.4804
 6305TIP3    H140330   3.952   6.015  15.394  0.1249 -1.0069 -0.5602
 6305TIP3    H240331   4.089   6.074  15.420 -0.7165  1.5390 -1.5577
 6306TIP3   OH240332   3.141   4.446  15.393 -0.3842  0.4223 -0.4121
 6306TIP3    H140333   3.059   4.483  15.362 -0.3992  0.3496 -0.4619
 6306TIP3    H240334   3.209   4.490  15.341 -0.4633 -0.3463 -1.2053
 6307TIP3   OH240335   1.541   0.147  16.275  0.2958  0.3038 -0.3750
 6307TIP3    H140336   1.597   0.206  16.325  0.5451 -0.5267  0.3455
 6307TIP3    H240337   1.455   0.189  16.276  0.6088  0.9521 -0.3960
 6308TIP3   OH240338   0.611   1.074   5.196  0.5636  0.6705  0.3256
 6308TIP3    H140339   0.633   1.002   5.137 -0.6201  0.0647  0.5956
 6308TIP3    H240340   0.663   1.058   5.275  2.1537  1.4826 -0.5058
 6309TIP3   OH240341   3.421   2.870   2.892 -0.1708  0.0361 -0.3862
 6309TIP3    H140342   3.330   2.875   2.921 -0.0755 -1.5164  0.3181
 6309TIP3    H240343   3.420   2.904   2.803 -1.9522 -2.3147 -1.3796
 6310TIP3   OH240344   4.042   1.791  16.270 -0.0054 -0.2387 -0.5077
 6310TIP3    H140345   4.033   1.854  16.199 -0.3191 -0.3191 -0.5429
 6310TIP3    H240346   4.123   1.743  16.250 -1.1729 -1.7189 -1.9994
 6311TIP3   OH240347   0.164   4.473   5.677  0.2704  0.2247  0.0301
 6311TIP3    H140348   0.204   4.539   5.735  1.5192  1.9886 -2.6360
 6311TIP3    H240349   0.170   4.392   5.727  2.7162  1.3276  1.7852
 6312TIP3   OH240350   5.831   2.397  11.411  0.4180  0.6207  0.0748
 6312TIP3    H140351   5.923   2.423  11.416  0.6761 -0.4371  1.8332
 6312TIP3    H240352   5.834   2.307  11.381  0.0432  0.2905  0.9907
 6313TIP3   OH240353   5.878   2.774   3.143 -0.7897 -0.1608 -0.4140
 6313TIP3    H140354   5.848   2.694   3.186 -0.9848  1.3883  2.6647
 6313TIP3    H240355   5.940   2.812   3.205  0.7413  1.1767 -2.6392
 6314TIP3   OH240356   4.212   1.494  13.003 -0.2781  0.4469 -0.4362
 6314TIP3    H140357   4.234   1.569  13.058  1.3149 -0.7261  0.6201
 6314TIP3    H240358   4.117   1.500  12.990 -0.5764  1.2633  1.7265
 6315TIP3   OH240359   2.210   2.810  12.318 -0.2393  0.1225 -0.4351
 6315TIP3    H140360   2.301   2.828  12.343 -0.3438 -0.5762  0.4981
 6315TIP3    H240361   2.166   2.894  12.327  0.1165  0.2653  0.0232
 6316TIP3   OH240362   6.277   6.363   0.855  0.2572 -0.2691  0.5001
 6316TIP3    H140363   6.189   6.397   0.872 -0.0165 -0.4349 -0.5264
 6316TIP3    H240364   6.335   6.434   0.883 -0.2990  1.0039 -1.3844
 6317TIP3   OH240365   1.871   5.176   2.245  0.2744  0.3160 -0.7620
 6317TIP3    H140366   1.839   5.266   2.247  2.8281  1.3206  0.6002
 6317TIP3    H240367   1.899   5.162   2.154  0.0260  0.9798 -0.9415
 6318TIP3   OH240368   2.371   2.944   4.125  0.0320 -0.9389 -0.4509
 6318TIP3    H140369   2.411   2.905   4.203  0.9085  1.9174  0.6604
 6318TIP3    H240370   2.336   2.870   4.076  1.7377 -3.0759  1.3681
 6319TIP3   OH240371   6.007   1.538  12.280 -0.1774  0.1257 -0.5965
 6319TIP3    H140372   5.949   1.614  12.287  0.5657  0.6208  0.4834
 6319TIP3    H240373   6.000   1.495  12.365 -0.4575 -0.9343 -1.1376
 6320TIP3   OH240374   2.681   6.452  14.055  0.1437  0.3304  0.2177
 6320TIP3    H140375   2.671   6.545  14.074  3.3332  0.9599 -0.4606
 6320TIP3    H240376   2.736   6.420  14.126 -0.8729 -1.0566  0.4078
 6321TIP3   OH240377   3.993   3.181  12.651  0.1455  0.1871 -0.4283
 6321TIP3    H140378   3.921   3.217  12.599 -0.1383 -0.9235 -0.8335
 6321TIP3    H240379   3.985   3.087  12.641  0.3289 -0.0548  1.3247
 6322TIP3   OH240380   4.886   1.762   5.972 -0.0619  0.1371  0.7184
 6322TIP3    H140381   4.898   1.706   5.895  0.5661  0.4784  0.5595
 6322TIP3    H240382   4.913   1.708   6.046  0.3619  0.1635  0.5853
 6323TIP3   OH240383   1.423   6.136  15.017 -0.3055 -0.3459 -0.0896
 6323TIP3    H140384   1.429   6.220  14.971 -1.4824 -0.1143  0.1523
 6323TIP3    H240385   1.335   6.135  15.055  0.3503 -0.8433  1.5422
 6324TIP3   OH240386   1.592   4.020  12.038  0.4794 -0.2978 -0.4564
 6324TIP3    H140387   1.530   4.020  12.111  0.2985 -1.0393 -0.6080
 6324TIP3    H240388   1.657   4.086  12.063  0.1891 -0.2394  0.1761
 6325TIP3   OH240389   1.444   5.485   4.872  0.7900 -0.3152  0.4031
 6325TIP3    H140390   1.427   5.392   4.854 -0.8261  0.0964 -0.3505
 6325TIP3    H240391   1.423   5.495   4.965 -1.1527 -0.2869 -0.0062
 6326TIP3   OH240392   4.596   4.669   5.528  0.2437  0.0919 -0.0763
 6326TIP3    H140393   4.674   4.669   5.583 -0.2605 -3.7468  0.9060
 6326TIP3    H240394   4.622   4.622   5.448 -0.4586  0.8729 -0.7913
 6327TIP3   OH240395   2.428   5.476  13.700 -0.3105  0.4337  0.5572
 6327TIP3    H140396   2.383   5.548  13.657 -2.6033 -1.1589  0.1037
 6327TIP3    H240397   2.479   5.433  13.631  0.1719  0.9229  0.5987
 6328TIP3   OH240398   3.588   6.586   6.295 -0.1395  0.1470  0.2889
 6328TIP3    H140399   3.606   6.669   6.251  1.4892 -0.3299 -0.0206
 6328TIP3    H240400   3.497   6.565   6.271  0.3864  0.3663 -2.1031
 6329TIP3   OH240401   0.642   3.105   3.097 -0.1894 -0.1104  0.0280
 6329TIP3    H140402   0.650   3.184   3.044 -0.5829  0.6449  1.0657
 6329TIP3    H240403   0.594   3.043   3.041 -0.3370  0.5611 -0.5986
 6330TIP3   OH240404   6.609   0.356  17.159 -0.6900 -0.4856  0.1716
 6330TIP3    H140405   6.625   0.389  17.247 -0.4906  1.6575 -0.6021
 6330TIP3    H240406   6.514   0.367  17.146 -0.2844  2.8472 -1.1086
 6331TIP3   OH240407   4.927   1.547  10.692  0.0127  0.4086  0.0734
 6331TIP3    H140408   4.914   1.463  10.647  0.8753  1.0377 -1.4314
 6331TIP3    H240409   5.020   1.567  10.679 -0.0807  1.3921  0.8033
 6332TIP3   OH240410   1.838   4.718   5.600 -0.3393  0.0992 -0.0623
 6332TIP3    H140411   1.910   4.777   5.577 -0.3561  0.4426  0.7445
 6332TIP3    H240412   1.866   4.675   5.681  0.1108 -1.7704 -1.1467
 6333TIP3   OH240413   6.651   4.566   5.323  0.2895  0.3749  0.5405
 6333TIP3    H140414   6.700   4.528   5.250 -0.6306  1.3638 -0.6229
 6333TIP3    H240415   6.675   4.658   5.323 -1.4127  0.8587  0.0227
 6334TIP3   OH240416   4.262   3.084   5.478 -0.2642 -0.1154  0.4175
 6334TIP3    H140417   4.264   3.151   5.411  1.5158 -0.7254 -0.2077
 6334TIP3    H240418   4.255   3.001   5.430  0.0829 -0.5066  1.0160
 6335TIP3   OH240419   3.124   0.229   5.992 -0.0934  0.4835 -0.1438
 6335TIP3    H140420   3.032   0.208   5.976 -0.3344  0.9598  0.5723
 6335TIP3    H240421   3.122   0.307   6.048  0.7109 -0.4809  1.2936
 6336TIP3   OH240422   1.630   4.550  11.773  0.0167  0.1120  0.2809
 6336TIP3    H140423   1.534   4.553  11.770  0.0686  1.5511 -1.0253
 6336TIP3    H240424   1.652   4.562  11.865 -1.0481 -0.5484  0.6403
 6337TIP3   OH240425   6.730   3.147  14.156  0.3112 -0.2920 -0.0530
 6337TIP3    H140426   6.726   3.052  14.147  3.0308 -0.6247  1.1950
 6337TIP3    H240427   6.674   3.166  14.232 -0.2205 -0.9014 -0.2834
 6338TIP3   OH240428   6.101   5.359   1.860 -0.6113  0.5967  0.3325
 6338TIP3    H140429   6.021   5.393   1.899  0.7989  2.6230  1.6841
 6338TIP3    H240430   6.151   5.324   1.933  0.0417 -0.0153 -0.3844
 6339TIP3   OH240431   0.735   2.434  15.829 -0.5516  0.0720  0.2140
 6339TIP3    H140432   0.675   2.432  15.904  0.2589  2.1966  0.9957
 6339TIP3    H240433   0.804   2.494  15.855 -0.4588  1.2491 -2.4038
 6340TIP3   OH240434   5.903   2.571  16.503 -0.2202  0.2310 -0.1374
 6340TIP3    H140435   5.837   2.505  16.522 -0.7762  0.9195  0.4180
 6340TIP3    H240436   5.855   2.654  16.506  0.4976  0.6791 -0.6142
 6341TIP3   OH240437   5.869   3.372   5.537 -0.1936  0.5591 -0.5984
 6341TIP3    H140438   5.818   3.291   5.543  0.2082  0.4478  2.7178
 6341TIP3    H240439   5.960   3.345   5.548 -0.0147  1.4120  0.1145
 6342TIP3   OH240440   3.905   4.049  17.130  0.2916 -0.7745  0.0974
 6342TIP3    H140441   3.890   4.010  17.216 -0.0254  0.7332  0.7669
 6342TIP3    H240442   3.999   4.037  17.115  0.2634 -1.4762  0.4224
 6343TIP3   OH240443   4.410   6.184  16.795 -0.0474 -0.0631 -0.3919
 6343TIP3    H140444   4.493   6.135  16.791  0.3658  0.6253 -0.3223
 6343TIP3    H240445   4.421   6.255  16.732  0.4811  1.6634  1.5508
 6344TIP3   OH240446   3.822   0.125  14.191  0.3557  0.6681 -0.4985
 6344TIP3    H140447   3.824   0.130  14.286  1.2175  1.8671 -0.5657
 6344TIP3    H240448   3.779   0.205  14.162 -0.6412 -0.0588 -1.1089
 6345TIP3   OH240449   0.569   4.979   4.396  0.1843  0.1522  0.2594
 6345TIP3    H140450   0.626   4.902   4.407  0.9255  0.3210 -2.0490
 6345TIP3    H240451   0.629   5.052   4.385 -0.3025  0.1238 -3.7908
 6346TIP3   OH240452   2.530   1.170   0.720  0.0115 -0.4184 -0.4265
 6346TIP3    H140453   2.548   1.247   0.774  1.2751 -0.7863 -0.2994
 6346TIP3    H240454   2.458   1.197   0.663  0.7506  1.0095 -0.7157
 6347TIP3   OH240455   6.433   1.218  16.214 -0.1205 -0.2841 -0.8139
 6347TIP3    H140456   6.529   1.220  16.210 -0.1322  0.4153 -0.9472
 6347TIP3    H240457   6.405   1.252  16.129 -0.4615  1.4138 -0.0647
 6348TIP3   OH240458   4.154   5.517  14.566 -0.0801 -0.2134  0.0947
 6348TIP3    H140459   4.187   5.607  14.571 -0.1064 -0.2441  0.9710
 6348TIP3    H240460   4.205   5.469  14.631 -0.5412 -0.6799  0.1194
 6349TIP3   OH240461   3.452   4.724   5.149  0.3838 -0.3434 -0.1984
 6349TIP3    H140462   3.484   4.706   5.238  1.9637 -0.8626 -0.8450
 6349TIP3    H240463   3.526   4.762   5.104 -1.0461  2.0301 -0.7142
 6350TIP3   OH240464   5.793   0.179  16.819  0.2993  0.2230  0.5084
 6350TIP3    H140465   5.760   0.116  16.755  1.7205 -0.2071  0.1645
 6350TIP3    H240466   5.831   0.125  16.889  0.5006  0.6988  0.7718
 6351TIP3   OH240467   5.579   6.070  11.139  0.4239 -0.1189  0.7744
 6351TIP3    H140468   5.655   6.017  11.118  0.2942  0.4280 -1.3654
 6351TIP3    H240469   5.504   6.017  11.110  0.2617  0.9043 -0.8145
 6352TIP3   OH240470   2.214   2.937   0.886  0.1826  0.4210 -0.3880
 6352TIP3    H140471   2.143   2.988   0.846  0.6294  1.5917  0.2663
 6352TIP3    H240472   2.239   2.874   0.818  0.8566  2.2843 -1.9693
 6353TIP3   OH240473   1.588   3.113  14.723  0.0822 -0.6334 -0.1125
 6353TIP3    H140474   1.670   3.099  14.675 -0.4854  0.4555 -1.4791
 6353TIP3    H240475   1.521   3.116  14.655 -1.0703 -1.1736  0.9558
 6354TIP3   OH240476   4.179   1.014   1.096  0.3139 -0.2556 -0.0585
 6354TIP3    H140477   4.084   1.026   1.105  0.6091  1.1248  2.3248
 6354TIP3    H240478   4.197   0.929   1.136  0.3255  0.8431  2.4819
 6355TIP3   OH240479   1.146   2.720   2.687  0.0089 -0.0792  0.6716
 6355TIP3    H140480   1.071   2.714   2.628 -0.6708 -0.2370  1.5501
 6355TIP3    H240481   1.147   2.638   2.735  1.4278 -0.5704 -0.1128
 6356TIP3   OH240482   4.046   4.711  12.134 -0.1240  0.3441  0.6878
 6356TIP3    H140483   4.110   4.750  12.193 -0.2818  1.3035  0.2305
 6356TIP3    H240484   4.093   4.703  12.051 -0.1910 -0.1707  0.6946
 6357TIP3   OH240485   4.381   5.939   2.538  0.6453 -0.1448  0.1355
 6357TIP3    H140486   4.300   5.962   2.584 -0.0806 -1.3723 -0.4858
 6357TIP3    H240487   4.371   5.976   2.451  0.4075 -0.9420 -0.1832
 6358TIP3   OH240488   0.848   5.592  15.991 -0.3364  0.3404 -0.4822
 6358TIP3    H140489   0.777   5.599  16.054  1.5611  0.9184  1.7441
 6358TIP3    H240490   0.909   5.529  16.031  0.3916 -0.2269 -2.3607
 6359TIP3   OH240491   5.937   6.719   6.133  0.0897  0.5679  0.1365
 6359TIP3    H140492   5.918   6.736   6.226  1.0529  0.3733  0.3793
 6359TIP3    H240493   5.955   6.805   6.096 -2.1273  0.8870 -0.3299
 6360TIP3   OH240494   1.794   6.381  13.175 -0.1825 -0.0696  0.1817
 6360TIP3    H140495   1.808   6.287  13.176 -0.4593 -0.1169 -0.3711
 6360TIP3    H240496   1.783   6.405  13.267  0.8496 -0.4263  0.4169
 6361TIP3   OH240497   3.613   1.567   5.974 -0.5118  0.2329  0.4652
 6361TIP3    H140498   3.613   1.593   6.066 -2.0778 -1.4308  1.0148
 6361TIP3    H240499   3.543   1.501   5.969 -1.0942  0.9524 -2.1105
 6362TIP3   OH240500   0.659   2.172  11.320  0.1640  0.1016 -0.1666
 6362TIP3    H140501   0.675   2.209  11.407 -1.0290  1.0050 -0.3052
 6362TIP3    H240502   0.639   2.080  11.336 -0.2811  0.3156  0.5427
 6363TIP3   OH240503   1.901   5.294  17.165 -0.5641 -0.1033  0.0101
 6363TIP3    H140504   1.986   5.252  17.150 -0.4317  0.0029  0.4349
 6363TIP3    H240505   1.848   5.269  17.090 -0.9014 -2.0720  0.8550
 6364TIP3   OH240506   0.745   0.010  12.002  0.0516  0.2825 -0.2456
 6364TIP3    H140507   0.746  -0.072  11.954 -0.3674  0.7526 -1.0727
 6364TIP3    H240508   0.837   0.029  12.019  0.1557 -0.2815 -0.1774
 6365TIP3   OH240509   6.423   6.362  17.073 -0.1130  0.1395 -0.3235
 6365TIP3    H140510   6.342   6.390  17.115  1.4553  1.4648  2.0290
 6365TIP3    H240511   6.432   6.421  16.998 -0.5501  1.0605  0.3287
 6366TIP3   OH240512   2.058   2.060  15.955  0.2222 -0.2048  0.1908
 6366TIP3    H140513   2.020   2.104  16.031  0.4030 -1.0631  0.8019
 6366TIP3    H240514   2.148   2.093  15.951 -0.8746  2.9454 -2.1309
 6367TIP3   OH240515   0.028   2.425   6.660 -0.0610  0.0351 -0.1982
 6367TIP3    H140516   0.024   2.350   6.601  1.3685  0.0144 -0.3070
 6367TIP3    H240517   0.097   2.402   6.723  1.5951  1.9058 -1.2218
 6368TIP3   OH240518   0.214   6.312   3.745  0.2381 -0.2103 -1.0002
 6368TIP3    H140519   0.134   6.282   3.702 -0.8417  2.0325 -0.7245
 6368TIP3    H240520   0.229   6.400   3.708  1.0523  0.4910  0.8850
 6369TIP3   OH240521   0.845   0.049  15.442 -0.0724  0.2742 -0.0741
 6369TIP3    H140522   0.885   0.018  15.523 -0.5956 -1.7191 -0.5428
 6369TIP3    H240523   0.753   0.027  15.450 -0.2948  0.8522 -0.8615
 6370TIP3   OH240524   5.010   3.155   1.362 -0.0404 -0.4434 -0.5223
 6370TIP3    H140525   5.015   3.076   1.415  0.8146 -0.4276 -0.5552
 6370TIP3    H240526   4.949   3.134   1.292  0.3397 -1.1563 -0.6522
 6371TIP3   OH240527   1.682   1.006  15.970 -0.0680 -0.3857  0.2089
 6371TIP3    H140528   1.648   1.040  16.052 -1.9283 -0.0806 -0.6286
 6371TIP3    H240529   1.721   1.082  15.927 -0.5345 -0.1850  0.1294
 6372TIP3   OH240530   1.058   1.062   0.768 -0.2202 -0.2621 -0.0814
 6372TIP3    H140531   1.028   0.980   0.730  0.4588  0.0023 -1.2598
 6372TIP3    H240532   0.979   1.103   0.804 -0.7334 -0.9500 -0.4089
 6373TIP3   OH240533   5.757   0.211  10.807  0.3700  0.1555 -0.1905
 6373TIP3    H140534   5.715   0.258  10.879  0.1854  0.1644 -0.3047
 6373TIP3    H240535   5.841   0.255  10.796  0.5604 -0.0871  0.2713
 6374TIP3   OH240536   4.882   0.709   5.139 -0.2039  0.1931 -0.2726
 6374TIP3    H140537   4.838   0.685   5.058  0.4998 -0.7100 -0.4027
 6374TIP3    H240538   4.891   0.804   5.134  1.3509  0.0108 -2.0638
 6375TIP3   OH240539   5.616   5.322   1.170 -0.4641 -0.2362 -0.1927
 6375TIP3    H140540   5.535   5.349   1.211 -0.5833 -1.2877  0.3079
 6375TIP3    H240541   5.681   5.323   1.241  0.1879  1.4267 -0.7611
 6376TIP3   OH240542   3.793   5.959   6.186 -0.8733 -0.1217 -0.8496
 6376TIP3    H140543   3.715   5.964   6.241 -0.0264  0.4131  0.3513
 6376TIP3    H240544   3.816   6.050   6.169  1.9594 -0.0225  2.5266
 6377TIP3   OH240545   2.922   2.972   4.703  0.2027 -0.4252  0.1861
 6377TIP3    H140546   2.967   2.888   4.705 -0.9764 -1.1596 -1.4485
 6377TIP3    H240547   2.840   2.956   4.749  0.5711  0.2571  1.1138
 6378TIP3   OH240548   2.363   3.790   0.758  0.4376  0.4669  0.7917
 6378TIP3    H140549   2.456   3.806   0.749  0.1615  0.8024 -2.7456
 6378TIP3    H240550   2.354   3.695   0.759  0.7710  0.4323  0.4555
 6379TIP3   OH240551   4.087   2.677   5.721  0.3331  0.0548 -0.1895
 6379TIP3    H140552   4.174   2.663   5.684 -0.5144 -1.0259 -1.9272
 6379TIP3    H240553   4.102   2.727   5.801  2.4100  1.4536 -1.3524
 6380TIP3   OH240554   0.273   0.750   0.796 -0.3398  0.5976  0.0359
 6380TIP3    H140555   0.365   0.729   0.807 -0.0975  0.6598 -1.5803
 6380TIP3    H240556   0.268   0.846   0.804 -0.5695  0.4632  1.8690
 6381TIP3   OH240557   0.687   1.039  13.757  0.1069  0.0333  0.0930
 6381TIP3    H140558   0.612   1.086  13.720 -0.4111  0.4667  1.6054
 6381TIP3    H240559   0.743   1.108  13.792  1.7548 -0.2197 -1.8724
 6382TIP3   OH240560   4.630   5.552  13.898  0.1471  0.0964 -0.2945
 6382TIP3    H140561   4.683   5.542  13.819  1.7423  0.3301  0.7040
 6382TIP3    H240562   4.693   5.572  13.967 -1.2320  0.1626  0.9991
 6383TIP3   OH240563   2.192   0.643  14.176  0.3446 -1.1187 -0.4587
 6383TIP3    H140564   2.284   0.616  14.182  0.3624 -1.2676 -1.3190
 6383TIP3    H240565   2.160   0.603  14.096 -0.1758 -0.1959 -0.7342
 6384TIP3   OH240566   3.941   0.450   2.059  0.1843  0.2409 -0.0805
 6384TIP3    H140567   3.948   0.434   1.965  2.5155 -0.8088  0.2062
 6384TIP3    H240568   3.865   0.399   2.087  0.0055 -0.1603 -1.2556
 6385TIP3   OH240569   2.267   3.054   5.724  0.1614  0.1679  0.0059
 6385TIP3    H140570   2.273   3.123   5.791 -1.3892 -0.3068  0.6707
 6385TIP3    H240571   2.295   2.974   5.769 -2.6499 -0.5159  0.7291
 6386TIP3   OH240572   5.761   2.807   0.801 -0.2179  0.4137 -0.4984
 6386TIP3    H140573   5.710   2.817   0.721 -2.1784 -0.2573  0.5901
 6386TIP3    H240574   5.737   2.883   0.854  1.9750  1.5062 -0.9350
 6387TIP3   OH240575   4.797   0.880   2.590  0.3496  0.5024 -0.2924
 6387TIP3    H140576   4.782   0.933   2.669 -1.2980  1.4295 -1.1514
 6387TIP3    H240577   4.826   0.943   2.524 -1.7827  0.4481 -1.3749
 6388TIP3   OH240578   1.108   5.212  13.551  0.1497 -0.1576 -0.0418
 6388TIP3    H140579   1.093   5.261  13.470 -0.6000  0.2084  0.3086
 6388TIP3    H240580   1.142   5.277  13.612 -1.3275  0.0610  0.5793
 6389TIP3   OH240581   5.023   1.694  14.165 -0.2802  0.0019  0.0175
 6389TIP3    H140582   5.063   1.608  14.176  0.5231  0.4444  0.7229
 6389TIP3    H240583   4.933   1.683  14.195 -0.1739 -0.5904  0.1173
 6390TIP3   OH240584   0.283   0.321   4.533  0.2470  0.1292 -0.1671
 6390TIP3    H140585   0.318   0.408   4.515 -0.7254  0.5335 -0.2055
 6390TIP3    H240586   0.209   0.312   4.473 -1.2513  0.3367  1.5348
 6391TIP3   OH240587   5.478   3.905   5.552 -0.3180  0.4474  0.0481
 6391TIP3    H140588   5.558   3.877   5.598  0.3443  0.8297 -0.8450
 6391TIP3    H240589   5.459   3.992   5.587 -0.4492  0.2861  0.3846
 6392TIP3   OH240590   0.632   2.008   5.586 -0.7751 -0.0618  0.0131
 6392TIP3    H140591   0.711   2.058   5.565 -0.9711  1.0927  1.8405
 6392TIP3    H240592   0.663   1.918   5.597  0.1178  0.2005 -0.2368
 6393TIP3   OH240593   5.465   2.320   1.186  0.2501 -0.3915 -0.3130
 6393TIP3    H140594   5.537   2.289   1.240  1.1635 -0.2603 -1.4157
 6393TIP3    H240595   5.389   2.321   1.244  1.2196 -0.1345  0.9836
 6394TIP3   OH240596   5.561   1.312  13.412  0.0907  0.0887  0.7743
 6394TIP3    H140597   5.582   1.334  13.502  0.2667  0.4874  0.6395
 6394TIP3    H240598   5.519   1.391  13.377 -1.2322 -0.5211  0.9000
 6395TIP3   OH240599   3.874   5.608  14.539  0.0683 -0.2425 -0.7567
 6395TIP3    H140600   3.895   5.664  14.464  1.2342  2.0656  1.1405
 6395TIP3    H240601   3.946   5.545  14.541  0.9064  0.6730 -0.7212
 6396TIP3   OH240602   0.729   4.311  11.376  0.2315  0.6609  0.5892
 6396TIP3    H140603   0.667   4.238  11.376  0.6273  0.2132  3.3504
 6396TIP3    H240604   0.776   4.302  11.293 -0.7676 -1.2821  0.1613
 6397TIP3   OH240605   3.734   6.383   4.728 -0.2578 -0.3857 -0.1344
 6397TIP3    H140606   3.676   6.311   4.753 -1.1295  0.1828 -0.4955
 6397TIP3    H240607   3.822   6.343   4.727 -0.6572 -1.3049  0.2014
 6398TIP3   OH240608   5.837   0.607  12.973  0.4334  0.1200 -0.4509
 6398TIP3    H140609   5.910   0.576  13.027 -0.1210  1.3381  1.0877
 6398TIP3    H240610   5.859   0.699  12.955 -0.4012  0.3086 -0.5272
 6399TIP3   OH240611   3.043   3.204  14.713  0.5338 -0.4728 -0.4189
 6399TIP3    H140612   3.000   3.174  14.632  2.3007 -0.8811 -1.2596
 6399TIP3    H240613   2.983   3.177  14.783 -1.0108 -0.1756 -1.5670
 6400TIP3   OH240614   0.489   4.370  12.153  0.4243  0.5799  1.0172
 6400TIP3    H140615   0.437   4.350  12.075 -0.0428 -0.9463  1.6921
 6400TIP3    H240616   0.546   4.442  12.125 -1.0265  1.3524 -0.1781
 6401TIP3   OH240617   4.381   1.420  16.364  0.3087  0.4336 -0.0996
 6401TIP3    H140618   4.383   1.470  16.283 -0.5464 -0.8617 -0.9514
 6401TIP3    H240619   4.445   1.464  16.421 -1.3597  3.3068 -0.2498
 6402TIP3   OH240620   3.806   3.888  11.790  0.0143 -0.0662  0.2086
 6402TIP3    H140621   3.743   3.906  11.860 -0.5872  2.1022 -0.7835
 6402TIP3    H240622   3.824   3.974  11.751  1.6792 -0.9569 -1.1776
 6403TIP3   OH240623   1.887   6.053  17.215  0.4448  0.3517 -0.1658
 6403TIP3    H140624   1.929   6.082  17.296 -1.4228  0.2405  0.8870
 6403TIP3    H240625   1.937   6.096  17.145  1.6895  0.9595  1.0633
 6404TIP3   OH240626   1.467   2.115   2.347  0.3048  0.2418  0.5337
 6404TIP3    H140627   1.430   2.067   2.420 -0.1980  1.7446  1.3197
 6404TIP3    H240628   1.467   2.206   2.376  1.4916  0.6974 -0.7684
 6405TIP3   OH240629   4.098   4.650   6.104 -0.5205 -0.0406 -0.0560
 6405TIP3    H140630   4.068   4.606   6.024  1.2655  1.3010 -1.5366
 6405TIP3    H240631   4.082   4.743   6.087  0.1890  0.2867  1.0198
 6406TIP3   OH240632   6.179   1.397  14.376  0.2440  0.2848  0.0596
 6406TIP3    H140633   6.149   1.437  14.295  1.6387  1.4654  0.0835
 6406TIP3    H240634   6.212   1.311  14.350 -2.6211 -0.9267 -0.0178
 6407TIP3   OH240635   5.882   3.693   5.113 -0.4413 -0.4540 -0.1015
 6407TIP3    H140636   5.791   3.681   5.088 -1.0226 -0.7261  1.9627
 6407TIP3    H240637   5.909   3.773   5.067 -1.2268 -1.1698 -1.9018
 6408TIP3   OH240638   6.105   2.831  12.762  0.4807 -0.1079 -0.3052
 6408TIP3    H140639   6.098   2.833  12.857 -1.5269 -0.1126 -0.4217
 6408TIP3    H240640   6.133   2.742  12.741  0.5466 -0.2209  0.2585
 6409TIP3   OH240641   1.686   0.217   5.761  0.2900 -0.1716  0.2849
 6409TIP3    H140642   1.712   0.138   5.714 -2.3198  0.2671 -2.2132
 6409TIP3    H240643   1.712   0.289   5.703 -1.0479  0.5425  0.5360
 6410TIP3   OH240644   1.035   3.583   0.138 -0.3723  0.2380  0.5570
 6410TIP3    H140645   0.968   3.536   0.088 -0.9012  1.5663 -0.0397
 6410TIP3    H240646   1.118   3.542   0.112 -0.9356 -1.6827  1.5989
 6411TIP3   OH240647   3.327   2.596  10.955  0.0505 -0.1491  0.0043
 6411TIP3    H140648   3.331   2.508  10.917  0.4885  0.3564 -1.1673
 6411TIP3    H240649   3.291   2.651  10.886 -0.3812  0.5767  0.7796
 6412TIP3   OH240650   3.147   5.691  13.720  0.3986  0.8234  0.4680
 6412TIP3    H140651   3.147   5.638  13.640 -0.2493 -0.4000  1.2524
 6412TIP3    H240652   3.181   5.776  13.692 -1.4805  1.0068 -1.5103
 6413TIP3   OH240653   0.110   1.813   3.187  0.4434  0.4604  0.6326
 6413TIP3    H140654   0.082   1.727   3.155 -0.1036  0.3109  1.5006
 6413TIP3    H240655   0.190   1.795   3.237  0.6249  0.5341  0.3730
 6414TIP3   OH240656   3.957   1.873   2.331 -0.4035 -0.6807 -0.2606
 6414TIP3    H140657   3.944   1.883   2.425  1.0607 -0.8543 -0.0221
 6414TIP3    H240658   3.947   1.779   2.315 -0.3184 -0.6952 -0.2273
 6415TIP3   OH240659   4.516   6.492   4.490  0.6024  0.2154  0.2867
 6415TIP3    H140660   4.484   6.556   4.426  1.6162  0.8429  0.3891
 6415TIP3    H240661   4.510   6.408   4.445 -1.4842  0.2430  0.4175
 6416TIP3   OH240662   3.334   5.685   1.339 -0.1002  0.3375 -0.6612
 6416TIP3    H140663   3.271   5.658   1.407  1.0192  1.2882  0.8338
 6416TIP3    H240664   3.290   5.667   1.256 -2.7501  1.7997  0.3078
 6417TIP3   OH240665   3.483   6.263   4.263 -0.2668 -0.2356  0.3110
 6417TIP3    H140666   3.554   6.326   4.256 -1.1633  0.6990 -0.9433
 6417TIP3    H240667   3.526   6.180   4.284  1.2240  0.2624 -0.6000
 6418TIP3   OH240668   0.799   4.922   2.756  0.3518  1.0139  0.6672
 6418TIP3    H140669   0.823   4.964   2.673  0.1126  0.1105  0.1313
 6418TIP3    H240670   0.793   4.995   2.818 -0.6121  1.8564 -0.3687
 6419TIP3   OH240671   4.065   1.396   2.057  0.2228  0.1909 -0.2903
 6419TIP3    H140672   4.130   1.436   1.999  0.1487  0.3403 -0.2736
 6419TIP3    H240673   4.072   1.445   2.139  3.1500 -2.5967  1.3197
 6420TIP3   OH240674   0.635   6.266  11.885 -0.1284 -0.2441 -0.3970
 6420TIP3    H140675   0.540   6.274  11.893 -0.0872  0.7684 -0.7911
 6420TIP3    H240676   0.649   6.185  11.837 -0.6713 -2.1182  2.3841
 6421TIP3   OH240677   0.029   2.881  13.834  0.2850  0.5724  0.2584
 6421TIP3    H140678   0.072   2.867  13.749  1.4523  2.3671  0.5080
 6421TIP3    H240679   0.000   2.793  13.860  2.1913 -0.4458 -0.8027
 6422TIP3   OH240680   2.873   6.683  11.221 -0.6218  0.8390 -0.0155
 6422TIP3    H140681   2.923   6.690  11.139 -1.5564  0.6006 -0.6173
 6422TIP3    H240682   2.939   6.693  11.290  0.4441 -0.5818 -0.7729
 6423TIP3   OH240683   2.081   5.441  11.092 -0.2348 -0.0825 -0.3288
 6423TIP3    H140684   2.016   5.395  11.145  1.3191  0.2102  1.9828
 6423TIP3    H240685   2.038   5.522  11.067 -0.8144  0.0775  1.0938
 6424TIP3   OH240686   5.488   2.331  12.074  0.1964  0.3837 -0.2392
 6424TIP3    H140687   5.511   2.366  12.160 -0.4826 -0.6680  0.3905
 6424TIP3    H240688   5.396   2.357  12.062 -0.2499 -0.9185  0.1418
 6425TIP3   OH240689   5.211   2.856  16.949 -0.1588  1.2588 -0.0387
 6425TIP3    H140690   5.220   2.792  16.878 -0.7971  2.4517 -1.2359
 6425TIP3    H240691   5.299   2.862  16.986 -0.2296 -0.8094  0.5903
 6426TIP3   OH240692   1.216   2.797   4.407 -0.3645  0.5947 -0.0992
 6426TIP3    H140693   1.197   2.883   4.369  3.9511  2.4341  1.2747
 6426TIP3    H240694   1.259   2.749   4.336  1.3018  1.3647  0.3455
 6427TIP3   OH240695   5.546   3.398  11.539 -0.1061 -0.3883  0.4414
 6427TIP3    H140696   5.463   3.356  11.514 -0.0734 -0.2507  0.1017
 6427TIP3    H240697   5.581   3.342  11.608  0.3246 -1.3648 -0.5427
 6428TIP3   OH240698   3.754   0.271   0.289 -0.0906  0.4054  0.0390
 6428TIP3    H140699   3.731   0.310   0.373  1.7418  1.5775  0.0593
 6428TIP3    H240700   3.824   0.327   0.256  0.7536 -1.3351 -1.2374
 6429TIP3   OH240701   6.628   6.311   3.227  0.3461  0.1083 -0.2571
 6429TIP3    H140702   6.637   6.380   3.292 -0.7069 -0.1699  0.1992
 6429TIP3    H240703   6.718   6.278   3.215  0.6806  0.7596  0.3770
 6430TIP3   OH240704   3.114   3.107  13.120 -0.5424  0.5526 -0.1567
 6430TIP3    H140705   3.162   3.163  13.181  0.8114 -0.1963 -0.5095
 6430TIP3    H240706   3.029   3.093  13.163 -0.1089  1.1033  0.9338
 6431TIP3   OH240707   5.019   2.137   3.399  0.4323  0.4635  0.0056
 6431TIP3    H140708   5.010   2.046   3.429 -4.1284  1.1131  1.4767
 6431TIP3    H240709   5.040   2.129   3.306 -0.1120 -2.1372  0.0277
 6432TIP3   OH240710   3.445   5.237  16.390 -0.4028 -0.2144 -0.4930
 6432TIP3    H140711   3.430   5.168  16.455  0.3834  0.1725  0.1136
 6432TIP3    H240712   3.357   5.265  16.364 -0.7487 -1.5945 -0.9319
 6433TIP3   OH240713   0.033   0.912   4.291 -0.0922 -0.2880 -0.0504
 6433TIP3    H140714   0.005   0.995   4.251  0.8791  0.9551  1.6785
 6433TIP3    H240715   0.092   0.939   4.361  0.3439 -2.4872  0.4857
 6434TIP3   OH240716   1.951   4.917   2.731  0.2875  0.3689 -0.3534
 6434TIP3    H140717   1.956   4.988   2.795 -4.1725  0.6712 -0.0655
 6434TIP3    H240718   1.960   4.961   2.646 -0.9917  1.0920 -0.1296
 6435TIP3   OH240719   1.802   3.193   0.634  0.0814 -0.1325  0.3091
 6435TIP3    H140720   1.751   3.244   0.698 -0.7072  1.6107 -1.6002
 6435TIP3    H240721   1.744   3.120   0.610 -0.5429  0.4688 -0.0450
 6436TIP3   OH240722   0.729   4.062   5.491 -0.1537  0.5266 -0.4062
 6436TIP3    H140723   0.796   4.024   5.433 -0.8050 -2.1176  0.4336
 6436TIP3    H240724   0.648   4.018   5.466 -0.7939  0.7067  1.2325
 6437TIP3   OH240725   3.317   4.080   2.499 -0.0472 -0.1479 -0.0823
 6437TIP3    H140726   3.341   4.103   2.589  0.2015 -1.4333  0.1999
 6437TIP3    H240727   3.289   3.988   2.504 -0.3801 -0.1281 -1.2550
 6438TIP3   OH240728   1.277   0.495   5.875 -0.0109  0.6343  0.1164
 6438TIP3    H140729   1.292   0.573   5.929  0.0144  0.5182  0.2785
 6438TIP3    H240730   1.211   0.522   5.812  0.6623  1.0735 -0.4282
 6439TIP3   OH240731   2.872   1.053  16.268 -0.7709 -0.0042 -0.3323
 6439TIP3    H140732   2.953   1.102  16.256  0.0325 -0.9565  0.9261
 6439TIP3    H240733   2.828   1.058  16.183  1.0238 -0.1732 -1.3200
 6440TIP3   OH240734   0.643   2.885  15.589 -0.1871 -0.2820  0.1596
 6440TIP3    H140735   0.583   2.945  15.634 -0.0677 -1.0284  1.3440
 6440TIP3    H240736   0.634   2.803  15.636  1.1018 -0.6530 -0.2252
 6441TIP3   OH240737   6.596   4.694  12.420 -0.4159 -0.0599  0.2179
 6441TIP3    H140738   6.590   4.781  12.379 -1.5814 -0.6129 -0.8603
 6441TIP3    H240739   6.535   4.640  12.370 -1.1368 -1.0455  2.0707
 6442TIP3   OH240740   0.793   3.361   4.848  0.0130  0.1166  0.2364
 6442TIP3    H140741   0.699   3.380   4.850  0.0048  0.1355 -0.2225
 6442TIP3    H240742   0.806   3.301   4.921 -0.5473 -0.6943 -0.2960
 6443TIP3   OH240743   1.831   3.959   1.592 -0.3712 -0.5227  0.1374
 6443TIP3    H140744   1.922   3.968   1.563  0.2335 -0.2044  1.9452
 6443TIP3    H240745   1.809   3.868   1.576  0.7557 -0.9495  0.9166
 6444TIP3   OH240746   6.722   2.538  16.493  0.0335  0.2789  0.6017
 6444TIP3    H140747   6.712   2.573  16.405  0.2730  0.5244  0.6679
 6444TIP3    H240748   6.635   2.543  16.531 -0.0441  0.2901  0.4211
 6445TIP3   OH240749   5.247   4.351  16.236  0.0370 -0.5843 -0.1182
 6445TIP3    H140750   5.152   4.345  16.247  0.2029 -2.9577  0.6496
 6445TIP3    H240751   5.274   4.261  16.216  2.1506  0.0027 -0.0964
 6446TIP3   OH240752   5.039   6.016   2.211 -0.2777  0.1066  0.2478
 6446TIP3    H140753   5.133   6.028   2.195  0.0194 -0.4861  1.4321
 6446TIP3    H240754   5.032   5.925   2.241 -0.7442  1.0332  3.3464
 6447TIP3   OH240755   2.387   0.049  14.334 -0.1863  0.8306  0.6311
 6447TIP3    H140756   2.322  -0.010  14.296 -1.5529  1.2958  2.1445
 6447TIP3    H240757   2.339   0.129  14.354  1.3087  1.9400  0.0046
 6448TIP3   OH240758   2.305   4.891   4.372  0.0737 -0.1308 -0.2916
 6448TIP3    H140759   2.349   4.962   4.418  0.1449 -0.9064  0.8844
 6448TIP3    H240760   2.262   4.840   4.441 -0.6818 -0.7504 -1.1850
 6449TIP3   OH240761   0.182   2.044  16.089  0.0762 -0.2684 -0.1833
 6449TIP3    H140762   0.114   2.035  16.155 -0.6982 -0.2428 -0.9523
 6449TIP3    H240763   0.264   2.025  16.135 -0.2547  1.3921  1.1691
 6450TIP3   OH240764   6.761   1.476  16.278 -0.6648  0.3348  0.7449
 6450TIP3    H140765   6.730   1.494  16.367 -1.4921  1.3932  0.2622
 6450TIP3    H240766   6.682   1.457  16.228 -0.4153  1.6428 -0.1816
 6451TIP3   OH240767   6.610   3.178  14.941  0.2557 -0.0666 -0.3264
 6451TIP3    H140768   6.661   3.232  15.001  2.1215 -1.4507 -0.5449
 6451TIP3    H240769   6.521   3.181  14.974  0.8271  0.9693  1.1970
 6452TIP3   OH240770   1.192   2.272  17.207  0.5367  0.7385 -0.1569
 6452TIP3    H140771   1.113   2.323  17.191 -0.1537 -0.3954 -0.5203
 6452TIP3    H240772   1.199   2.213  17.132  0.7171 -0.3964  0.7066
 6453TIP3   OH240773   2.317   1.215   7.146 -0.5085  0.3395 -0.0138
 6453TIP3    H140774   2.336   1.273   7.219  3.7313  2.0931 -2.1491
 6453TIP3    H240775   2.319   1.272   7.069 -2.4678 -1.7722 -1.7969
 6454TIP3   OH240776   2.148   0.290  15.663 -0.5129 -0.2279 -0.7925
 6454TIP3    H140777   2.104   0.222  15.613 -0.5736 -1.8140  1.2703
 6454TIP3    H240778   2.240   0.264  15.662 -0.4538 -0.0367 -0.4530
 6455TIP3   OH240779   0.002   1.360  11.029  0.0963  1.0024  0.2965
 6455TIP3    H140780  -0.022   1.297  10.961 -0.8176 -1.2804  2.5765
 6455TIP3    H240781  -0.081   1.391  11.064  0.5156  1.3174  1.0415
 6456TIP3   OH240782   5.077   3.301  14.185 -0.3969  0.1914 -0.1963
 6456TIP3    H140783   5.065   3.316  14.091  0.3219  1.4604 -0.1068
 6456TIP3    H240784   5.171   3.298  14.197 -0.4450 -2.3357  0.1807
 6457TIP3   OH240785   6.555   0.238  12.836  0.1239 -1.2467 -0.2886
 6457TIP3    H140786   6.538   0.217  12.744  0.3705 -0.1943 -0.5804
 6457TIP3    H240787   6.483   0.296  12.861  1.6308  0.9289 -0.7148
 6458TIP3   OH240788   5.878   1.433   0.580  0.4981  0.1257  0.1678
 6458TIP3    H140789   5.841   1.450   0.493  0.0974  0.0554  0.3237
 6458TIP3    H240790   5.811   1.463   0.641  1.5978  2.0855  0.4872
 6459TIP3   OH240791   2.251   1.600  12.976  0.3215  0.3605  0.3075
 6459TIP3    H140792   2.202   1.653  12.912 -0.5474 -0.8683 -0.0829
 6459TIP3    H240793   2.277   1.522  12.927  1.2969  0.2638  0.9642
 6460TIP3   OH240794   1.775   1.167   1.121  0.0280  0.0196 -0.0119
 6460TIP3    H140795   1.844   1.148   1.184 -0.5726 -0.9314  0.3862
 6460TIP3    H240796   1.722   1.088   1.119 -0.7205  0.5177 -0.7463
 6461TIP3   OH240797   4.172   1.453  17.237 -0.4739 -0.0495  0.9994
 6461TIP3    H140798   4.105   1.391  17.264  0.7122 -0.9400  1.9671
 6461TIP3    H240799   4.125   1.516  17.182 -1.6839 -1.8800 -0.1908
 6462TIP3   OH240800   4.758   2.870  14.632 -0.0374 -0.1502  0.1295
 6462TIP3    H140801   4.745   2.793  14.688  1.3914 -1.9133 -1.8091
 6462TIP3    H240802   4.670   2.905  14.619 -0.6687 -1.1321  1.4578
 6463TIP3   OH240803   4.309   1.220   0.078  0.4294  0.2429 -0.1006
 6463TIP3    H140804   4.400   1.198   0.099  0.0220  0.5932  2.3915
 6463TIP3    H240805   4.311   1.314   0.060  0.7505 -0.0213 -1.6000
 6464TIP3   OH240806   1.152   4.164  16.134  0.2243 -0.6766  0.1116
 6464TIP3    H140807   1.098   4.244  16.127  1.3476  0.0287 -0.9256
 6464TIP3    H240808   1.151   4.128  16.045  0.9343 -1.0075  0.2400
 6465TIP3   OH240809   4.401   3.660   4.591 -0.0163  0.1738 -0.1650
 6465TIP3    H140810   4.437   3.614   4.516 -1.3590  1.1357 -1.4684
 6465TIP3    H240811   4.417   3.752   4.573  1.3149  0.3608  1.6844
 6466TIP3   OH240812   5.069   4.325   3.945  0.0589 -0.2696 -0.0492
 6466TIP3    H140813   5.112   4.327   3.860  2.1005  2.1165  0.9115
 6466TIP3    H240814   5.109   4.251   3.991 -1.0004 -1.5199 -1.0518
 6467TIP3   OH240815   3.645   6.437  13.716  0.1754 -0.3836  0.1682
 6467TIP3    H140816   3.583   6.372  13.750  0.6360 -0.8186  0.1900
 6467TIP3    H240817   3.595   6.519  13.714  0.1979 -0.2775  2.1043
 6468TIP3   OH240818   2.621   2.562   0.355 -0.4957  0.3788  0.0651
 6468TIP3    H140819   2.554   2.630   0.360  1.6368  2.7153 -0.6353
 6468TIP3    H240820   2.620   2.534   0.264 -1.0644 -0.2139  0.2484
 6469TIP3   OH240821   6.425   6.428   0.253  0.1276  0.5567 -0.0825
 6469TIP3    H140822   6.474   6.484   0.313  0.6590  0.0338 -0.0094
 6469TIP3    H240823   6.415   6.346   0.301 -0.3209  0.4697 -0.3279
 6470TIP3   OH240824   0.861   3.931  15.790 -0.0944  0.6628 -0.2207
 6470TIP3    H140825   0.883   3.903  15.701  3.0516  2.3107 -0.0925
 6470TIP3    H240826   0.770   3.960  15.784 -0.5477 -0.9267 -2.4263
 6471TIP3   OH240827   1.764   3.566   3.912  0.1204 -0.2623  0.1960
 6471TIP3    H140828   1.842   3.613   3.943  0.1946 -0.3308  0.1145
 6471TIP3    H240829   1.797   3.480   3.885 -0.3296 -1.1066  2.2224
 6472TIP3   OH240830   4.867   0.245  16.440  0.2737 -0.2673  0.1900
 6472TIP3    H140831   4.900   0.330  16.469 -1.1116  0.6878 -0.9199
 6472TIP3    H240832   4.893   0.240  16.348 -0.3541 -0.6965  0.0350
 6473TIP3   OH240833   0.250   3.636  16.548  0.0900 -0.4556  0.0721
 6473TIP3    H140834   0.294   3.705  16.597  0.7702 -0.1657 -0.9217
 6473TIP3    H240835   0.228   3.676  16.464 -0.0365 -1.2739 -0.3019
 6474TIP3   OH240836   5.581   5.388  11.727 -0.3368  0.5889  0.3126
 6474TIP3    H140837   5.519   5.392  11.653  0.4959  0.5905 -0.4027
 6474TIP3    H240838   5.629   5.307  11.712  0.1225  0.8039  0.6293
 6475TIP3   OH240839   3.985   3.845   2.065 -0.3555 -0.5541  0.0784
 6475TIP3    H140840   3.991   3.752   2.045  0.7787 -0.8764  1.6835
 6475TIP3    H240841   4.022   3.853   2.153 -0.0340  1.4801 -0.1918
 6476TIP3   OH240842   2.085   1.990   1.599  0.0491 -0.6223 -0.2642
 6476TIP3    H140843   2.115   1.928   1.665 -0.2433  0.4662  0.9473
 6476TIP3    H240844   2.139   1.972   1.522  2.2974 -0.2010  1.1117
 6477TIP3   OH240845   0.422   2.669   5.329  0.5837 -0.0434  0.3246
 6477TIP3    H140846   0.427   2.585   5.283  0.4444 -0.4197  0.9970
 6477TIP3    H240847   0.445   2.649   5.419 -0.4173  0.4724  0.7053
 6478TIP3   OH240848   6.063   5.396  12.267 -0.3893  0.2784 -0.2248
 6478TIP3    H140849   6.126   5.368  12.200 -1.2080 -3.0639  0.2246
 6478TIP3    H240850   5.987   5.427  12.216  0.1648  0.7692 -0.7787
 6479TIP3   OH240851   5.551   2.905   1.939 -0.7341 -0.2382 -1.0090
 6479TIP3    H140852   5.602   2.972   1.894  0.1049 -0.5299 -0.5108
 6479TIP3    H240853   5.616   2.842   1.970 -1.2321  0.0961  0.8348
 6480TIP3   OH240854   2.352   6.597  13.855 -0.6345 -0.6719 -0.3588
 6480TIP3    H140855   2.282   6.600  13.790 -1.1802 -0.7969  0.2034
 6480TIP3    H240856   2.317   6.540  13.924 -1.0782  1.3711  1.1850
 6481TIP3   OH240857   0.915   3.862  16.683  0.6657  0.3489 -0.0597
 6481TIP3    H140858   0.950   3.931  16.626 -0.5474  0.7072 -0.3928
 6481TIP3    H240859   0.848   3.905  16.736 -0.6869 -0.7174 -0.8307
 6482TIP3   OH240860   5.179   5.877   2.552 -0.4947  0.4076 -1.1895
 6482TIP3    H140861   5.142   5.797   2.513 -0.7876  0.3207 -0.7444
 6482TIP3    H240862   5.105   5.919   2.594 -0.1972  0.5380 -0.7921
 6483TIP3   OH240863   0.797   4.974   3.468 -0.3859  0.0855 -0.4282
 6483TIP3    H140864   0.790   5.047   3.530  1.6670  0.8166 -0.9750
 6483TIP3    H240865   0.764   4.898   3.516  2.1778  0.3810  2.0718
 6484TIP3   OH240866   1.585   3.243  14.448 -0.1230  0.5604 -0.0493
 6484TIP3    H140867   1.602   3.277  14.360 -2.6336  1.3230 -0.3359
 6484TIP3    H240868   1.559   3.320  14.499  0.5488  0.0133  1.1625
 6485TIP3   OH240869   4.339   4.988  15.038 -0.2148 -0.4171 -0.4876
 6485TIP3    H140870   4.396   5.049  14.991 -0.1307  0.8471  1.1612
 6485TIP3    H240871   4.397   4.918  15.067  0.1660 -0.0024 -0.2531
 6486TIP3   OH240872   1.228   0.224  12.010 -0.2210 -0.2759 -0.0664
 6486TIP3    H140873   1.185   0.246  11.927 -0.6050  1.4132  0.5472
 6486TIP3    H240874   1.282   0.300  12.030 -0.2733 -0.5819  1.3397
 6487TIP3   OH240875   2.211   3.776  11.543  0.1642 -0.0800 -0.0409
 6487TIP3    H140876   2.251   3.825  11.616  0.8678 -2.2547  1.1321
 6487TIP3    H240877   2.119   3.804  11.543  0.8976  2.6914 -0.7662
 6488TIP3   OH240878   1.350   0.430  13.750 -0.5968  0.0797 -0.3600
 6488TIP3    H140879   1.352   0.515  13.707 -0.4286 -0.2619 -1.0497
 6488TIP3    H240880   1.354   0.367  13.678 -0.5993 -0.5107  0.1475
 6489TIP3   OH240881   3.168   4.122  11.508 -0.0174 -0.6813 -0.2287
 6489TIP3    H140882   3.078   4.091  11.505  0.1745 -1.3208  0.2735
 6489TIP3    H240883   3.205   4.094  11.424 -0.6273  0.7111 -0.9799
 6490TIP3   OH240884   0.017   2.465  12.223  0.1348 -0.3720  0.3010
 6490TIP3    H140885  -0.051   2.430  12.281  0.7514 -0.5880  0.8944
 6490TIP3    H240886   0.099   2.430  12.257  0.7869  1.6258  0.9020
 6491TIP3   OH240887   5.436   2.531   4.770  0.2048 -0.6496 -0.2452
 6491TIP3    H140888   5.484   2.605   4.733 -2.0119  0.9142 -0.1549
 6491TIP3    H240889   5.422   2.555   4.862 -2.1357 -0.2609 -0.6575
 6492TIP3   OH240890   0.245   3.947   4.186 -0.0919  0.0717  0.0116
 6492TIP3    H140891   0.197   3.865   4.175 -0.0515  0.1040 -0.4225
 6492TIP3    H240892   0.231   3.994   4.103  2.2003 -0.6935 -0.8877
 6493TIP3   OH240893   5.479   1.775  14.422  0.8403  0.3599  0.3189
 6493TIP3    H140894   5.391   1.761  14.386  0.7949  1.8044 -0.2174
 6493TIP3    H240895   5.535   1.714  14.374  1.2621  3.7955 -4.3107
 6494TIP3   OH240896   6.669   1.220   3.331  0.1933 -0.1410  0.0324
 6494TIP3    H140897   6.639   1.171   3.408 -0.4065  0.4775  0.2096
 6494TIP3    H240898   6.589   1.242   3.285  0.5358 -0.2402 -0.6124
 6495TIP3   OH240899   2.615   4.936  11.841  0.2308 -0.2781 -0.2516
 6495TIP3    H140900   2.629   4.906  11.751  0.6941  2.3749 -1.1680
 6495TIP3    H240901   2.701   4.928  11.882  0.3058 -0.3940 -0.4272
 6496TIP3   OH240902   5.966   5.421  11.222  0.5689 -0.5422  0.9135
 6496TIP3    H140903   6.016   5.470  11.287  0.7465 -1.5473  1.5488
 6496TIP3    H240904   5.878   5.459  11.226  0.5902 -0.5634  1.7113
 6497TIP3   OH240905   0.937   2.998  10.949  0.2207 -0.0445  0.3045
 6497TIP3    H140906   1.025   2.981  10.982 -0.7432 -2.3908  1.8915
 6497TIP3    H240907   0.922   2.932  10.882  0.0583  1.1235 -0.8669
 6498TIP3   OH240908   0.016   5.019  16.574 -0.4020 -0.9211  0.2264
 6498TIP3    H140909  -0.003   5.017  16.480 -0.5631 -0.1473  0.2394
 6498TIP3    H240910  -0.063   4.981  16.614 -1.9175  1.9939  0.2562
 6499TIP3   OH240911   3.257   4.336   3.728  0.7799 -0.4113 -0.2431
 6499TIP3    H140912   3.348   4.330   3.756  0.6631 -2.4560 -0.1630
 6499TIP3    H240913   3.208   4.288   3.795 -0.1885 -0.5585 -1.0255
 6500TIP3   OH240914   4.105   5.450  14.304  0.4993  0.0236 -0.2991
 6500TIP3    H140915   4.129   5.461  14.396  1.0634  0.0031 -0.4405
 6500TIP3    H240916   4.140   5.364  14.280 -0.5905 -0.4496 -0.2447
 6501TIP3   OH240917   1.625   5.316  14.146 -0.1588 -0.3065 -0.1731
 6501TIP3    H140918   1.532   5.296  14.157 -1.4796  4.7250  0.2349
 6501TIP3    H240919   1.635   5.333  14.053  0.3607 -0.7867 -0.2079
 6502TIP3   OH240920   1.485   2.901   4.550 -0.1549  0.0590 -0.4794
 6502TIP3    H140921   1.430   2.872   4.477 -1.1896  0.4908  0.1044
 6502TIP3    H240922   1.497   2.823   4.604 -0.7407  0.1071 -0.2741
 6503TIP3   OH240923   2.632   1.272   6.187 -0.2330  0.5470  1.1246
 6503TIP3    H140924   2.550   1.311   6.160 -0.1354  0.6087  0.9214
 6503TIP3    H240925   2.607   1.188   6.226 -0.3454  0.3173  0.5664
 6504TIP3   OH240926   1.627   3.500  16.529 -0.5978 -0.0465 -0.3151
 6504TIP3    H140927   1.568   3.568  16.497 -0.9841 -0.6224 -0.8400
 6504TIP3    H240928   1.715   3.532  16.506 -0.5989  1.2851  1.3435
 6505TIP3   OH240929   2.376   5.992  15.680 -0.0960  0.7617  0.0927
 6505TIP3    H140930   2.339   5.980  15.767  1.6022  2.2494  1.0740
 6505TIP3    H240931   2.448   6.054  15.692  0.8998  0.1600 -2.1885
 6506TIP3   OH240932   2.775   4.033   5.299 -0.2555  0.2296 -0.5449
 6506TIP3    H140933   2.844   3.972   5.324 -0.2692  0.3848 -0.1133
 6506TIP3    H240934   2.763   4.020   5.205 -0.9417 -1.1231 -0.2843
 6507TIP3   OH240935   0.284   2.876   5.195 -0.5775  0.6687 -0.1362
 6507TIP3    H140936   0.356   2.937   5.190  0.1494 -0.1101  0.5244
 6507TIP3    H240937   0.323   2.794   5.226 -0.7920 -1.2911 -4.4148
 6508TIP3   OH240938   3.602   4.823  16.902 -0.0589 -0.4427  0.2973
 6508TIP3    H140939   3.547   4.790  16.974 -1.2494 -0.6645 -0.6749
 6508TIP3    H240940   3.664   4.883  16.945  0.7989 -2.3180  1.8139
 6509TIP3   OH240941   5.924   2.387  15.445  0.2776 -0.3133  0.2532
 6509TIP3    H140942   5.883   2.470  15.422  0.2987 -0.5385 -0.6371
 6509TIP3    H240943   6.017   2.398  15.422  0.4277 -0.3281  0.8320
 6510TIP3   OH240944   0.944   4.172  16.324 -0.0732  0.0144 -0.0786
 6510TIP3    H140945   1.020   4.157  16.268 -0.3439  1.9143 -1.0661
 6510TIP3    H240946   0.958   4.117  16.400  1.1180 -1.4414 -1.2945
 6511TIP3   OH240947   0.230   0.195  16.918 -0.3847  0.1103  0.2833
 6511TIP3    H140948   0.193   0.133  16.980 -0.3963  0.5864  0.7654
 6511TIP3    H240949   0.161   0.211  16.855  0.2113 -1.7514 -0.9249
 6512TIP3   OH240950   1.302   5.863  12.867  0.4463 -0.3112  0.7239
 6512TIP3    H140951   1.271   5.818  12.946  2.4639 -1.7130  0.7847
 6512TIP3    H240952   1.273   5.806  12.795  0.6655 -0.3003  0.6256
 6513TIP3   OH240953   1.376   1.200   1.237  0.1121 -0.6035 -0.2996
 6513TIP3    H140954   1.354   1.206   1.330 -1.8367 -0.8344 -0.7152
 6513TIP3    H240955   1.338   1.278   1.197  0.1808 -0.9396 -1.0436
 6514TIP3   OH240956   1.806   2.858  16.815 -0.3622  0.1726  0.4272
 6514TIP3    H140957   1.896   2.825  16.815 -0.3017  0.1637 -1.9364
 6514TIP3    H240958   1.776   2.848  16.724 -2.2249  1.6030  0.8062
 6515TIP3   OH240959   2.381   4.623   1.360 -0.0332  0.2541  0.8727
 6515TIP3    H140960   2.312   4.614   1.294  0.4300 -0.7408  0.5028
 6515TIP3    H240961   2.462   4.626   1.309  0.1993  1.6837  1.2892
 6516TIP3   OH240962   2.324   6.480   0.393  0.0917 -0.0393  0.3781
 6516TIP3    H140963   2.373   6.416   0.444 -0.6148 -1.5067 -0.7291
 6516TIP3    H240964   2.243   6.492   0.443 -0.3811 -1.0907 -0.1083
 6517TIP3   OH240965   0.476   6.684   2.805  0.0701 -0.3324 -0.1155
 6517TIP3    H140966   0.524   6.684   2.723  2.5642 -0.2007  1.2686
 6517TIP3    H240967   0.521   6.620   2.860 -0.4068  0.8519  1.7524
 6518TIP3   OH240968   1.966   5.227  16.636 -0.1088  0.7084  0.0837
 6518TIP3    H140969   2.022   5.203  16.562  1.3685  1.7936  0.8028
 6518TIP3    H240970   1.919   5.305  16.607 -2.0824 -0.7294 -0.8728
 6519TIP3   OH240971   3.289   4.625  16.274 -0.7613  0.3205  0.1954
 6519TIP3    H140972   3.316   4.716  16.281 -1.7407  0.6833 -0.5143
 6519TIP3    H240973   3.357   4.576  16.321 -0.5920  1.4706  1.2156
 6520TIP3   OH240974   5.180   1.314   5.717 -0.0387 -0.4849  0.7986
 6520TIP3    H140975   5.110   1.378   5.728  2.0188  1.9417  0.7310
 6520TIP3    H240976   5.219   1.306   5.803  0.7805 -0.3198  0.4524
 6521TIP3   OH240977   5.015   3.865   1.301  0.0322  0.1821 -0.0174
 6521TIP3    H140978   4.996   3.957   1.284 -3.7217 -0.4580 -0.2897
 6521TIP3    H240979   5.026   3.826   1.214  2.7660  0.4550  0.1246
 6522TIP3   OH240980   4.959   3.929  15.721 -0.7050  0.4640  0.2689
 6522TIP3    H140981   5.041   3.977  15.708  0.2149 -0.8251  1.1594
 6522TIP3    H240982   4.933   3.903  15.632 -0.2487  1.0214 -0.0391
 6523TIP3   OH240983   1.247   1.364  13.370  0.1866 -0.0737 -0.1435
 6523TIP3    H140984   1.341   1.353  13.386  0.2200 -0.0137 -0.2913
 6523TIP3    H240985   1.211   1.391  13.455  0.1969 -0.7308  0.0709
 6524TIP3   OH240986   5.118   2.678   2.171  0.1626 -0.1943 -0.1648
 6524TIP3    H140987   5.048   2.685   2.236  1.1683 -0.6695  1.0098
 6524TIP3    H240988   5.153   2.766   2.164  1.7005 -0.5817  1.8789
 6525TIP3   OH240989   2.442   0.552  13.761 -0.5021  0.0180  0.6888
 6525TIP3    H140990   2.439   0.643  13.731  2.9670  0.0720  0.0141
 6525TIP3    H240991   2.497   0.507  13.697  0.1559 -1.8681  2.4481
 6526TIP3   OH240992   2.127   5.549   4.604 -0.5517  0.3922  0.0894
 6526TIP3    H140993   2.076   5.598   4.668  0.5284  0.8578  0.6265
 6526TIP3    H240994   2.106   5.589   4.520 -1.7447 -0.0248  0.1729
 6527TIP3   OH240995   4.909   5.502   3.012  0.4117 -0.4857 -0.8499
 6527TIP3    H140996   4.926   5.414   3.045  1.1404 -0.3431 -0.8314
 6527TIP3    H240997   4.840   5.536   3.069  0.2589 -0.9789 -0.7396
 6528TIP3   OH240998   6.617   3.309   4.625 -0.4031 -0.1579 -0.7121
 6528TIP3    H140999   6.704   3.274   4.605  0.1059 -0.2993  1.4399
 6528TIP3    H241000   6.593   3.265   4.707 -1.8745  0.9448 -0.5220
 6529TIP3   OH241001   2.945   4.986  15.777  0.1727  0.1145  0.5314
 6529TIP3    H141002   2.898   5.033  15.845  1.3853  2.1816  0.0211
 6529TIP3    H241003   3.034   5.021  15.780 -0.3447  2.6277 -3.9859
 6530TIP3   OH241004   4.679   6.121  13.232 -0.0545  0.1311  1.0101
 6530TIP3    H141005   4.588   6.094  13.248 -0.4038  0.4604 -0.2304
 6530TIP3    H241006   4.671   6.195  13.171  1.0789 -0.5617 -0.0334
 6531TIP3   OH241007   2.466   5.488   2.696  0.2782 -0.4830 -0.5740
 6531TIP3    H141008   2.527   5.418   2.674 -0.2702 -1.0400 -0.3495
 6531TIP3    H241009   2.453   5.535   2.614 -0.6539 -1.6800 -1.1538
 6532TIP3   OH241010   2.149   1.063   4.773  0.1591 -0.7732 -0.5422
 6532TIP3    H141011   2.131   1.154   4.799  2.1126  0.3799 -2.7443
 6532TIP3    H241012   2.109   1.056   4.686  2.1282 -1.1536 -1.4619
 6533TIP3   OH241013   4.243   0.538   6.082 -0.0086  0.1201  0.5286
 6533TIP3    H141014   4.263   0.462   6.027 -1.0763  0.2684 -0.1087
 6533TIP3    H241015   4.211   0.500   6.164  1.1454 -0.1021  0.8951
 6534TIP3   OH241016   2.977   5.380  14.288 -0.9514 -0.3823 -0.0575
 6534TIP3    H141017   3.033   5.311  14.252  2.7266  2.7955 -1.0878
 6534TIP3    H241018   2.930   5.415  14.213 -1.0150 -0.2579  0.0382
 6535TIP3   OH241019   4.241   5.517  15.545  0.3425 -0.4003 -0.2159
 6535TIP3    H141020   4.219   5.476  15.629  1.0197  1.0306  0.6901
 6535TIP3    H241021   4.176   5.482  15.484 -1.6423  0.2420  1.3999
 6536TIP3   OH241022   5.060   1.808   4.713 -0.2462 -0.4109 -0.4392
 6536TIP3    H141023   5.144   1.770   4.740  0.5076  0.4625 -1.4588
 6536TIP3    H241024   5.053   1.889   4.764 -0.6882 -0.6862 -0.0498
 6537TIP3   OH241025   5.494   1.624  13.814  0.3848 -0.1579 -0.5653
 6537TIP3    H141026   5.448   1.540  13.812  2.5820 -1.4265 -1.6679
 6537TIP3    H241027   5.542   1.623  13.896 -0.5470  0.6256  0.0121
 6538TIP3   OH241028   1.233   2.746   0.070  0.0651  0.1239 -0.3640
 6538TIP3    H141029   1.215   2.746   0.164  1.1631  0.3065 -0.1349
 6538TIP3    H241030   1.149   2.767   0.029  0.0153  2.2372  0.6939
 6539TIP3   OH241031   0.248   5.940  14.027  0.0380 -0.1933 -0.1083
 6539TIP3    H141032   0.153   5.932  14.026  0.1516 -2.5060  0.8366
 6539TIP3    H241033   0.274   5.932  13.935 -0.5983 -1.0639 -0.2203
 6540TIP3   OH241034   1.800   6.749  14.656 -0.5207  0.3129  0.1129
 6540TIP3    H141035   1.764   6.661  14.671 -2.1664  1.2468  2.3129
 6540TIP3    H241036   1.765   6.801  14.729  1.0804  2.6084 -0.6604
 6541TIP3   OH241037   3.780   5.858  15.445 -0.4394  0.0248 -0.0646
 6541TIP3    H141038   3.769   5.935  15.500  3.3389 -0.1433  1.1787
 6541TIP3    H241039   3.751   5.785  15.500 -0.2566  0.1932  0.2512
 6542TIP3   OH241040   3.199   4.878  15.475  0.1540 -0.3501 -0.0787
 6542TIP3    H141041   3.235   4.845  15.392  0.0923  1.1281 -0.7268
 6542TIP3    H241042   3.260   4.947  15.501  0.1340 -0.7651  1.0973
 6543TIP3   OH241043   1.635   2.770  12.468 -0.3128 -0.0183  0.0043
 6543TIP3    H141044   1.701   2.794  12.534 -0.1104 -0.2166 -0.1223
 6543TIP3    H241045   1.618   2.851  12.420 -0.0521  0.0004 -0.0566
 6544TIP3   OH241046   5.565   5.738  12.126 -0.2566 -0.0174  0.0925
 6544TIP3    H141047   5.544   5.759  12.217 -1.1485 -0.6860  0.0528
 6544TIP3    H241048   5.519   5.804  12.075 -1.3859 -0.8142  0.0539
 6545TIP3   OH241049   3.223   6.129   5.988  0.4380 -0.4225  0.2397
 6545TIP3    H141050   3.229   6.190   6.061  0.3699  1.0935 -0.9565
 6545TIP3    H241051   3.144   6.078   6.006  0.8082 -0.5641  1.5590
 6546TIP3   OH241052   6.161   1.667  11.937 -0.3588  0.3304  0.2500
 6546TIP3    H141053   6.116   1.742  11.977  1.6803  1.2517  1.0045
 6546TIP3    H241054   6.100   1.634  11.872 -1.4812  2.4453  0.1326
 6547TIP3   OH241055   0.267   6.635   4.351 -0.1731  0.4492  0.1306
 6547TIP3    H141056   0.275   6.724   4.317  2.0457 -0.4456 -1.9815
 6547TIP3    H241057   0.225   6.586   4.281 -1.0498 -0.2808  1.1329
 6548TIP3   OH241058   0.569   1.484   6.439  0.0361 -0.2083 -0.0270
 6548TIP3    H141059   0.563   1.475   6.534  0.8745 -0.2992  0.0268
 6548TIP3    H241060   0.564   1.579   6.424  0.4715 -0.1569  0.1524
 6549TIP3   OH241061   2.983   4.117  15.801 -0.1809  0.1948  0.2027
 6549TIP3    H141062   3.051   4.184  15.792  2.0080 -1.6636  1.6572
 6549TIP3    H241063   2.968   4.086  15.712 -0.1584  1.5647 -0.3072
 6550TIP3   OH241064   1.909   2.248   6.026 -0.5130 -0.0541 -0.0085
 6550TIP3    H141065   1.915   2.341   6.049 -3.0132  0.2743 -0.4026
 6550TIP3    H241066   1.944   2.202   6.102  0.9272  1.1837  0.1267
 6551TIP3   OH241067   1.221   5.892  15.891 -0.1386  0.0826  0.5707
 6551TIP3    H141068   1.157   5.822  15.874  2.0179 -1.5829 -1.3553
 6551TIP3    H241069   1.179   5.971  15.859 -0.9901 -1.0982 -1.4147
 6552TIP3   OH241070   2.779   1.147  15.192 -0.2546  0.5473 -0.3083
 6552TIP3    H141071   2.847   1.080  15.202 -0.4686  0.5888  2.0117
 6552TIP3    H241072   2.810   1.202  15.120  2.0167  0.3597  0.4524
 6553TIP3   OH241073   3.538   4.971   4.852  0.5052  0.4128 -0.8959
 6553TIP3    H141074   3.446   4.958   4.877  0.8690 -0.5117 -0.0183
 6553TIP3    H241075   3.552   5.066   4.862 -0.3435  0.5664 -1.0469
 6554TIP3   OH241076   4.354   6.717  11.255 -0.1902 -0.4176  0.3073
 6554TIP3    H141077   4.400   6.773  11.316 -0.6484  0.9005 -0.5196
 6554TIP3    H241078   4.415   6.645  11.238  1.0868  0.6556  0.1506
 6555TIP3   OH241079   2.057   0.195   6.452 -0.1344 -0.5383 -0.2167
 6555TIP3    H141080   2.071   0.107   6.487 -2.1150 -0.4188  1.0914
 6555TIP3    H241081   2.013   0.180   6.368  1.3610 -0.7787 -0.9943
 6556TIP3   OH241082   2.944   2.539  12.121  0.2686  0.3510  1.0120
 6556TIP3    H141083   3.004   2.497  12.183  1.7911  0.9736  0.0307
 6556TIP3    H241084   2.967   2.632  12.125  2.4832  0.1477 -2.4637
 6557TIP3   OH241085   4.612   2.876   6.462 -0.1681  0.1936  0.4670
 6557TIP3    H141086   4.598   2.950   6.403 -1.6512 -0.4653 -0.0632
 6557TIP3    H241087   4.525   2.855   6.495 -0.0042 -2.0704 -0.3566
 6558TIP3   OH241088   0.852   0.515  11.759  0.0996  0.1375 -0.2056
 6558TIP3    H141089   0.881   0.604  11.737 -2.5666  1.3122  0.6192
 6558TIP3    H241090   0.791   0.527  11.831  0.2505 -2.4970  0.4636
 6559TIP3   OH241091   1.599   0.732   2.021 -0.4143 -0.3225  0.0230
 6559TIP3    H141092   1.526   0.703   1.966 -1.9940 -1.5081  2.5520
 6559TIP3    H241093   1.660   0.658   2.021 -0.4848 -0.3807 -0.0265
 6560TIP3   OH241094   4.870   1.462   4.682 -0.5745 -0.2570 -0.2123
 6560TIP3    H141095   4.941   1.399   4.670 -0.8109 -1.1039  2.2702
 6560TIP3    H241096   4.790   1.412   4.665 -0.6775  0.1876 -1.1121
 6561TIP3   OH241097   3.193   0.143   5.324  0.6822 -0.6687  0.6901
 6561TIP3    H141098   3.251   0.137   5.400  1.9877 -1.0182 -0.2990
 6561TIP3    H241099   3.252   0.141   5.249 -0.7276 -3.8527 -0.4825
 6562TIP3   OH241100   0.813   0.628  14.848  0.0170  0.3475 -0.0789
 6562TIP3    H141101   0.730   0.658  14.885 -0.1578  0.9273 -0.9137
 6562TIP3    H241102   0.797   0.623  14.754  0.9239  0.4761 -0.2492
 6563TIP3   OH241103   3.723   5.439  11.928 -1.1101  0.3034  0.0049
 6563TIP3    H141104   3.641   5.439  11.878 -1.3845  0.3914  0.4576
 6563TIP3    H241105   3.752   5.348  11.925 -0.5567  0.4972 -1.2438
 6564TIP3   OH241106   0.512   3.973   3.183  0.1670 -0.1520 -0.1606
 6564TIP3    H141107   0.539   4.056   3.144  1.6359  0.1626  1.4099
 6564TIP3    H241108   0.437   3.945   3.130 -1.7049  3.1688  0.4381
 6565TIP3   OH241109   3.360   1.880   6.296  0.2720  0.2892 -0.0820
 6565TIP3    H141110   3.317   1.931   6.365 -1.2266 -0.5089 -0.3894
 6565TIP3    H241111   3.384   1.798   6.338  2.5578  1.1125  0.3743
 6566TIP3   OH241112   5.114   3.559   4.901  0.0675 -0.4208 -0.1401
 6566TIP3    H141113   5.125   3.491   4.834  1.6970 -0.8251  0.4815
 6566TIP3    H241114   5.074   3.514   4.975  1.0542 -0.7007  0.2350
 6567TIP3   OH241115   0.342   5.262   0.933  0.0427  0.4120  0.0840
 6567TIP3    H141116   0.381   5.350   0.936  0.2860  0.3018  0.2610
 6567TIP3    H241117   0.366   5.223   1.017 -0.4329  0.3295  0.1834
 6568TIP3   OH241118   0.324   5.543   3.963 -0.1967 -0.0638 -0.1573
 6568TIP3    H141119   0.378   5.595   4.024  0.2755 -2.2680  1.4473
 6568TIP3    H241120   0.276   5.483   4.020 -0.0963 -1.9311 -1.9409
 6569TIP3   OH241121   0.221   5.778   4.440  0.5011 -0.0777 -0.3908
 6569TIP3    H141122   0.258   5.735   4.517  1.5128  1.7922  0.2523
 6569TIP3    H241123   0.168   5.849   4.475  1.1962  0.9831 -1.3856
 6570TIP3   OH241124   6.445   2.505   5.601 -0.4525  0.4930  0.6430
 6570TIP3    H141125   6.368   2.483   5.549 -2.2623  2.3472  2.3395
 6570TIP3    H241126   6.516   2.513   5.538 -1.3777 -2.1692 -0.8879
 6571TIP3   OH241127   6.237   3.174   2.208 -0.0253 -0.1503 -0.2625
 6571TIP3    H141128   6.300   3.246   2.204 -0.7504  0.5911  0.8400
 6571TIP3    H241129   6.289   3.095   2.194  1.2169  0.4084  0.9703
 6572TIP3   OH241130   6.647   5.284  11.086 -0.0970  0.3491  0.0666
 6572TIP3    H141131   6.635   5.371  11.046 -0.0817 -0.3586 -1.5819
 6572TIP3    H241132   6.689   5.302  11.170  0.2143  1.9202 -0.3812
 6573TIP3   OH241133   3.047   0.278  11.856 -0.1849  0.0389  0.4044
 6573TIP3    H141134   3.103   0.270  11.779  0.2044 -1.3435  0.8110
 6573TIP3    H241135   3.103   0.320  11.922 -0.5058  1.1842 -0.0297
 6574TIP3   OH241136   2.225   4.672  15.064 -0.1660 -0.0273  0.1539
 6574TIP3    H141137   2.279   4.746  15.034  2.4723 -1.7910  0.2168
 6574TIP3    H241138   2.186   4.703  15.146 -0.2342  1.7295 -0.4914
 6575TIP3   OH241139   5.044   6.321  12.696  0.7312 -0.3530  0.4618
 6575TIP3    H141140   5.074   6.402  12.655 -0.4715 -0.9983 -1.8641
 6575TIP3    H241141   5.119   6.291  12.748  1.9437  1.1214 -0.3769
 6576TIP3   OH241142   2.239   2.231  12.575  0.2486  0.1844 -0.1398
 6576TIP3    H141143   2.325   2.247  12.613  0.3494 -0.9239  0.1522
 6576TIP3    H241144   2.241   2.138  12.550  0.0692  0.7662 -2.5563
 6577TIP3   OH241145   3.302   3.779   4.162 -0.4842  0.1967 -0.2453
 6577TIP3    H141146   3.326   3.687   4.172 -0.2406  0.4485  1.9274
 6577TIP3    H241147   3.227   3.779   4.103 -0.5419 -1.3947 -0.1921
 6578TIP3   OH241148   1.003   6.268   6.399  0.1082 -0.0983 -0.3026
 6578TIP3    H141149   0.939   6.333   6.428  2.4148  3.0662 -1.6436
 6578TIP3    H241150   1.034   6.226   6.479 -0.8741  1.0597  0.7190
 6579TIP3   OH241151   1.393   4.267   1.152 -0.7161 -0.0297  0.3063
 6579TIP3    H141152   1.429   4.193   1.102 -0.1084  0.7303 -0.4292
 6579TIP3    H241153   1.359   4.325   1.085 -0.1107  0.9039  0.7928
 6580TIP3   OH241154   5.835   5.537   5.046  0.5971 -0.3341 -0.4107
 6580TIP3    H141155   5.778   5.572   4.977 -0.3949  0.4682  0.7761
 6580TIP3    H241156   5.787   5.462   5.081  0.3621  0.1934  0.4266
 6581TIP3   OH241157   2.472   5.415  11.118  0.0387  0.3608 -0.4652
 6581TIP3    H141158   2.535   5.374  11.177  1.0377 -0.0568 -1.7642
 6581TIP3    H241159   2.523   5.482  11.072 -1.5929  3.3774  1.7762
 6582TIP3   OH241160   5.314   5.772   6.633  0.3578  0.2381  0.0230
 6582TIP3    H141161   5.237   5.717   6.622  1.6142 -2.2917  2.7011
 6582TIP3    H241162   5.278   5.860   6.649 -1.8310 -0.4252 -0.8594
 6583TIP3   OH241163   1.531   1.317   0.474 -0.4309 -0.1082  0.4812
 6583TIP3    H141164   1.526   1.246   0.538  0.6618 -1.1532 -0.5361
 6583TIP3    H241165   1.607   1.294   0.419 -0.8198  1.1948 -0.6444
 6584TIP3   OH241166   2.582   6.492   3.705  0.7868  0.2871  0.8608
 6584TIP3    H141167   2.526   6.481   3.628  0.6994  3.1290  0.4089
 6584TIP3    H241168   2.527   6.463   3.778 -0.0568 -0.0917  0.1022
 6585TIP3   OH241169   5.492   4.643  13.358  0.2967 -0.6130  0.5827
 6585TIP3    H141170   5.419   4.669  13.302 -0.6592 -2.8846  0.6903
 6585TIP3    H241171   5.544   4.723  13.367 -1.9097  0.9744  0.1343
 6586TIP3   OH241172   5.134   6.688   4.472 -0.6592 -0.6524  0.5992
 6586TIP3    H141173   5.200   6.629   4.508 -0.4926 -0.1489  1.1287
 6586TIP3    H241174   5.103   6.738   4.547 -0.4715  0.2506  0.0921
 6587TIP3   OH241175   4.300   2.769  11.955 -0.0051  0.2108 -0.4293
 6587TIP3    H141176   4.208   2.792  11.966  0.1729 -0.1491  3.0421
 6587TIP3    H241177   4.307   2.680  11.991  1.6513  0.1014 -0.9221
 6588TIP3   OH241178   5.510   3.628  15.481 -0.1427  0.8871  0.4144
 6588TIP3    H141179   5.473   3.627  15.569  2.4224  0.8051  1.5812
 6588TIP3    H241180   5.572   3.700  15.482  1.2595 -0.2526 -0.7011
 6589TIP3   OH241181   6.525   5.185  14.635  0.0766 -0.0816 -0.3760
 6589TIP3    H141182   6.463   5.128  14.591 -1.6222  0.8021  0.7781
 6589TIP3    H241183   6.526   5.265  14.582  1.6979 -0.7484 -1.4318
 6590TIP3   OH241184   5.793   2.448   1.073  0.0642  0.1505  0.1932
 6590TIP3    H141185   5.701   2.460   1.049 -0.5532 -0.0071  2.3168
 6590TIP3    H241186   5.813   2.523   1.129  0.7142 -0.6894  1.1246
 6591TIP3   OH241187   1.314   4.384   1.822 -0.3567  0.6755  0.3189
 6591TIP3    H141188   1.276   4.327   1.888  0.5927 -0.9729 -0.5050
 6591TIP3    H241189   1.403   4.352   1.811  0.6082  3.0141  0.5896
 6592TIP3   OH241190   6.526   3.930  17.218 -0.2992  0.4111  0.4819
 6592TIP3    H141191   6.570   4.015  17.219 -0.2278  0.4509 -1.4896
 6592TIP3    H241192   6.494   3.921  17.129 -0.3813 -1.6073  0.6606
 6593TIP3   OH241193   4.336   0.972  14.815 -0.4981  0.5632  0.0857
 6593TIP3    H141194   4.418   0.924  14.822 -1.6682 -1.5674 -0.1170
 6593TIP3    H241195   4.296   0.965  14.902 -1.2678  0.0216 -0.2994
 6594TIP3   OH241196   2.844   0.800  16.405 -0.7246  0.1013  0.8303
 6594TIP3    H141197   2.921   0.753  16.437 -1.1939 -1.4373 -0.2160
 6594TIP3    H241198   2.880   0.869  16.349 -0.0578 -1.6943 -1.1094
 6595TIP3   OH241199   3.157   3.816   4.388 -0.5868 -0.5640 -0.5423
 6595TIP3    H141200   3.217   3.864   4.331 -0.5727 -1.1212 -1.0077
 6595TIP3    H241201   3.196   3.729   4.396 -0.9256 -0.6845 -0.2105
 6596TIP3   OH241202   4.823   3.822   3.130  0.8237 -0.1745 -0.1274
 6596TIP3    H141203   4.851   3.771   3.054 -0.0208 -2.0951  0.7589
 6596TIP3    H241204   4.854   3.771   3.205 -3.1888 -1.4732  0.8863
 6597TIP3   OH241205   4.750   0.565  15.432  0.1340 -0.1645  0.1805
 6597TIP3    H141206   4.826   0.582  15.489  0.3702 -1.4276  0.2734
 6597TIP3    H241207   4.675   0.568  15.491  0.0537  1.4490  0.0263
 6598TIP3   OH241208   2.766   5.702  12.193 -0.5447 -0.1189  0.2161
 6598TIP3    H141209   2.672   5.689  12.177 -0.4239  1.8874 -3.4452
 6598TIP3    H241210   2.798   5.616  12.221 -3.1084 -1.5055 -0.7346
 6599TIP3   OH241211   1.088   2.919  14.616 -0.0219  0.2198 -0.3652
 6599TIP3    H141212   1.109   2.917  14.709 -0.0793 -1.5777 -0.3590
 6599TIP3    H241213   1.103   3.010  14.590  0.5439  0.6243  1.2659
 6600TIP3   OH241214   1.250   5.967   0.775 -0.4237 -0.0016 -0.2077
 6600TIP3    H141215   1.298   5.967   0.692 -0.3501 -0.5361 -0.1694
 6600TIP3    H241216   1.158   5.965   0.749 -0.4529  1.2782 -0.2845
 6601TIP3   OH241217   5.964   4.026   3.311 -0.1676 -0.6812 -1.0293
 6601TIP3    H141218   5.939   3.954   3.370 -0.8569  0.0828 -0.3672
 6601TIP3    H241219   6.030   4.075   3.359 -1.4258  0.5119 -0.4329
 6602TIP3   OH241220   4.391   1.536   2.684  0.7465 -0.5203 -0.1640
 6602TIP3    H141221   4.337   1.528   2.763  0.5739 -0.0387 -0.2304
 6602TIP3    H241222   4.365   1.460   2.631  1.1045 -1.0306  0.3781
 6603TIP3   OH241223   1.092   6.643   0.265 -0.0454  0.3026  0.2383
 6603TIP3    H141224   1.107   6.671   0.355  1.7297  0.9946 -0.2202
 6603TIP3    H241225   1.176   6.608   0.236 -0.2341  1.1258 -1.4805
 6604TIP3   OH241226   0.211   6.299   4.582  0.2664  0.1199 -0.0122
 6604TIP3    H141227   0.286   6.356   4.566 -0.0005  0.1268 -1.3394
 6604TIP3    H241228   0.223   6.226   4.522 -0.1261 -0.5367  0.6847
 6605TIP3   OH241229   0.437   1.918   1.742  0.2715 -0.3191 -0.0647
 6605TIP3    H141230   0.482   1.946   1.821 -0.9661  1.4691  0.0674
 6605TIP3    H241231   0.352   1.886   1.773 -0.2578  0.4856 -0.6504
 6606TIP3   OH241232   1.324   3.366   0.340 -0.0196 -0.1107 -0.3441
 6606TIP3    H141233   1.275   3.298   0.294  2.4131 -0.7894 -2.1205
 6606TIP3    H241234   1.414   3.356   0.310  0.5078  3.8908 -0.6780
 6607TIP3   OH241235   3.093   3.988  12.163 -0.0023  0.3435 -0.7851
 6607TIP3    H141236   3.044   3.974  12.245  0.8546 -1.2302 -0.5025
 6607TIP3    H241237   3.164   4.047  12.188 -1.3878  2.2285 -1.0846
 6608TIP3   OH241238   2.158   1.115   3.251  0.5465 -0.1913 -0.2992
 6608TIP3    H141239   2.094   1.182   3.227 -1.5917 -0.6331  3.4134
 6608TIP3    H241240   2.121   1.034   3.217 -0.9162 -0.4156  1.6621
 6609TIP3   OH241241   2.696   2.989   4.871  0.1214 -0.1187  0.6800
 6609TIP3    H141242   2.601   2.982   4.869  0.0077  1.2220  0.4561
 6609TIP3    H241243   2.716   3.017   4.960  0.1836  0.9301  0.3476
 6610TIP3   OH241244   0.302   4.194  11.309  0.6854 -0.2238 -0.1835
 6610TIP3    H141245   0.303   4.199  11.404  2.9317 -1.7982 -0.0466
 6610TIP3    H241246   0.238   4.125  11.290  1.2642 -0.9063  0.2920
 6611TIP3   OH241247   2.991   0.873   5.355 -0.2240  0.1296  0.1069
 6611TIP3    H141248   2.933   0.851   5.282 -0.4921  1.1730 -0.0050
 6611TIP3    H241249   3.059   0.928   5.317  0.7491 -0.9045  0.2812
 6612TIP3   OH241250   1.408   4.561  16.374  0.2704  0.2435  0.0585
 6612TIP3    H141251   1.421   4.557  16.469  0.1494  0.4967  0.0857
 6612TIP3    H241252   1.334   4.502  16.358  0.0632  0.4716  0.1651
 6613TIP3   OH241253   0.530   4.710  10.850  0.5826  0.2530 -0.4726
 6613TIP3    H141254   0.455   4.769  10.856  0.0132 -0.3756 -1.1533
 6613TIP3    H241255   0.600   4.764  10.813  0.3387  0.7326 -0.2416
 6614TIP3   OH241256   1.178   1.069   4.761  0.3995  0.1206 -0.2323
 6614TIP3    H141257   1.161   1.009   4.833 -2.4499  0.3473 -0.6200
 6614TIP3    H241258   1.184   1.012   4.684  0.8514  0.0958 -0.1820
 6615TIP3   OH241259   5.307   5.303   0.154 -0.3267  0.1553 -0.2876
 6615TIP3    H141260   5.399   5.294   0.176 -0.5158  1.0933  1.0158
 6615TIP3    H241261   5.285   5.223   0.107  1.0438 -0.2573 -0.2602
 6616TIP3   OH241262   6.768   3.781   4.546 -0.2767  0.3122  0.6131
 6616TIP3    H141263   6.725   3.848   4.598 -0.7785  0.1548  0.4053
 6616TIP3    H241264   6.797   3.716   4.610  1.5994  1.4400  1.0010
 6617TIP3   OH241265   1.041   5.155  11.624  0.0620  0.0191 -0.1403
 6617TIP3    H141266   1.086   5.119  11.548  0.3385  0.4609 -0.1878
 6617TIP3    H241267   0.953   5.118  11.619 -0.5564  1.5565 -1.7874
 6618TIP3   OH241268   3.000   6.164  17.074 -0.5494 -0.1443  0.0922
 6618TIP3    H141269   3.009   6.256  17.102 -2.0619  1.1866 -3.2810
 6618TIP3    H241270   3.090   6.134  17.063 -0.0199  1.0275  0.9120
 6619TIP3   OH241271   1.187   4.719  15.721 -0.0532 -0.2218  0.8690
 6619TIP3    H141272   1.171   4.786  15.787  1.2956 -1.3558  2.4558
 6619TIP3    H241273   1.106   4.669  15.717 -0.1183 -0.2093  1.7917
 6620TIP3   OH241274   1.918   5.456  12.505  0.0043  0.8934  0.0442
 6620TIP3    H141275   1.827   5.426  12.508  0.0122  0.9712  1.6780
 6620TIP3    H241276   1.918   5.540  12.549  0.8288  1.0309 -0.1970
 6621TIP3   OH241277   5.552   1.923  14.091 -0.3886 -0.2252 -0.3001
 6621TIP3    H141278   5.548   1.933  13.996  1.9219  0.8423 -0.3547
 6621TIP3    H241279   5.470   1.880  14.114 -0.1533 -2.4383 -3.0267
 6622TIP3   OH241280   5.310   2.529   1.010 -0.1594  0.3126  0.1802
 6622TIP3    H141281   5.384   2.537   0.949 -0.7571  0.5007 -0.5473
 6622TIP3    H241282   5.331   2.455   1.065  0.7304  0.5785  0.2050
 6623TIP3   OH241283   1.785   1.010   0.063 -0.0005 -0.2768  0.2358
 6623TIP3    H141284   1.863   0.993   0.115  0.8822 -1.2135 -1.3210
 6623TIP3    H241285   1.716   1.029   0.128  1.2105 -0.6397  1.6779
 6624TIP3   OH241286   6.340   0.810  16.080 -0.5193 -0.2191  0.0492
 6624TIP3    H141287   6.330   0.873  16.009 -0.6289 -0.3293 -0.0344
 6624TIP3    H241288   6.415   0.841  16.130 -0.9278  0.3014  0.3487
 6625TIP3   OH241289   4.546   3.064   0.121 -0.1861  0.7389  0.4280
 6625TIP3    H141290   4.554   3.105   0.207 -0.6813  2.7305 -0.4050
 6625TIP3    H241291   4.452   3.059   0.105 -0.1816 -1.7207  0.8972
 6626TIP3   OH241292   4.162   4.713   2.117 -0.5570 -0.7286  0.1165
 6626TIP3    H141293   4.246   4.749   2.146 -1.0532  0.8725 -0.3016
 6626TIP3    H241294   4.185   4.640   2.060  0.5844  0.2253 -0.6725
 6627TIP3   OH241295   3.086   5.416   4.050 -0.3890  0.0476  0.4814
 6627TIP3    H141296   3.063   5.492   3.998 -0.5764  0.6173  1.3773
 6627TIP3    H241297   3.095   5.345   3.986  2.3984  1.3166 -0.7201
 6628TIP3   OH241298   4.444   4.152   4.700  0.1904 -0.6535  0.1097
 6628TIP3    H141299   4.471   4.212   4.631  3.4925 -0.3981  1.4688
 6628TIP3    H241300   4.424   4.070   4.653 -1.8634  0.6438 -1.4829
 6629TIP3   OH241301   6.326   3.054   4.275  0.1132 -0.7952 -0.8597
 6629TIP3    H141302   6.295   3.042   4.365  0.3002 -0.1343 -0.7009
 6629TIP3    H241303   6.324   2.966   4.238  1.8460 -1.4111  0.3784
 6630TIP3   OH241304   6.634   2.601   0.876 -0.0153  0.1925  0.2612
 6630TIP3    H141305   6.660   2.684   0.836  2.3988 -1.0338 -0.9247
 6630TIP3    H241306   6.540   2.594   0.857  0.0294  1.9684 -0.8622
 6631TIP3   OH241307   2.599   0.335  12.767 -0.9385 -0.6268 -0.4252
 6631TIP3    H141308   2.550   0.275  12.710  0.4376 -0.9466 -1.3361
 6631TIP3    H241309   2.686   0.297  12.772 -0.5637  0.3027  0.5627
 6632TIP3   OH241310   5.232   1.767  16.937 -0.0030 -0.1863  0.4557
 6632TIP3    H141311   5.299   1.709  16.900 -1.3757 -2.2578  1.0186
 6632TIP3    H241312   5.178   1.709  16.991 -1.7784  1.5444  0.6466
 6633TIP3   OH241313   1.717   3.705   1.098 -0.2147  0.4867 -0.4104
 6633TIP3    H141314   1.781   3.697   1.028  0.0565 -0.3079 -0.0782
 6633TIP3    H241315   1.706   3.800   1.110 -1.3282  0.6849 -2.4888
 6634TIP3   OH241316   0.406   2.025   2.920  0.1141  0.1991  0.1185
 6634TIP3    H141317   0.423   2.037   3.013  1.1019 -0.4592  0.0346
 6634TIP3    H241318   0.334   1.963   2.916  0.4141 -0.1724  0.4415
 6635TIP3   OH241319   0.735   4.217  15.000  0.1341 -0.4111  0.2919
 6635TIP3    H141320   0.824   4.211  14.964  0.8167  1.0708  1.5679
 6635TIP3    H241321   0.684   4.262  14.933  0.7319  0.0418  0.1321
 6636TIP3   OH241322   4.240   4.155   5.766  0.0970  0.4135  0.1027
 6636TIP3    H141323   4.247   4.101   5.845  1.7299  0.5124  0.0744
 6636TIP3    H241324   4.316   4.131   5.714 -1.5244 -0.4198 -1.9946
 6637TIP3   OH241325   0.990   0.352  11.565 -0.3826 -0.6386  0.1862
 6637TIP3    H141326   0.942   0.412  11.622  0.8453 -0.5133  1.1537
 6637TIP3    H241327   1.073   0.337  11.611  0.1931 -1.4368 -1.0443
 6638TIP3   OH241328   2.248   3.702  12.778 -0.3812  0.0994 -0.5431
 6638TIP3    H141329   2.204   3.647  12.844  0.1525  0.2256 -0.0758
 6638TIP3    H241330   2.315   3.749  12.827 -0.2717  0.5335 -1.1019
 6639TIP3   OH241331   5.259   5.224   1.078  0.5927  0.0534  0.0060
 6639TIP3    H141332   5.329   5.172   1.039  1.0994  1.2001 -0.6515
 6639TIP3    H241333   5.179   5.176   1.056  0.9822 -0.0543 -1.2520
 6640TIP3   OH241334   6.408   0.406  13.810  0.2844  0.0299 -0.6457
 6640TIP3    H141335   6.356   0.430  13.886  0.2394  0.1502 -0.7140
 6640TIP3    H241336   6.365   0.329  13.774  0.3840 -0.1086 -0.4715
 6641TIP3   OH241337   5.897   5.399  12.918 -0.1132  0.4640  0.3635
 6641TIP3    H141338   5.898   5.455  12.840  0.1854 -1.3211 -0.9894
 6641TIP3    H241339   5.978   5.348  12.911  0.1004  0.5252  2.0646
 6642TIP3   OH241340   0.426   0.226   0.393  0.3773  0.1596 -0.9058
 6642TIP3    H141341   0.357   0.162   0.375  0.1181  0.2718 -0.3284
 6642TIP3    H241342   0.498   0.174   0.428  0.0760  0.2139 -0.2036
 6643TIP3   OH241343   0.746   1.545   0.350  0.5620 -0.1191  0.2510
 6643TIP3    H141344   0.759   1.595   0.269 -0.4426  1.7775  1.1901
 6643TIP3    H241345   0.831   1.551   0.395  1.1361 -1.2119 -0.6376
 6644TIP3   OH241346   5.807   0.546   0.470  0.2487  0.4686 -0.0619
 6644TIP3    H141347   5.796   0.452   0.454  0.8064  0.5275 -0.8241
 6644TIP3    H241348   5.850   0.550   0.556  1.4586 -0.0392 -0.6166
 6645TIP3   OH241349   4.731   4.531  12.748  0.5533  0.3907  0.0758
 6645TIP3    H141350   4.734   4.545  12.653  0.1163 -0.7391 -0.1160
 6645TIP3    H241351   4.797   4.464  12.764  0.8409  0.7943  0.6269
 6646TIP3   OH241352   2.355   3.073   1.315  0.2638 -0.3699  0.0571
 6646TIP3    H141353   2.335   3.046   1.226 -1.1321  2.0115 -0.4090
 6646TIP3    H241354   2.270   3.083   1.358  0.8366  0.3326  1.0888
 6647TIP3   OH241355   0.908   0.215  12.123 -0.0775 -0.0570 -0.4832
 6647TIP3    H141356   0.993   0.254  12.099  0.2735 -0.7360 -0.3699
 6647TIP3    H241357   0.858   0.288  12.158 -0.0392  0.6499 -1.8221
 6648TIP3   OH241358   5.150   0.606  12.067  0.0302 -0.1554  0.1150
 6648TIP3    H141359   5.211   0.572  12.002 -0.0991  0.2870 -0.2419
 6648TIP3    H241360   5.205   0.633  12.140  0.2209 -0.1901 -0.0160
 6649TIP3   OH241361   3.580   1.882   5.367  0.0069 -0.7799 -1.2382
 6649TIP3    H141362   3.515   1.816   5.342 -1.1547 -0.4070  0.6086
 6649TIP3    H241363   3.565   1.955   5.306 -0.8769 -0.9585 -1.2498
 6650TIP3   OH241364   3.326   1.309  13.579 -0.4037  0.3528 -0.0326
 6650TIP3    H141365   3.331   1.393  13.624  1.2770  0.3413 -0.1143
 6650TIP3    H241366   3.381   1.250  13.631 -1.4321 -0.6765 -0.0560
 6651TIP3   OH241367   3.797   2.602  14.528  0.0405 -0.1264  0.0318
 6651TIP3    H141368   3.749   2.684  14.536  0.5737  0.1571  0.4275
 6651TIP3    H241369   3.884   2.629  14.498  0.3565 -0.4989  0.5921
 6652TIP3   OH241370   1.064   5.821   6.318 -0.5843  0.1653  0.1255
 6652TIP3    H141371   1.145   5.801   6.271 -0.3923  1.8869 -0.3456
 6652TIP3    H241372   1.077   5.785   6.406  0.7165  0.4699  0.0688
 6653TIP3   OH241373   4.970   5.656   6.121  0.1724 -0.2073  0.1672
 6653TIP3    H141374   4.981   5.575   6.072  0.9098 -0.2468  0.3886
 6653TIP3    H241375   5.020   5.643   6.202  0.0023  0.3293  0.3677
 6654TIP3   OH241376   2.396   0.222  14.652  0.5462  0.3756  0.5105
 6654TIP3    H141377   2.440   0.271  14.722  0.0450 -0.7712  1.6849
 6654TIP3    H241378   2.382   0.135  14.690 -0.6401  0.0259 -0.6705
 6655TIP3   OH241379   2.043   3.993  16.786  0.0208 -0.3573  0.6009
 6655TIP3    H141380   2.131   4.031  16.794 -0.5962  0.8194  2.3281
 6655TIP3    H241381   1.990   4.063  16.748 -0.1580 -1.1721 -0.7369
 6656TIP3   OH241382   4.842   4.211   3.493 -0.0001  0.0886 -0.1463
 6656TIP3    H141383   4.893   4.143   3.447 -0.3664 -0.4451  0.2319
 6656TIP3    H241384   4.890   4.292   3.475  1.0635 -0.4214  0.3152
 6657TIP3   OH241385   1.454   2.234  11.504 -0.3739  0.2579 -0.0923
 6657TIP3    H141386   1.431   2.305  11.563  0.4188 -1.5147  2.5313
 6657TIP3    H241387   1.386   2.168  11.517  0.6030 -0.7719 -0.0043
 6658TIP3   OH241388   2.963   6.097   2.554 -0.3550 -0.1441  0.2326
 6658TIP3    H141389   2.948   6.169   2.493 -0.5682 -0.3213  0.0720
 6658TIP3    H241390   2.988   6.023   2.499 -0.6637 -0.3366  0.3445
 6659TIP3   OH241391   4.811   6.538   2.706  0.1946  0.2972 -0.1746
 6659TIP3    H141392   4.805   6.622   2.751 -1.7381  1.2148 -1.9820
 6659TIP3    H241393   4.895   6.541   2.660  0.7303  0.6538  0.7975
 6660TIP3   OH241394   3.120   2.411   3.738  0.6824  0.1293  0.1496
 6660TIP3    H141395   3.083   2.499   3.729 -0.8667 -0.4983 -0.0132
 6660TIP3    H241396   3.212   2.426   3.758  0.7909  1.7573 -1.3215
 6661TIP3   OH241397   4.713   2.562  13.737 -0.7207  0.3588 -0.0567
 6661TIP3    H141398   4.666   2.515  13.668  2.2984 -2.1519 -0.6429
 6661TIP3    H241399   4.743   2.494  13.797  0.7414  1.9657  1.1612
 6662TIP3   OH241400   0.515   0.686   0.049 -0.1573  0.2485 -0.3989
 6662TIP3    H141401   0.428   0.713   0.079 -1.0946 -0.7688 -2.0675
 6662TIP3    H241402   0.547   0.627   0.117 -0.9759  0.2596  0.0096
 6663TIP3   OH241403   1.515   2.096  11.801 -0.3267  0.1575 -0.3739
 6663TIP3    H141404   1.544   2.055  11.720  0.3352  1.4314 -0.8175
 6663TIP3    H241405   1.477   2.179  11.773  0.6162  0.9761  0.6618
 6664TIP3   OH241406   0.698   6.031  13.877  0.0180 -1.0432  0.0798
 6664TIP3    H141407   0.628   6.095  13.859 -1.3023 -2.9251 -1.9160
 6664TIP3    H241408   0.725   6.001  13.791  5.1169  1.2594  0.5011
 6665TIP3   OH241409   3.050   3.788  13.361 -0.0734 -0.6624 -0.1131
 6665TIP3    H141410   3.088   3.875  13.370 -1.8985  0.4016 -1.8837
 6665TIP3    H241411   3.065   3.747  13.446 -1.4661  2.3544  1.7728
 6666TIP3   OH241412   3.408   5.430  11.420 -0.3513  0.3018  0.3555
 6666TIP3    H141413   3.350   5.382  11.361  0.6887  0.3182 -0.6942
 6666TIP3    H241414   3.495   5.393  11.405  0.6773  3.0610 -1.1652
 6667TIP3   OH241415   2.987   0.665  15.815 -0.7646 -0.0759  0.3200
 6667TIP3    H141416   2.919   0.710  15.766 -0.7028  0.1095  0.4026
 6667TIP3    H241417   3.069   0.699  15.779 -0.6614  2.3565  2.5371
 6668TIP3   OH241418   0.275   5.460  12.507  0.6771  0.7911  0.0350
 6668TIP3    H141419   0.218   5.530  12.476 -2.2382 -0.6154  1.7909
 6668TIP3    H241420   0.339   5.504  12.563 -0.0379  2.2099 -0.2213
 6669TIP3   OH241421   3.642   6.318   1.771 -0.2198 -0.7118  0.1015
 6669TIP3    H141422   3.680   6.267   1.843  0.8825 -0.7234 -0.4585
 6669TIP3    H241423   3.713   6.324   1.707 -0.8374  0.2051 -0.5181
 6670TIP3   OH241424   3.679   0.593   2.736  0.7121  0.1294 -0.0638
 6670TIP3    H141425   3.608   0.539   2.770  1.5065 -0.0035  1.4883
 6670TIP3    H241426   3.744   0.530   2.704  1.1163  0.1704  0.6469
 6671TIP3   OH241427   2.273   6.348   4.474 -0.1976  0.4689  0.0589
 6671TIP3    H141428   2.337   6.394   4.528  0.5002  0.3342 -0.6206
 6671TIP3    H241429   2.295   6.255   4.485  1.6368  0.5148 -2.3805
 6672TIP3   OH241430   0.946   3.912   5.392  0.6667 -0.0546 -0.1989
 6672TIP3    H141431   1.010   3.869   5.449  1.4013  0.3727 -0.6789
 6672TIP3    H241432   0.948   3.860   5.311  0.0433 -0.3271 -0.0448
 6673TIP3   OH241433   1.964   2.239  13.066 -0.3392  0.1435  0.7441
 6673TIP3    H141434   1.925   2.289  13.138  1.1813 -0.1829  1.8358
 6673TIP3    H241435   2.026   2.300  13.026 -0.9210  0.2051 -0.0934
 6674TIP3   OH241436   2.036   4.001  14.992  0.1569 -0.0438 -0.2401
 6674TIP3    H141437   2.088   3.921  14.988 -0.2072 -0.2517 -1.5653
 6674TIP3    H241438   2.063   4.051  14.915 -3.9806 -1.7669 -3.2211
 6675TIP3   OH241439   3.520   5.129   2.492 -0.4197  0.2722 -0.0632
 6675TIP3    H141440   3.486   5.042   2.511 -0.8627  0.6475  0.9437
 6675TIP3    H241441   3.591   5.114   2.429 -1.0771 -0.7159 -0.5881
 6676TIP3   OH241442   4.408   4.110   1.211  0.0270  0.5288  0.3727
 6676TIP3    H141443   4.372   4.026   1.183  1.5434 -0.4706  1.3041
 6676TIP3    H241444   4.338   4.173   1.194 -1.4946 -1.0581  0.5417
 6677TIP3   OH241445   5.776   5.085  12.171  0.3559 -0.1698  0.0175
 6677TIP3    H141446   5.869   5.098  12.189  0.0460 -0.0674  1.6132
 6677TIP3    H241447   5.755   5.155  12.108  1.6187 -0.9927 -1.4093
 6678TIP3   OH241448   3.685   4.440  16.228 -0.3345 -0.3031 -0.3898
 6678TIP3    H141449   3.665   4.346  16.219 -1.4639 -0.3174  1.6876
 6678TIP3    H241450   3.706   4.468  16.139  0.5098 -2.6230 -1.0011
 6679TIP3   OH241451   6.111   3.520  15.787 -0.1120  0.0510  0.1752
 6679TIP3    H141452   6.128   3.522  15.692 -0.0806 -2.7823  0.0389
 6679TIP3    H241453   6.192   3.486  15.825 -1.0584 -1.4667  0.8943
 6680TIP3   OH241454   4.970   6.755   5.484  0.0888 -0.8821  0.1892
 6680TIP3    H141455   4.893   6.698   5.485 -0.5134 -0.1409 -0.9260
 6680TIP3    H241456   4.965   6.804   5.566 -1.6263  0.3700 -0.5882
 6681TIP3   OH241457   0.821   0.758   1.061 -0.5814  0.1229 -0.1561
 6681TIP3    H141458   0.762   0.735   1.133 -0.6479 -0.3610 -0.3592
 6681TIP3    H241459   0.780   0.835   1.021 -0.9687 -0.0803 -0.1633
 6682TIP3   OH241460   2.913   3.973   1.544  0.0849 -0.2545 -0.0324
 6682TIP3    H141461   2.939   3.973   1.636 -0.3429 -0.5794  0.0908
 6682TIP3    H241462   2.867   4.056   1.532  0.6373  0.0446 -0.0978
 6683TIP3   OH241463   4.985   4.847  15.975  0.4206  0.4826  0.0185
 6683TIP3    H141464   5.000   4.786  16.047 -0.1038  1.1717  0.7317
 6683TIP3    H241465   4.943   4.794  15.907  0.1832  0.0036  0.5305
 6684TIP3   OH241466   5.631   5.164   0.231 -0.1816 -0.0734 -0.2866
 6684TIP3    H141467   5.563   5.140   0.294 -0.8646  0.7956 -0.6488
 6684TIP3    H241468   5.710   5.122   0.262 -1.5187 -4.0860 -1.7109
 6685TIP3   OH241469   5.742   0.697  14.520 -0.3183 -0.1093  0.2588
 6685TIP3    H141470   5.767   0.649  14.441  1.4908  1.2238 -0.0473
 6685TIP3    H241471   5.646   0.697  14.519 -0.3401 -0.8652 -1.4539
 6686TIP3   OH241472   6.205   1.572   2.625 -0.3662 -0.8894  0.1951
 6686TIP3    H141473   6.156   1.502   2.582 -0.5610 -0.8002  0.2727
 6686TIP3    H241474   6.228   1.537   2.711  1.4174 -1.6873 -0.5545
 6687TIP3   OH241475   1.300   0.349   1.145 -0.3769 -0.4111 -0.5714
 6687TIP3    H141476   1.333   0.354   1.055 -0.7620 -1.3667 -0.7810
 6687TIP3    H241477   1.227   0.411   1.147  1.6548  2.1060  0.0386
 6688TIP3   OH241478   2.389   4.453  15.216  0.0042 -0.1080  0.0703
 6688TIP3    H141479   2.357   4.484  15.132 -0.8428 -1.9564 -0.3256
 6688TIP3    H241480   2.413   4.361  15.201  1.5685  0.0233  1.4071
 6689TIP3   OH241481   0.829   1.684   1.844 -0.2924 -0.1878 -0.1974
 6689TIP3    H141482   0.877   1.680   1.927 -0.7539  0.4290  0.1130
 6689TIP3    H241483   0.747   1.639   1.862  0.1364 -1.2148 -0.7193
 6690TIP3   OH241484   0.757   4.209   1.937 -0.3447  0.2671 -0.2515
 6690TIP3    H141485   0.750   4.158   2.018  1.8685 -0.8419 -0.6793
 6690TIP3    H241486   0.687   4.175   1.882  0.2726 -1.4534 -0.0370
 6691TIP3   OH241487   5.027   5.641  11.037  0.0078  0.7090  0.3475
 6691TIP3    H141488   5.016   5.599  10.952  0.8656 -0.2886  0.7168
 6691TIP3    H241489   4.998   5.731  11.023 -1.3073  0.1607 -0.6020
 6692TIP3   OH241490   2.924   1.366   0.587  0.6742  0.1544 -0.6138
 6692TIP3    H141491   2.999   1.313   0.613 -0.0284 -0.2952  0.5734
 6692TIP3    H241492   2.962   1.450   0.559  1.6499 -0.3010 -0.6864
 6693TIP3   OH241493   4.480   3.741  14.993  0.2343  0.9834 -0.1557
 6693TIP3    H141494   4.506   3.660  14.951  0.6296  1.0013  0.0524
 6693TIP3    H241495   4.543   3.806  14.962 -0.8619  1.5133 -1.3701
 6694TIP3   OH241496   2.214   0.937  11.399 -0.0174  0.1545 -0.0252
 6694TIP3    H141497   2.249   0.976  11.319  1.0105 -0.0666  0.2941
 6694TIP3    H241498   2.254   0.988  11.470  1.5161 -1.5480  0.4128
 6695TIP3   OH241499   5.625   5.677  16.713 -0.0856 -0.1202 -0.2068
 6695TIP3    H141500   5.669   5.597  16.684 -0.7140 -0.2244 -0.9024
 6695TIP3    H241501   5.568   5.701  16.640 -0.0586  0.8559  0.0751
 6696TIP3   OH241502   5.775   0.098   3.781  0.6847 -0.2866 -0.1959
 6696TIP3    H141503   5.701   0.054   3.739  0.7025 -0.4245 -0.0852
 6696TIP3    H241504   5.852   0.048   3.753  0.5488 -1.4006  1.3027
 6697TIP3   OH241505   5.274   0.137  16.414 -0.6201 -0.1199 -0.4922
 6697TIP3    H141506   5.196   0.175  16.454  0.5334  1.7828  0.0552
 6697TIP3    H241507   5.340   0.139  16.483  0.3246 -0.4043 -1.3618
 6698TIP3   OH241508   0.545   3.943  13.520  0.6101 -0.1834 -0.7051
 6698TIP3    H141509   0.591   3.871  13.563 -0.4007 -0.5331 -0.1736
 6698TIP3    H241510   0.464   3.902  13.486 -0.8734  1.0139  1.1766
 6699TIP3   OH241511   6.566   4.620   4.246 -0.5064 -0.4595  0.1029
 6699TIP3    H141512   6.479   4.582   4.235 -1.2035  0.3638  2.1199
 6699TIP3    H241513   6.616   4.553   4.293  0.4548 -1.4886 -2.2521
 6700TIP3   OH241514   2.854   2.129   2.840  0.3163  0.2204 -0.4756
 6700TIP3    H141515   2.861   2.033   2.845 -0.6483  0.0402 -2.0127
 6700TIP3    H241516   2.761   2.145   2.827  0.4611  1.3919 -0.1612
 6701TIP3   OH241517   3.617   4.863  14.153  0.1543 -0.3637 -0.2964
 6701TIP3    H141518   3.608   4.957  14.136  1.0495 -0.2403 -0.1190
 6701TIP3    H241519   3.628   4.857  14.248 -0.5477 -0.7096 -0.2278
 6702TIP3   OH241520   1.596   0.810   6.145 -0.0536 -0.1025  0.2967
 6702TIP3    H141521   1.590   0.814   6.241  0.0720  2.3814  0.2855
 6702TIP3    H241522   1.638   0.893   6.121  3.5591 -2.2906 -1.6997
 6703TIP3   OH241523   5.272   3.110  11.259  0.3209 -0.5790 -0.0215
 6703TIP3    H141524   5.311   3.070  11.181  0.6936  0.7616 -0.5379
 6703TIP3    H241525   5.230   3.189  11.228  0.7423  0.1444  1.1764
 6704TIP3   OH241526   5.939   2.713  11.149  0.7484 -0.2513 -0.2867
 6704TIP3    H141527   6.027   2.689  11.121  0.6492  0.4882 -1.2627
 6704TIP3    H241528   5.895   2.743  11.070 -0.3353 -0.4425  0.2125
 6705TIP3   OH241529   4.176   1.137   4.078  0.6664  0.1893 -0.5644
 6705TIP3    H141530   4.150   1.209   4.020 -1.5140 -0.7986 -0.9227
 6705TIP3    H241531   4.107   1.134   4.144 -0.2821 -2.6035 -1.5422
 6706TIP3   OH241532   1.687   4.299   4.021 -0.1700  0.0749 -0.3965
 6706TIP3    H141533   1.627   4.248   4.076 -0.4803  0.1776 -0.6345
 6706TIP3    H241534   1.647   4.296   3.933 -0.8014  1.6454 -0.1987
 6707TIP3   OH241535   0.429   1.094  16.999 -0.2537 -0.3467 -0.2972
 6707TIP3    H141536   0.469   1.177  16.976  0.7719 -0.5408  0.7209
 6707TIP3    H241537   0.433   1.090  17.094 -2.7775 -0.3618 -0.1358
 6708TIP3   OH241538   2.039   4.468  15.387 -0.3229 -0.1172 -0.4436
 6708TIP3    H141539   1.970   4.475  15.321 -0.1842 -0.1714 -0.5946
 6708TIP3    H241540   2.024   4.543  15.445 -0.5390 -0.1571 -0.4451
 6709TIP3   OH241541   2.076   3.380  15.358 -0.1662  0.2414 -0.0062
 6709TIP3    H141542   1.983   3.387  15.338  0.1499  1.5600 -1.1619
 6709TIP3    H241543   2.096   3.286  15.350 -1.2168  0.0534 -0.5059
 6710TIP3   OH241544   1.968   6.273   4.143  0.4753 -0.2776 -0.3400
 6710TIP3    H141545   2.055   6.310   4.150  0.2261  0.2184  0.2589
 6710TIP3    H241546   1.965   6.233   4.056  0.2961  2.2835 -1.6006
 6711TIP3   OH241547   1.631   5.980   4.007 -0.1722  0.2900  0.4833
 6711TIP3    H141548   1.721   5.974   3.974  0.1637  2.3393  0.9216
 6711TIP3    H241549   1.637   6.041   4.080 -1.7836 -0.2801  1.1175
 6712TIP3   OH241550   2.445   0.369  17.032  0.2798  0.2861 -0.1733
 6712TIP3    H141551   2.354   0.351  17.056 -0.2442  0.5786 -1.7944
 6712TIP3    H241552   2.486   0.283  17.024 -0.5420 -0.0135 -1.7926
 6713TIP3   OH241553   4.290   3.587  13.465 -0.7193  0.2578  0.8357
 6713TIP3    H141554   4.214   3.562  13.413 -0.4388 -0.6268  0.8194
 6713TIP3    H241555   4.321   3.504  13.503 -0.4517  0.7672  1.7736
 6714TIP3   OH241556   0.198   1.280  12.130  0.2028 -0.0953 -0.9382
 6714TIP3    H141557   0.175   1.206  12.187  0.4913 -0.1137 -0.8480
 6714TIP3    H241558   0.291   1.294  12.144  0.3757 -0.3933 -1.7478
 6715TIP3   OH241559   1.375   5.206  14.143 -0.2391  0.2772  0.1059
 6715TIP3    H141560   1.293   5.169  14.174 -0.3313 -0.0725 -0.5238
 6715TIP3    H241561   1.375   5.188  14.049  1.7420 -2.1183  0.4569
 6716TIP3   OH241562   0.429   6.402  12.225  0.4658  0.3482 -0.4648
 6716TIP3    H141563   0.519   6.397  12.256  0.4812  1.9767 -0.1373
 6716TIP3    H241564   0.434   6.382  12.132  1.3151  1.2391 -0.6292
 6717TIP3   OH241565   1.961   2.356   2.947 -0.2138 -0.3829 -0.0248
 6717TIP3    H141566   1.894   2.418   2.917 -0.1979 -0.0863  0.5320
 6717TIP3    H241567   2.028   2.411   2.988  1.0743 -0.5358 -1.7902
 6718TIP3   OH241568   3.293   2.826   4.496  0.5459  0.0178 -0.1455
 6718TIP3    H141569   3.284   2.894   4.430  1.2217 -0.1250 -0.3928
 6718TIP3    H241570   3.328   2.870   4.573 -0.2158  0.1791  0.1173
 6719TIP3   OH241571   4.450   5.540  15.293 -0.3199 -0.0070  0.0259
 6719TIP3    H141572   4.525   5.495  15.255 -1.3550 -0.0434 -2.1380
 6719TIP3    H241573   4.384   5.471  15.303 -1.2263  0.5954 -1.4297
 6720TIP3   OH241574   0.460   5.755   0.648  0.1131 -0.1130  0.1017
 6720TIP3    H141575   0.419   5.781   0.730  1.0456 -0.2686  0.6253
 6720TIP3    H241576   0.516   5.681   0.671  0.4819 -0.0814 -0.6543
 6721TIP3   OH241577   2.054   1.925  14.760 -0.2884 -0.5356  0.0200
 6721TIP3    H141578   2.038   1.914  14.666  0.1999 -0.8205 -0.0366
 6721TIP3    H241579   2.070   2.019  14.770  1.3492 -0.7176 -0.4817
 6722TIP3   OH241580   5.411   4.342  12.417 -1.0228  0.6339  0.0030
 6722TIP3    H141581   5.442   4.432  12.429 -0.0257  0.6592 -2.2692
 6722TIP3    H241582   5.475   4.288  12.463 -0.6641  1.0120 -0.0407
 6723TIP3   OH241583   6.420   4.339   0.713  0.0822  0.4550  0.0059
 6723TIP3    H141584   6.397   4.247   0.702 -0.4982  0.7718 -1.8001
 6723TIP3    H241585   6.516   4.340   0.713  0.0958 -0.1084 -0.5218
 6724TIP3   OH241586   3.566   5.867   2.545 -0.3368  0.2048  0.0066
 6724TIP3    H141587   3.542   5.798   2.607  0.9348  0.7602  1.1710
 6724TIP3    H241588   3.617   5.822   2.478 -1.3564 -0.3274 -0.4401
 6725TIP3   OH241589   2.748   6.163   5.199 -0.4263  0.1823  0.5242
 6725TIP3    H141590   2.717   6.219   5.270  1.3370  1.8903  0.0600
 6725TIP3    H241591   2.842   6.183   5.193 -0.5781  0.5694 -2.6189
 6726TIP3   OH241592   3.005   1.321   0.094  0.4159  0.1382 -0.0712
 6726TIP3    H141593   2.997   1.398   0.150  1.4933  0.9189 -0.9548
 6726TIP3    H241594   3.095   1.323   0.063  0.8209 -2.1225  0.7744
 6727TIP3   OH241595   1.093   5.741   0.292  0.7076  0.1005 -0.0492
 6727TIP3    H141596   0.999   5.724   0.300  0.8910 -1.2262 -0.5960
 6727TIP3    H241597   1.104   5.828   0.331 -1.1485  1.4380 -2.2467
 6728TIP3   OH241598   1.394   3.822   0.430  0.6653 -0.0111  0.4783
 6728TIP3    H141599   1.314   3.800   0.476 -0.4357 -1.0180 -1.7505
 6728TIP3    H241600   1.454   3.854   0.498 -1.2698 -0.1492  2.3285
 6729TIP3   OH241601   3.886   3.621   3.760 -0.3629  0.4131  0.3742
 6729TIP3    H141602   3.809   3.581   3.721  1.0555 -0.7345 -1.4278
 6729TIP3    H241603   3.946   3.547   3.774  0.9778  1.4591  0.3042
 6730TIP3   OH241604   3.394   4.432   5.228  0.0725  0.0588  0.0645
 6730TIP3    H141605   3.407   4.527   5.229 -1.7605  0.3478  1.3553
 6730TIP3    H241606   3.465   4.398   5.283 -0.1346  0.8408  0.8382
 6731TIP3   OH241607   5.991   4.513  16.584 -0.5865  0.2910  0.0006
 6731TIP3    H141608   6.028   4.557  16.508 -0.1315 -2.1752 -1.3087
 6731TIP3    H241609   6.060   4.520  16.651 -0.2037  0.8220 -0.4376
 6732TIP3   OH241610   6.075   3.969  16.052  0.7946 -0.1189 -0.4246
 6732TIP3    H141611   6.160   3.925  16.059  0.4127 -0.9029 -0.5569
 6732TIP3    H241612   6.065   3.984  15.958 -0.2731 -2.2319 -0.6992
 6733TIP3   OH241613   0.179   2.590   1.892 -0.1913 -0.4870  0.3658
 6733TIP3    H141614   0.182   2.676   1.850  0.4348 -0.3349  0.6998
 6733TIP3    H241615   0.223   2.604   1.977  0.8171 -1.3562  0.0096
 6734TIP3   OH241616   0.562   0.220  14.481 -0.1313 -0.3524  0.2727
 6734TIP3    H141617   0.590   0.250  14.395  1.2920 -0.5379  0.6532
 6734TIP3    H241618   0.565   0.124  14.476 -0.3006 -0.3683  0.4508
 6735TIP3   OH241619   6.488   5.956  14.726  0.5624 -0.4541 -0.5928
 6735TIP3    H141620   6.576   5.952  14.763  0.5662  0.2086 -0.5097
 6735TIP3    H241621   6.478   6.047  14.697 -0.2047 -0.4366 -0.3204
 6736TIP3   OH241622   3.811   0.469   4.536  1.0876 -0.2520 -0.1490
 6736TIP3    H141623   3.798   0.497   4.446 -0.6120  2.6106  0.8779
 6736TIP3    H241624   3.879   0.528   4.570  0.4590 -0.1179  0.9139
 6737TIP3   OH241625   6.626   1.069   4.882 -0.0381 -0.0675 -0.5507
 6737TIP3    H141626   6.626   1.014   4.804 -2.0330  2.5435 -2.6070
 6737TIP3    H241627   6.687   1.140   4.861 -1.0921  1.0187 -0.0566
 6738TIP3   OH241628   6.237   1.002   4.461  0.1224  0.0872 -0.0865
 6738TIP3    H141629   6.142   0.999   4.468  0.2101 -0.4485  1.1021
 6738TIP3    H241630   6.255   1.079   4.407 -1.0256 -0.6786 -1.6248
 6739TIP3   OH241631   2.761   1.170  16.810  0.2776 -0.7386  0.2601
 6739TIP3    H141632   2.812   1.097  16.847  1.2698 -0.5497 -0.6925
 6739TIP3    H241633   2.767   1.158  16.716  0.4945  0.5991  0.0867
 6740TIP3   OH241634   2.629   2.583   2.621 -0.5576  0.2972 -0.2895
 6740TIP3    H141635   2.719   2.597   2.651 -0.3225 -1.7790  0.0715
 6740TIP3    H241636   2.574   2.610   2.695 -0.1202 -1.0348  0.5449
 6741TIP3   OH241637   6.678   5.790   2.362  0.0632  0.4519  0.2753
 6741TIP3    H141638   6.686   5.768   2.269 -0.2624  2.0077 -0.1466
 6741TIP3    H241639   6.746   5.856   2.377 -0.3537  0.7324  0.9763
 6742TIP3   OH241640   6.700   5.326  10.560  0.0552 -0.1544 -0.2505
 6742TIP3    H141641   6.740   5.276  10.631  1.6637  2.5218  0.8742
 6742TIP3    H241642   6.608   5.334  10.585 -0.6828 -3.6223 -1.2322
 6743TIP3   OH241643   4.212   4.470   5.734  0.1204  0.1481 -0.3664
 6743TIP3    H141644   4.217   4.375   5.738 -2.1881  0.0215  0.6632
 6743TIP3    H241645   4.301   4.497   5.710  0.9201 -2.2183 -0.3387
 6744TIP3   OH241646   2.383   0.189  11.424 -0.0227  0.3033 -0.5085
 6744TIP3    H141647   2.305   0.236  11.395  0.7245  1.4934 -0.6887
 6744TIP3    H241648   2.450   0.212  11.359  1.1503  1.3874  1.0000
 6745TIP3   OH241649   2.263   4.551  12.899  0.3070 -0.4413 -0.1009
 6745TIP3    H141650   2.305   4.619  12.847 -0.0320 -0.0031  0.1889
 6745TIP3    H241651   2.280   4.470  12.852  3.8017 -0.7299  1.3280
 6746TIP3   OH241652   6.385   2.332   2.784 -0.1917  0.4666 -0.3330
 6746TIP3    H141653   6.404   2.338   2.690  1.2851 -1.9723 -0.2693
 6746TIP3    H241654   6.290   2.319   2.788 -0.4728  1.8796 -1.3590
 6747TIP3   OH241655   3.998   2.747   1.872 -0.2853  0.1442  0.0640
 6747TIP3    H141656   3.904   2.741   1.887 -0.8571  2.3614 -1.9753
 6747TIP3    H241657   4.015   2.841   1.869  2.2965 -0.1752  1.7806
 6748TIP3   OH241658   2.088   4.117   1.901  0.1128  0.0368  0.0152
 6748TIP3    H141659   2.157   4.153   1.957  2.3341  0.8865 -2.9718
 6748TIP3    H241660   2.064   4.034   1.942  1.2676  0.8031  2.3888
 6749TIP3   OH241661   3.826   6.441   3.104  0.4510  0.4667 -0.2477
 6749TIP3    H141662   3.732   6.450   3.095  0.4864  0.0473 -1.1643
 6749TIP3    H241663   3.840   6.415   3.195 -0.3581 -0.0278 -0.2616
 6750TIP3   OH241664   4.930   0.382  14.585 -0.2921  0.1128 -0.1751
 6750TIP3    H141665   4.860   0.360  14.647 -0.5687 -0.9391 -0.8434
 6750TIP3    H241666   4.885   0.426  14.513 -0.1867 -0.0284 -0.3270
 6751TIP3   OH241667   0.581   3.724   6.664 -0.3001  0.0660  0.4170
 6751TIP3    H141668   0.575   3.797   6.602 -0.2885 -0.6910 -0.5063
 6751TIP3    H241669   0.540   3.651   6.618  1.7421 -1.1103  0.3802
 6752TIP3   OH241670   6.104   4.034   5.520 -0.1908 -1.0199 -0.6361
 6752TIP3    H141671   6.111   3.941   5.541  0.3164 -0.9517 -0.4864
 6752TIP3    H241672   6.073   4.075   5.601 -0.4550 -1.0647 -0.7147
 6753TIP3   OH241673   6.469   0.546   1.852 -0.1138 -0.0261  0.3206
 6753TIP3    H141674   6.513   0.579   1.931 -0.1278 -0.5046  0.5355
 6753TIP3    H241675   6.492   0.453   1.849  0.9341  0.2556 -0.9519
 6754TIP3   OH241676   5.998   5.605   4.747  0.1099 -0.4625  0.7252
 6754TIP3    H141677   5.967   5.520   4.715 -2.1454 -0.2451  2.1340
 6754TIP3    H241678   6.043   5.584   4.829 -1.3658 -0.2339  1.6174
 6755TIP3   OH241679   6.756   3.908   1.591 -0.3375  0.1793  0.2279
 6755TIP3    H141680   6.681   3.904   1.532 -0.6466 -1.2070  0.6640
 6755TIP3    H241681   6.743   3.988   1.642 -1.1337  0.3294 -0.1963
 6756TIP3   OH241682   6.129   2.076   0.943  0.6137 -0.4076 -0.0063
 6756TIP3    H141683   6.133   2.017   0.867  0.7411 -0.9934  0.4429
 6756TIP3    H241684   6.219   2.108   0.953  0.7630 -0.9299  0.3548
 6757TIP3   OH241685   1.974   1.274  12.315 -0.1768 -0.2032 -0.2613
 6757TIP3    H141686   1.909   1.272  12.245 -1.2113  0.1617  0.6713
 6757TIP3    H241687   2.030   1.348  12.293  0.1870 -0.7507 -1.2788
 6758TIP3   OH241688   3.817   3.337   1.853 -0.8050 -0.1150  0.6175
 6758TIP3    H141689   3.908   3.308   1.851 -0.2725  1.2345  2.2985
 6758TIP3    H241690   3.808   3.393   1.775 -0.2555 -0.4327  0.3185
 6759TIP3   OH241691   5.574   5.882   5.967  0.8038 -0.1203  0.2459
 6759TIP3    H141692   5.666   5.888   5.944  0.7151  0.7646  0.1167
 6759TIP3    H241693   5.545   5.972   5.978 -0.2222 -0.3488 -0.3907
 6760TIP3   OH241694   4.355   3.008   2.969 -0.3184  0.1816  0.3495
 6760TIP3    H141695   4.280   2.975   3.018 -0.4922 -0.0809 -0.0867
 6760TIP3    H241696   4.325   3.091   2.932  0.0505  0.7491  1.2731
 6761TIP3   OH241697   5.356   3.070   1.145 -0.2922 -0.0797  0.0407
 6761TIP3    H141698   5.353   2.998   1.207  2.3542 -0.2627  0.0857
 6761TIP3    H241699   5.305   3.040   1.070  1.6065 -2.5416 -0.3856
 6762TIP3   OH241700   4.463   1.970   4.124 -0.6285  0.2977 -0.4573
 6762TIP3    H141701   4.509   2.035   4.177  0.4534 -0.8279  0.0130
 6762TIP3    H241702   4.504   1.975   4.038  0.3857 -0.6563 -0.0576
 6763TIP3   OH241703   1.325   6.604   3.319 -0.9542 -0.1555  0.0644
 6763TIP3    H141704   1.300   6.523   3.362  2.3384 -2.4658 -1.9574
 6763TIP3    H241705   1.402   6.635   3.367  0.0028 -0.2935 -1.3062
 6764TIP3   OH241706   5.336   6.625   3.777 -0.6076  0.7772 -0.1930
 6764TIP3    H141707   5.413   6.574   3.803 -0.9908  0.2638 -0.0615
 6764TIP3    H241708   5.367   6.716   3.778 -0.0777  0.6006  0.1320
 6765TIP3   OH241709   3.150   0.234  13.622 -0.1602  0.0518 -0.3030
 6765TIP3    H141710   3.061   0.207  13.642 -0.2450  0.2291 -0.4460
 6765TIP3    H241711   3.141   0.318  13.577  0.1452  0.7626  0.9121
 6766TIP3   OH241712   1.547   2.436  16.816 -0.2855  0.5659  0.1025
 6766TIP3    H141713   1.584   2.515  16.856 -1.6671  0.8370  0.9161
 6766TIP3    H241714   1.533   2.376  16.889 -0.8860  0.2491 -0.2658
 6767TIP3   OH241715   3.877   3.382  15.593  0.2700  0.0977  0.3359
 6767TIP3    H141716   3.972   3.382  15.607  0.2923  0.7095  0.1843
 6767TIP3    H241717   3.845   3.316  15.654  0.9823 -1.5282 -0.9517
 6768TIP3   OH241718   4.528   6.114  14.640  0.3160  0.0727 -0.0017
 6768TIP3    H141719   4.454   6.117  14.700  2.4718 -2.9842  3.1193
 6768TIP3    H241720   4.546   6.206  14.620 -3.4685  0.9657  0.0179
 6769TIP3   OH241721   3.714   0.760   5.704  0.6915  0.1093 -0.2360
 6769TIP3    H141722   3.695   0.685   5.648  0.5964 -0.3587  0.4199
 6769TIP3    H241723   3.809   0.765   5.708  0.6996  0.2649 -0.5955
 6770TIP3   OH241724   5.103   6.602   0.180  0.0296  0.5459 -0.0681
 6770TIP3    H141725   5.176   6.569   0.128  0.8663  2.2595 -0.0573
 6770TIP3    H241726   5.134   6.600   0.270 -0.4886 -0.0477  0.1101
 6771TIP3   OH241727   6.443   6.182   0.387 -0.5135 -0.5031 -0.9430
 6771TIP3    H141728   6.460   6.205   0.478  0.7276  0.1070 -1.3018
 6771TIP3    H241729   6.387   6.105   0.391  1.4255 -1.9507  0.3774
 6772TIP3   OH241730   1.742   0.187  12.860 -0.5321 -0.6237 -0.0424
 6772TIP3    H141731   1.757   0.104  12.815  0.3608 -1.4435  1.6355
 6772TIP3    H241732   1.830   0.223  12.873 -0.9002  0.5405 -0.6343
 6773TIP3   OH241733   0.454   2.163   1.909 -0.3508 -0.2877 -0.0900
 6773TIP3    H141734   0.393   2.221   1.954 -2.3754 -1.6385 -0.9080
 6773TIP3    H241735   0.463   2.088   1.967 -1.0773 -0.9674 -0.8272
 6774TIP3   OH241736   3.751   1.595  15.492  0.4195  0.2261  0.3393
 6774TIP3    H141737   3.798   1.519  15.456 -0.2730 -0.6151  1.1838
 6774TIP3    H241738   3.772   1.595  15.585  0.7641  1.3527  0.2824
 6775TIP3   OH241739   0.362   2.966   2.661  0.3398  0.1652 -0.5087
 6775TIP3    H141740   0.341   2.886   2.710  1.1768  0.6261  0.6640
 6775TIP3    H241741   0.317   2.956   2.578  0.4365 -1.5442 -0.3980
 6776TIP3   OH241742   1.704   3.648  12.301 -0.1858  0.4216  0.9345
 6776TIP3    H141743   1.735   3.668  12.389  3.6901  0.0634 -0.1590
 6776TIP3    H241744   1.702   3.552  12.298  2.1857  0.3479 -0.0082
 6777TIP3   OH241745   4.067   3.637  16.386  0.6683 -0.4772 -0.0495
 6777TIP3    H141746   4.094   3.636  16.478 -0.6871 -1.0933  0.3735
 6777TIP3    H241747   3.989   3.581  16.384  1.0519 -0.9917 -1.6980
 6778TIP3   OH241748   4.036   3.164   0.706 -0.4427 -0.0454 -0.0971
 6778TIP3    H141749   4.082   3.248   0.694 -1.3096  0.7363  1.7056
 6778TIP3    H241750   3.944   3.186   0.693 -0.9929 -0.0392  3.1287
 6779TIP3   OH241751   2.983   1.588  11.308 -0.2675  0.4254  0.1589
 6779TIP3    H141752   2.936   1.634  11.239  1.4590 -0.6504 -1.8714
 6779TIP3    H241753   3.063   1.641  11.321  0.2706 -0.3318  0.0005
 6780TIP3   OH241754   0.328   5.141  15.693 -0.0764 -0.5775 -0.6217
 6780TIP3    H141755   0.411   5.095  15.698  0.0750 -0.2021  0.5290
 6780TIP3    H241756   0.302   5.156  15.784 -1.3683 -0.6186 -0.9527
 6781TIP3   OH241757   5.965   6.311   4.096  0.4039 -0.3588 -0.1918
 6781TIP3    H141758   6.026   6.384   4.094  0.2134 -0.2045 -1.9620
 6781TIP3    H241759   6.018   6.235   4.072 -0.0000 -0.2821 -1.3755
 6782TIP3   OH241760   2.279   3.483  12.580  0.2754 -0.2351  0.5835
 6782TIP3    H141761   2.364   3.511  12.545 -0.0394  0.8223  0.6339
 6782TIP3    H241762   2.258   3.547  12.647 -0.3070 -0.8143  0.9651
 6783TIP3   OH241763   1.909   2.811   2.337 -0.3829 -0.0457 -0.5843
 6783TIP3    H141764   1.946   2.810   2.425  1.1475  0.2586 -1.1802
 6783TIP3    H241765   1.970   2.865   2.286 -2.4534  1.7551 -1.3381
 6784TIP3   OH241766   4.911   0.624  15.634 -0.0967 -0.3757 -1.0360
 6784TIP3    H141767   4.998   0.606  15.669 -0.1756  0.2014 -0.5338
 6784TIP3    H241768   4.903   0.720  15.635 -1.8007 -0.4251  1.6452
 6785TIP3   OH241769   4.552   3.316   6.082 -0.3355  0.6179 -0.6460
 6785TIP3    H141770   4.553   3.400   6.127 -0.2536  0.1970  0.1597
 6785TIP3    H241771   4.529   3.253   6.151  0.6552 -0.1537 -1.0018
 6786TIP3   OH241772   2.728   4.512  13.099 -0.0817  0.3509  0.0198
 6786TIP3    H141773   2.721   4.602  13.065 -2.9956 -0.0089 -0.5656
 6786TIP3    H241774   2.666   4.508  13.171 -0.3781 -1.3465 -0.2948
 6787TIP3   OH241775   6.121   5.132   2.067  0.6660 -0.2354 -0.8718
 6787TIP3    H141776   6.099   5.165   2.154 -0.4740 -0.9679 -0.8699
 6787TIP3    H241777   6.198   5.077   2.081 -0.1689 -1.2512 -0.1263
 6788TIP3   OH241778   4.682   6.272   4.333 -0.3851  0.1782  0.1101
 6788TIP3    H141779   4.664   6.340   4.268 -2.2504 -0.3909 -0.0239
 6788TIP3    H241780   4.728   6.204   4.285 -1.1715  0.0519 -0.4786
 6789TIP3   OH241781   3.779   4.526   3.818  0.3361 -0.3592  0.6487
 6789TIP3    H141782   3.795   4.488   3.904  0.3164  0.3597  0.9766
 6789TIP3    H241783   3.791   4.453   3.757  2.1525 -0.4704  1.0879
 6790TIP3   OH241784   1.423   5.912   0.573  0.0098  0.4241 -0.7040
 6790TIP3    H141785   1.452   5.931   0.484 -0.0971  1.4373 -0.5303
 6790TIP3    H241786   1.504   5.909   0.625  0.1607 -1.1312 -0.9904
 6791TIP3   OH241787   6.449   1.916  12.008 -0.7320 -0.3930 -0.0411
 6791TIP3    H141788   6.477   1.981  11.945  1.4924 -1.0720  0.1757
 6791TIP3    H241789   6.439   1.835  11.958 -1.7565 -0.3196  0.0091
 6792TIP3   OH241790   5.074   3.023   0.225 -0.0122  0.5665  0.0530
 6792TIP3    H141791   5.128   2.947   0.248 -1.0337 -0.2877 -0.3030
 6792TIP3    H241792   5.050   3.062   0.309 -0.3885 -0.1493  0.2777
 6793TIP3   OH241793   0.852   0.605   0.029 -0.6657 -0.5513  0.6508
 6793TIP3    H141794   0.820   0.692   0.051  1.1179 -0.2168  2.2379
 6793TIP3    H241795   0.888   0.614  -0.059  0.9298  0.8050  1.3837
 6794TIP3   OH241796   6.158   2.389  14.041 -0.2231  0.0784 -0.3027
 6794TIP3    H141797   6.159   2.345  13.956 -0.6416 -0.3209 -0.1076
 6794TIP3    H241798   6.227   2.345  14.092 -0.8420 -0.5768 -0.0063
 6795TIP3   OH241799   2.989   5.323   5.718  0.2853 -0.0734  0.1890
 6795TIP3    H141800   3.011   5.236   5.750  0.3328  0.2572  1.0743
 6795TIP3    H241801   3.073   5.369   5.714  0.3768 -0.3152 -1.0755
 6796TIP3   OH241802   3.492   5.828  11.962  0.2945 -0.2393 -0.2197
 6796TIP3    H141803   3.532   5.914  11.973 -1.2845  0.5139 -0.1134
 6796TIP3    H241804   3.453   5.831  11.874 -2.6042  0.4319  0.9923
 6797TIP3   OH241805   4.716   0.722   4.181  0.6333 -0.0975 -0.0215
 6797TIP3    H141806   4.725   0.737   4.275 -0.0194 -1.5112  0.2984
 6797TIP3    H241807   4.646   0.780   4.153 -0.6357 -1.1772  0.8111
 6798TIP3   OH241808   1.954   4.980   6.666 -0.7622 -0.4769 -0.2449
 6798TIP3    H141809   1.960   5.011   6.756 -0.0093  0.4861 -0.5987
 6798TIP3    H241810   1.990   4.892   6.668 -2.9284 -1.4179  0.7949
 6799TIP3   OH241811   0.207   5.617  13.082  0.5578  0.1060  0.2248
 6799TIP3    H141812   0.229   5.620  13.175 -1.0797  2.2637  0.6385
 6799TIP3    H241813   0.117   5.586  13.080 -0.0991  1.9509 -0.4337
 6800TIP3   OH241814   3.848   5.577  11.338  0.4644 -0.0185  0.0279
 6800TIP3    H141815   3.832   5.595  11.245 -0.0399 -0.1280  0.0897
 6800TIP3    H241816   3.836   5.662  11.381  2.1586  0.3593 -0.1751
 6801TIP3   OH241817   3.220   0.177   4.515 -0.1381 -0.5676 -0.4868
 6801TIP3    H141818   3.306   0.139   4.534 -0.5738 -1.6522 -0.6119
 6801TIP3    H241819   3.232   0.223   4.432  1.6875  3.9150  1.8676
 6802TIP3   OH241820   3.817   4.267   0.950 -0.4553 -0.6425  0.4300
 6802TIP3    H141821   3.841   4.201   0.885 -1.0029 -1.5097  1.0863
 6802TIP3    H241822   3.769   4.333   0.900 -0.8815 -1.3003 -0.0554
 6803TIP3   OH241823   5.548   3.449  13.426  0.3771  0.3544 -0.4073
 6803TIP3    H141824   5.498   3.377  13.387 -1.0750  1.0944 -0.0098
 6803TIP3    H241825   5.565   3.509  13.354 -1.2435  1.1348 -0.1878
 6804TIP3   OH241826   0.879   6.724  15.762 -0.2731 -0.4533  0.7363
 6804TIP3    H141827   0.883   6.701  15.855  2.0333 -0.5691  0.6799
 6804TIP3    H241828   0.852   6.816  15.761 -0.4451 -0.4886  1.5076
 6805TIP3   OH241829   5.608   1.378   2.704  0.1524 -0.8827  0.0253
 6805TIP3    H141830   5.572   1.409   2.787  0.3994 -2.4114  0.7512
 6805TIP3    H241831   5.625   1.285   2.719  1.7409 -0.8375 -1.2152
 6806TIP3   OH241832   0.950   4.677  16.646 -0.1389 -0.5063 -0.0664
 6806TIP3    H141833   0.985   4.692  16.558 -0.3340  2.0520  0.2370
 6806TIP3    H241834   0.855   4.670  16.633 -0.0608 -1.5211 -0.1877
 6807TIP3   OH241835   4.402   5.816  11.293  0.3043 -0.2703  0.0013
 6807TIP3    H141836   4.348   5.739  11.276  0.4880 -0.0280 -1.8451
 6807TIP3    H241837   4.481   5.782  11.334 -0.7402 -0.7341  1.7709
 6808TIP3   OH241838   1.404   1.216   3.300 -0.1586  0.3372  0.1241
 6808TIP3    H141839   1.419   1.201   3.394  3.1285  3.1051  0.2016
 6808TIP3    H241840   1.330   1.277   3.298 -1.5900 -1.2597  0.6696
 6809TIP3   OH241841   0.364   6.287  15.013  0.1378  0.2627 -0.0534
 6809TIP3    H141842   0.410   6.207  14.989  2.4916  1.3844  0.4503
 6809TIP3    H241843   0.419   6.328  15.081 -0.0215  3.1398 -1.4902
 6810TIP3   OH241844   1.068   5.016  12.819  0.9569 -0.0255 -0.2577
 6810TIP3    H141845   1.048   5.091  12.874  1.9796  0.0299  0.0574
 6810TIP3    H241846   1.161   5.025  12.798  0.9766 -0.9370 -0.6188
 6811TIP3   OH241847   1.253   5.109  15.050  0.1810  0.1053  0.2108
 6811TIP3    H141848   1.260   5.019  15.079 -0.9682  0.5052  1.9401
 6811TIP3    H241849   1.342   5.135  15.027  0.6380 -1.2394  0.3996
 6812TIP3   OH241850   6.334   4.587  12.704 -0.4445  0.9578  0.7130
 6812TIP3    H141851   6.351   4.500  12.668  0.6971  0.4301  2.3918
 6812TIP3    H241852   6.403   4.642  12.668  0.0415  0.6829  1.2037
 6813TIP3   OH241853   5.897   1.967   3.636  0.6086  0.0275 -0.3151
 6813TIP3    H141854   5.972   2.027   3.632  1.0023 -0.4580 -0.2170
 6813TIP3    H241855   5.920   1.895   3.578  0.0278  0.0826 -0.6234
 6814TIP3   OH241856   0.786   3.366  11.638 -0.1444  0.1335 -0.5751
 6814TIP3    H141857   0.813   3.412  11.718 -0.6966 -1.2445  0.4373
 6814TIP3    H241858   0.826   3.416  11.568  0.1665  1.5284  0.5423
 6815TIP3   OH241859   5.292   3.912   2.843 -0.3557  0.0063  0.1266
 6815TIP3    H141860   5.311   4.002   2.870  0.9135 -0.2883  0.2451
 6815TIP3    H241861   5.372   3.882   2.801 -1.4881 -0.3590 -1.8828
 6816TIP3   OH241862   6.751   5.981   1.025 -0.2677  0.2536  0.2271
 6816TIP3    H141863   6.717   5.922   1.093  0.7213  0.3275  0.7972
 6816TIP3    H241864   6.770   5.923   0.951 -0.0342 -0.0357  0.5080
 6817TIP3   OH241865   0.189   3.536  12.391 -0.4505  0.2077 -0.1286
 6817TIP3    H141866   0.184   3.499  12.302 -0.2649  1.3439 -0.6296
 6817TIP3    H241867   0.132   3.479  12.443 -1.1281 -0.0688 -1.1215
 6818TIP3   OH241868   2.284   5.077  11.016  0.5897  0.0223 -1.0984
 6818TIP3    H141869   2.248   5.061  11.103  1.5093  4.6550  0.4461
 6818TIP3    H241870   2.376   5.051  11.024  1.0199  1.6584 -0.0921
 6819TIP3   OH241871   4.719   6.245   4.952  0.6018  0.1282  0.3138
 6819TIP3    H141872   4.712   6.319   4.891 -0.5302  0.4171  0.7553
 6819TIP3    H241873   4.678   6.172   4.905 -1.0062  0.5516  1.0005
 6820TIP3   OH241874   1.550   0.603   2.953 -0.4214 -0.1352  0.0648
 6820TIP3    H141875   1.478   0.542   2.968 -1.0032  0.2853 -0.9045
 6820TIP3    H241876   1.558   0.607   2.857 -0.7807  1.7378  0.0739
 6821TIP3   OH241877   1.624   3.652  13.947  0.0568  0.2522  0.3242
 6821TIP3    H141878   1.578   3.619  13.870  2.5300 -1.3163 -0.6030
 6821TIP3    H241879   1.646   3.573  13.997  0.9255  0.9970  1.1556
 6822TIP3   OH241880   0.170   5.236  14.670  0.6731  0.7333  0.0973
 6822TIP3    H141881   0.149   5.147  14.699 -1.1305  1.6222  1.7022
 6822TIP3    H241882   0.205   5.279  14.747 -2.5477  2.6262  0.6787
 6823TIP3   OH241883   2.083   4.340  14.249  0.6525 -0.1984  0.2297
 6823TIP3    H141884   2.045   4.268  14.199  0.2090  0.0856  0.1524
 6823TIP3    H241885   2.010   4.374  14.301  0.8334  0.2581  0.1900
 6824TIP3   OH241886   3.856   3.266   2.929  0.6999 -0.2623 -0.6639
 6824TIP3    H141887   3.918   3.209   2.975  0.5926 -0.3224 -0.5916
 6824TIP3    H241888   3.910   3.317   2.869  0.6339 -1.4782 -1.8130
 6825TIP3   OH241889   4.730   1.127   0.481  0.4745 -0.0846  0.5116
 6825TIP3    H141890   4.772   1.168   0.556  0.6965 -3.3203  2.3070
 6825TIP3    H241891   4.641   1.162   0.482  1.6501  3.4663 -0.7072
 6826TIP3   OH241892   5.338   6.478  11.219  0.1980  0.2850 -0.0771
 6826TIP3    H141893   5.397   6.448  11.150  0.8282  0.2282  0.4760
 6826TIP3    H241894   5.298   6.398  11.253 -0.2371  0.3272 -0.4814
 6827TIP3   OH241895   1.700   1.424   1.288 -0.3395  0.0101 -0.4239
 6827TIP3    H141896   1.622   1.427   1.345  0.3377  1.6051  0.4856
 6827TIP3    H241897   1.769   1.391   1.345 -0.2009 -0.7856 -1.0510
 6828TIP3   OH241898   6.289   0.106   3.599  0.0148 -0.6914 -0.1558
 6828TIP3    H141899   6.244   0.022   3.589  0.5127 -1.1049  0.8892
 6828TIP3    H241900   6.347   0.112   3.524  1.2421 -2.1041  0.6426
 6829TIP3   OH241901   5.221   4.089   1.638 -0.6594 -0.2004  0.0729
 6829TIP3    H141902   5.293   4.073   1.700  0.6359 -0.8403 -1.5215
 6829TIP3    H241903   5.158   4.020   1.658  0.0473 -0.8138  0.2564
 6830TIP3   OH241904   6.558   4.536   6.269  0.1789  0.1208  0.8410
 6830TIP3    H141905   6.533   4.444   6.275 -0.7292  0.3185  0.3023
 6830TIP3    H241906   6.549   4.570   6.358  1.8210 -0.6126  1.3194
 6831TIP3   OH241907   1.287   5.991  13.922  0.7798 -0.5278  0.3459
 6831TIP3    H141908   1.270   5.910  13.970 -0.0334 -1.1143 -0.8585
 6831TIP3    H241909   1.329   6.049  13.985  0.6089 -1.5928  1.4683
 6832TIP3   OH241910   5.258   6.652   3.034 -0.1303 -0.4235  0.4500
 6832TIP3    H141911   5.238   6.559   3.047  1.0115 -0.8985 -0.9903
 6832TIP3    H241912   5.225   6.672   2.947  3.6398 -0.7572 -1.2580
 6833TIP3   OH241913   3.599   6.038   5.117 -0.4386 -0.7133  0.3387
 6833TIP3    H141914   3.604   6.087   5.036  1.2246 -1.5186 -0.0951
 6833TIP3    H241915   3.582   5.947   5.090 -1.0684 -0.7918  0.9676
 6834TIP3   OH241916   2.106   0.559  13.117 -0.0665  0.0763 -0.0564
 6834TIP3    H141917   2.151   0.581  13.199 -0.1956 -1.7356  0.5360
 6834TIP3    H241918   2.075   0.644  13.084  0.8566  0.9664  1.2385
 6835TIP3   OH241919   1.818   1.726  14.369 -0.0353  0.4507  0.0259
 6835TIP3    H141920   1.769   1.657  14.324  0.9284 -0.4471  0.2942
 6835TIP3    H241921   1.777   1.807  14.341 -0.1287 -0.1403 -1.6431
 6836TIP3   OH241922   5.698   0.233  14.577  0.6646 -0.3738  0.2139
 6836TIP3    H141923   5.606   0.258  14.571  0.9843  0.5584 -1.6200
 6836TIP3    H241924   5.738   0.302  14.630  0.6553  0.3921 -0.7427
 6837TIP3   OH241925   2.644   3.274  11.757 -0.4364  0.0168  1.3683
 6837TIP3    H141926   2.588   3.204  11.792  1.2055 -1.9796  0.2024
 6837TIP3    H241927   2.624   3.275  11.663 -1.7421  2.4327  1.5943
 6838TIP3   OH241928   4.459   3.930  15.829 -0.3777  0.4354 -0.2147
 6838TIP3    H141929   4.546   3.939  15.868 -0.0125  0.5767 -1.0447
 6838TIP3    H241930   4.451   4.005  15.771  0.4047 -1.3737 -2.8736
 6839TIP3   OH241931   0.279   2.204   3.491  0.6697 -0.6881  0.9256
 6839TIP3    H141932   0.315   2.216   3.579  0.0909  0.8524  0.9868
 6839TIP3    H241933   0.332   2.134   3.452  1.1717 -1.1257  2.3558
 6840TIP3   OH241934   5.502   0.921   5.309 -0.0212  0.2306  0.1917
 6840TIP3    H141935   5.501   0.981   5.384 -0.3588  0.9465 -0.3746
 6840TIP3    H241936   5.412   0.918   5.279  0.6071  3.0229 -2.5485
 6841TIP3   OH241937   2.674   3.125   4.538 -0.3554 -0.1182  0.4942
 6841TIP3    H141938   2.701   3.175   4.615 -1.3564  1.2665 -0.0141
 6841TIP3    H241939   2.751   3.071   4.516  1.9103  3.2140 -0.5365
 6842TIP3   OH241940   4.081   2.151  11.298 -0.2302 -0.0961  0.4022
 6842TIP3    H141941   3.999   2.197  11.279 -0.4544 -0.5477  0.2664
 6842TIP3    H241942   4.129   2.211  11.354  0.1226  0.9514 -0.9528
 6843TIP3   OH241943   3.054   5.598   1.422 -0.3151  0.5178 -0.5412
 6843TIP3    H141944   2.992   5.542   1.468 -0.4576  0.1100 -1.2027
 6843TIP3    H241945   3.017   5.686   1.428  0.3109  0.7012  1.1929
 6844TIP3   OH241946   6.064   4.246  10.408 -0.7464  0.2855  0.3380
 6844TIP3    H141947   6.135   4.309  10.421 -0.8514  0.7010 -0.9469
 6844TIP3    H241948   5.988   4.300  10.385 -0.9612 -0.2739 -0.2902
 6845TIP3   OH241949   5.712   1.427   0.340 -0.5406  0.0305  0.0917
 6845TIP3    H141950   5.715   1.332   0.350 -0.9678  0.0667  0.5965
 6845TIP3    H241951   5.628   1.444   0.299  0.1388  0.0883 -1.3422
 6846TIP3   OH241952   1.531   1.069  16.246  0.5902 -0.0877  0.0093
 6846TIP3    H141953   1.612   1.026  16.274  1.1151  0.6881 -0.2630
 6846TIP3    H241954   1.469   1.051  16.316  1.1570 -0.2530  0.4775
 6847TIP3   OH241955   3.253   5.850   5.710 -0.3099  0.4262  0.0345
 6847TIP3    H141956   3.176   5.905   5.722 -0.2151  0.9926 -1.6581
 6847TIP3    H241957   3.223   5.778   5.653  0.3273  0.5066 -0.4231
 6848TIP3   OH241958   3.618   5.681   6.151  0.0733 -0.2883 -0.5964
 6848TIP3    H141959   3.624   5.772   6.122 -1.2148  0.5833  1.5815
 6848TIP3    H241960   3.525   5.669   6.170 -0.1315 -2.7412 -2.7509
 6849TIP3   OH241961   3.983   6.736   4.057  0.1314 -0.1885 -0.2696
 6849TIP3    H141962   4.044   6.769   4.122  1.5683  0.9991 -2.1146
 6849TIP3    H241963   3.897   6.765   4.087  0.8981  1.4902  0.3981
 6850TIP3   OH241964   0.901   3.996  14.713 -0.4024  0.1609 -0.1728
 6850TIP3    H141965   0.829   3.965  14.767 -0.2803 -0.1822 -0.2035
 6850TIP3    H241966   0.925   4.081  14.751 -2.0909  1.2087 -1.3489
 6851TIP3   OH241967   3.026   2.308   5.771  0.4410  0.6999 -0.3619
 6851TIP3    H141968   3.075   2.242   5.721  1.2985  0.9788  0.0880
 6851TIP3    H241969   2.939   2.270   5.781  0.0169  0.9136 -2.6364
 6852TIP3   OH241970   1.763   0.468   4.841  0.5149 -0.1742 -0.2331
 6852TIP3    H141971   1.844   0.421   4.860  1.0045  0.9030  0.4245
 6852TIP3    H241972   1.712   0.460   4.921  0.6872  0.5703 -0.0428
 6853TIP3   OH241973   4.734   5.544   0.575  0.4314 -0.2420  0.7614
 6853TIP3    H141974   4.773   5.581   0.496  2.9017  0.7233  2.3392
 6853TIP3    H241975   4.639   5.552   0.560  0.8149  2.1130 -1.0933
 6854TIP3   OH241976   6.105   5.812   0.156 -0.4257  0.2287  0.2172
 6854TIP3    H141977   6.034   5.788   0.097 -1.3659  1.2081  0.9210
 6854TIP3    H241978   6.175   5.749   0.135 -1.4304 -0.6786 -0.5695
 6855TIP3   OH241979   6.113   1.516   4.829  0.0838 -0.0231  1.0010
 6855TIP3    H141980   6.149   1.427   4.836 -0.6406 -0.3027  1.2739
 6855TIP3    H241981   6.023   1.503   4.799  0.3818  0.6991 -0.2704
 6856TIP3   OH241982   1.841   3.560   2.739 -0.3800 -0.6055  0.5118
 6856TIP3    H141983   1.829   3.503   2.815 -0.2038 -0.0251  0.9884
 6856TIP3    H241984   1.933   3.548   2.715  0.5666  1.6767  2.4956
 6857TIP3   OH241985   4.311   4.018  12.358 -0.2983  0.2540  0.4005
 6857TIP3    H141986   4.246   3.949  12.371  0.2136 -0.0190  1.6236
 6857TIP3    H241987   4.291   4.083  12.424 -0.2496  0.8857 -0.1994
 6858TIP3   OH241988   2.470   1.980  17.264  0.6055  0.1744  0.3489
 6858TIP3    H141989   2.461   1.961  17.358 -0.4632  0.3925  0.3011
 6858TIP3    H241990   2.492   2.073  17.261 -1.7800  0.7973  0.3276
 6859TIP3   OH241991   2.691   2.429   3.462 -0.3765 -1.1011 -0.9454
 6859TIP3    H141992   2.746   2.360   3.426  0.3829 -0.9082 -0.1842
 6859TIP3    H241993   2.739   2.460   3.540 -1.4066 -0.7231 -0.4429
 6860TIP3   OH241994   4.316   2.404  12.884 -1.1355 -0.3033 -0.7174
 6860TIP3    H141995   4.346   2.349  12.812  0.1503  0.2309 -0.6211
 6860TIP3    H241996   4.223   2.416  12.868 -0.9223 -0.3949 -2.1770
 6861TIP3   OH241997   1.553   3.412   5.385 -0.6554 -0.4559 -0.1029
 6861TIP3    H141998   1.644   3.392   5.407 -0.4066  0.0111 -0.6779
 6861TIP3    H241999   1.521   3.462   5.460 -0.6243 -1.1449  0.3712
 6862TIP3   OH242000   1.248   3.506   3.105  0.4700  0.3378 -0.4598
 6862TIP3    H142001   1.277   3.575   3.045  1.8616  1.9034  1.8198
 6862TIP3    H242002   1.201   3.553   3.174 -1.2939 -1.4114 -0.3817
 6863TIP3   OH242003   0.876   4.927  15.196 -0.3388 -0.2065  0.1512
 6863TIP3    H142004   0.794   4.949  15.152  0.2724  0.5970 -0.6334
 6863TIP3    H242005   0.921   5.011  15.207  0.0972 -0.5536  1.1722
 6864TIP3   OH242006   3.830   3.051   3.688  0.1937  0.4218 -0.2503
 6864TIP3    H142007   3.924   3.032   3.692 -0.1311 -1.2479  0.2461
 6864TIP3    H242008   3.803   3.052   3.779 -0.3283  0.6164 -0.4077
 6865TIP3   OH242009   6.073   0.324  17.146 -0.5713  0.3034 -0.3796
 6865TIP3    H142010   6.126   0.274  17.208 -1.5234  0.5484  0.6704
 6865TIP3    H242011   6.097   0.290  17.060  1.2813  0.4112  0.0463
 6866TIP3   OH242012   6.758   4.085   1.324 -0.3578 -0.6066 -0.1084
 6866TIP3    H142013   6.813   4.096   1.247  0.0657 -0.6332  0.1880
 6866TIP3    H242014   6.743   4.174   1.356  1.7256 -0.7045  1.3474
 6867TIP3   OH242015   0.055   1.132   3.605  0.5794 -0.1169 -0.1601
 6867TIP3    H142016  -0.028   1.107   3.565  0.0985  1.1442  0.0102
 6867TIP3    H242017   0.078   1.057   3.661  0.2288 -1.0180 -1.1929
 6868TIP3   OH242018   6.549   4.204   1.017 -0.7366 -0.1249  0.1323
 6868TIP3    H142019   6.488   4.246   1.078 -0.5339  0.1038  0.1802
 6868TIP3    H242020   6.624   4.263   1.014 -1.8814  1.4049 -2.5336
 6869TIP3   OH242021   4.288   6.180  14.827  0.3765 -0.5289  0.2445
 6869TIP3    H142022   4.255   6.148  14.911  0.7767  0.0866  0.6410
 6869TIP3    H242023   4.243   6.126  14.762 -0.5860 -0.4320  0.8138
 6870TIP3   OH242024   5.554   2.696  13.194  0.1185  0.0589 -0.0419
 6870TIP3    H142025   5.536   2.612  13.151  1.4138  0.6308 -1.8205
 6870TIP3    H242026   5.649   2.698  13.204 -0.0279  0.6305  1.4993
 6871TIP3   OH242027   5.932   4.821  15.582 -0.2865 -0.1670  0.0256
 6871TIP3    H142028   5.964   4.853  15.497  0.3826 -0.5062  0.1445
 6871TIP3    H242029   5.855   4.769  15.560  0.3231 -0.8772 -0.4560
 6872TIP3   OH242030   6.154   6.133  14.758  0.0863  0.1212 -0.1587
 6872TIP3    H142031   6.100   6.114  14.681  0.5122 -0.9545 -0.2030
 6872TIP3    H242032   6.234   6.171  14.722  0.9413 -1.7914 -0.4089
 6873TIP3   OH242033   0.640   3.728  14.046  0.1686 -0.0538 -0.3508
 6873TIP3    H142034   0.546   3.720  14.031  0.6056 -0.0993 -4.0693
 6873TIP3    H242035   0.647   3.761  14.135 -3.4047  1.0676 -0.3091
 6874TIP3   OH242036   6.259   2.755  11.843 -0.2930 -0.6889 -0.5871
 6874TIP3    H142037   6.345   2.774  11.806 -0.0185  0.1804  0.4765
 6874TIP3    H242038   6.264   2.663  11.869  0.8918 -0.2187  0.9622
 6875TIP3   OH242039   4.614   0.644  15.105  0.4404  0.1738  0.4329
 6875TIP3    H142040   4.685   0.642  15.169  0.4248 -1.5332  0.4169
 6875TIP3    H242041   4.557   0.715  15.135  2.3100  1.8654  0.2236
 6876TIP3   OH242042   2.910   2.359  13.046  0.1475 -0.2598  0.0796
 6876TIP3    H142043   2.942   2.390  12.962  0.0329 -1.3678 -0.3815
 6876TIP3    H242044   2.883   2.268  13.030 -0.7366 -0.1932  1.0820
 6877TIP3   OH242045   4.437   6.515   0.068 -0.0346  0.0070 -0.0518
 6877TIP3    H142046   4.379   6.561   0.008 -0.9032 -0.6542  0.2690
 6877TIP3    H242047   4.382   6.494   0.144  1.1980  1.4609  1.3296
 6878TIP3   OH242048   6.067   2.380  16.285 -0.3192  0.1200 -0.1545
 6878TIP3    H142049   6.079   2.412  16.374  0.8207  1.0939 -0.6342
 6878TIP3    H242050   6.097   2.452  16.229 -0.3583 -0.7355 -1.3129
 6879TIP3   OH242051   6.490   5.990   2.302 -0.6339 -0.3186 -0.6519
 6879TIP3    H142052   6.535   5.912   2.334 -0.3498 -0.3651 -1.1540
 6879TIP3    H242053   6.404   5.987   2.344 -0.0813 -0.0750  0.5619
 6880TIP3   OH242054   6.303   2.238   0.164  0.5980  0.4236  0.5367
 6880TIP3    H142055   6.346   2.298   0.225  1.0604 -0.0393  0.6725
 6880TIP3    H242056   6.371   2.217   0.100  0.5584 -0.2614  0.7118
 6881TIP3   OH242057   1.131   4.215  12.264 -0.0819 -0.7593  0.9438
 6881TIP3    H142058   1.078   4.170  12.198 -1.0563  1.4453  0.1055
 6881TIP3    H242059   1.078   4.214  12.343 -0.8947  0.3618  0.4449
 6882TIP3   OH242060   1.679   0.738  17.036  0.0813  0.1617  0.2017
 6882TIP3    H142061   1.607   0.735  16.974 -0.3286 -0.9247  0.7146
 6882TIP3    H242062   1.698   0.831  17.047 -0.9927  0.4347 -0.2161
 6883TIP3   OH242063   4.879   4.001  11.289  0.6781 -0.2671 -0.1580
 6883TIP3    H142064   4.921   3.921  11.259 -0.8438 -1.1751  0.0360
 6883TIP3    H242065   4.898   4.005  11.383 -1.0699 -1.6377  0.3117
 6884TIP3   OH242066   2.654   2.655  16.358 -0.1863 -0.0921  0.0732
 6884TIP3    H142067   2.652   2.744  16.391 -0.9798  0.6707 -1.8358
 6884TIP3    H242068   2.604   2.659  16.276  2.0981 -1.6762 -1.5254
 6885TIP3   OH242069   5.822   3.346   1.649 -0.5083  0.1566  0.0694
 6885TIP3    H142070   5.734   3.338   1.611 -0.5884 -1.2076  0.4743
 6885TIP3    H242071   5.878   3.294   1.591 -0.1083  0.3814  0.2493
 6886TIP3   OH242072   3.092   1.849  11.911 -0.2885  0.3245  0.2616
 6886TIP3    H142073   3.132   1.794  11.979 -0.8806  0.5656  0.8182
 6886TIP3    H242074   3.164   1.902  11.878  0.5127 -1.4445 -0.9802
 6887TIP3   OH242075   2.972   1.546   3.169  0.1038  0.0395  0.2218
 6887TIP3    H142076   3.050   1.601   3.171 -0.7997  1.3974 -0.1860
 6887TIP3    H242077   3.005   1.457   3.154  1.6821  0.2632  1.9981
 6888TIP3   OH242078   5.126   4.119  11.423  0.4138  0.2284  0.0356
 6888TIP3    H142079   5.159   4.046  11.370  1.0939 -1.3268  2.4222
 6888TIP3    H242080   5.204   4.153  11.469 -0.1189  1.5879 -0.0199
 6889TIP3   OH242081   3.477   3.023   1.319 -0.6935  0.4704 -0.1511
 6889TIP3    H142082   3.529   3.094   1.281 -1.2311  0.3238 -1.1912
 6889TIP3    H242083   3.535   2.947   1.316  0.7856  1.2505  3.1212
 6890TIP3   OH242084   2.947   3.534   3.006  0.0716 -0.6151 -0.0571
 6890TIP3    H142085   2.991   3.500   3.084  0.3296 -1.4173 -0.5466
 6890TIP3    H242086   2.984   3.484   2.934 -0.1167  0.1660 -0.7119
 6891TIP3   OH242087   4.574   2.377  12.399  0.2014 -0.7894 -0.5905
 6891TIP3    H142088   4.617   2.303  12.356  0.4434  0.2301 -2.1681
 6891TIP3    H242089   4.645   2.435  12.425 -0.0113 -0.9085  0.2928
 6892TIP3   OH242090   1.416   6.590  15.349 -0.2831  0.1138  0.0402
 6892TIP3    H142091   1.342   6.564  15.403  0.3866  1.6313  1.8177
 6892TIP3    H242092   1.492   6.585  15.408  0.9497 -0.7678 -1.5298
 6893TIP3   OH242093   5.397   5.043  11.778  0.0060 -0.2943 -0.4616
 6893TIP3    H142094   5.338   5.082  11.714  1.9711  2.1163 -0.9224
 6893TIP3    H242095   5.485   5.069  11.750  1.0569 -0.3235  2.4122
 6894TIP3   OH242096   6.407   3.403   2.198  0.0075  0.6763  0.2387
 6894TIP3    H142097   6.342   3.460   2.239 -1.6836 -1.5920  0.8874
 6894TIP3    H242098   6.475   3.392   2.265 -1.6129 -1.1578  1.7159
 6895TIP3   OH242099   5.747   4.922  15.942 -0.2658  0.3087 -0.2052
 6895TIP3    H142100   5.670   4.865  15.939 -0.1166  0.1294 -1.8586
 6895TIP3    H242101   5.793   4.904  15.860  0.4953  1.8357 -0.1513
 6896TIP3   OH242102   3.162   1.440   6.460 -0.2474  0.2564 -0.5769
 6896TIP3    H142103   3.214   1.362   6.480 -0.1588  0.4540 -0.0273
 6896TIP3    H242104   3.072   1.416   6.482 -0.3634 -0.0069 -1.3091
 6897TIP3   OH242105   2.352   1.890   2.731 -0.2121  0.1988  0.2011
 6897TIP3    H142106   2.367   1.943   2.809  0.5964  0.6565 -0.2489
 6897TIP3    H242107   2.382   1.802   2.756 -2.2355 -0.2747  1.1869
 6898TIP3   OH242108   5.526   1.996   3.197 -0.0658 -0.0755  0.1136
 6898TIP3    H142109   5.613   2.021   3.228  0.5275 -1.0346 -0.6996
 6898TIP3    H242110   5.480   1.967   3.276  0.3079  0.5478  0.5697
 6899TIP3   OH242111   1.886   5.011  17.088 -0.4223  0.1161 -0.6390
 6899TIP3    H142112   1.885   4.931  17.035  1.0551 -2.2678  2.6159
 6899TIP3    H242113   1.796   5.021  17.118 -0.3059 -1.4233  0.3287
 6900TIP3   OH242114   3.992   2.441   2.287  0.1151  0.1739 -0.7073
 6900TIP3    H142115   3.981   2.526   2.331 -2.1356 -0.9275  1.0659
 6900TIP3    H242116   3.911   2.430   2.237  0.2320 -1.0558 -0.6373
 6901TIP3   OH242117   0.770   1.336  11.827 -0.3516  0.2499  0.3420
 6901TIP3    H142118   0.736   1.279  11.758  2.3676  0.1979 -1.0905
 6901TIP3    H242119   0.733   1.422  11.809 -1.8022 -0.3121  0.5008
 6902TIP3   OH242120   2.330   5.404   3.373 -0.1866  0.1473 -0.4775
 6902TIP3    H142121   2.397   5.426   3.308 -0.3767  1.3976 -0.2740
 6902TIP3    H242122   2.353   5.315   3.401  1.7186  0.7216 -0.0400
 6903TIP3   OH242123   3.429   3.450  11.882  0.3286  0.0362 -0.3237
 6903TIP3    H142124   3.343   3.450  11.924  0.1174 -0.4543 -0.7519
 6903TIP3    H242125   3.435   3.534  11.838 -0.2318 -0.2224 -0.8985
 6904TIP3   OH242126   4.476   0.898  12.041  0.2211  0.2218 -0.3201
 6904TIP3    H142127   4.429   0.979  12.060  1.1985  0.4358  1.4324
 6904TIP3    H242128   4.532   0.919  11.967  0.4394  1.1425  0.1009
 6905TIP3   OH242129   0.764   0.570  14.219 -0.3825  0.2965  0.1505
 6905TIP3    H142130   0.856   0.552  14.242 -0.7215 -1.0215  0.5284
 6905TIP3    H242131   0.719   0.570  14.304 -1.1170 -1.4341 -0.2119
 6906TIP3   OH242132   2.592   0.095  15.461  0.0856  0.6032  0.2741
 6906TIP3    H142133   2.626   0.008  15.438 -1.2802  0.1950 -0.2931
 6906TIP3    H242134   2.634   0.116  15.544  1.2692 -0.1091 -0.1180
 6907TIP3   OH242135   0.556   5.041   2.193  0.1762 -0.2528 -0.3177
 6907TIP3    H142136   0.488   5.049   2.261  0.4180 -0.1943 -0.0819
 6907TIP3    H242137   0.507   5.040   2.111 -0.1980 -1.3657 -0.0981
 6908TIP3   OH242138   4.722   3.491   2.752  0.4798 -0.4973 -0.1834
 6908TIP3    H142139   4.697   3.511   2.842  2.4305 -1.3514  0.5960
 6908TIP3    H242140   4.672   3.553   2.699 -1.6996 -0.8054  1.3558
 6909TIP3   OH242141   3.348   0.912   6.216  0.8121  0.1369 -0.0422
 6909TIP3    H142142   3.429   0.914   6.269  1.0329  0.8436 -0.3949
 6909TIP3    H242143   3.282   0.878   6.276  0.6402  2.6421  1.3305
 6910TIP3   OH242144   1.481   0.733   5.895  0.6453  0.5293  0.3055
 6910TIP3    H142145   1.517   0.735   5.984  0.3597 -0.4155  0.4507
 6910TIP3    H242146   1.530   0.663   5.851 -1.5794 -1.4338  0.7778
 6911TIP3   OH242147   3.266   1.362   4.435  0.9317  0.0385 -0.1958
 6911TIP3    H142148   3.319   1.301   4.487 -1.3173 -0.9961  1.0731
 6911TIP3    H242149   3.276   1.332   4.345  1.4294 -0.9742  0.1810
 6912TIP3   OH242150   2.816   3.388  14.134 -0.5348 -1.0061  0.2249
 6912TIP3    H142151   2.732   3.362  14.172 -1.4306  2.0701  0.5698
 6912TIP3    H242152   2.795   3.412  14.044 -0.4578  1.3682  0.7674
 6913TIP3   OH242153   5.478   4.952   1.836 -0.1462 -0.2601 -0.1616
 6913TIP3    H142154   5.392   4.911   1.841 -0.2892 -0.0899 -0.9429
 6913TIP3    H242155   5.533   4.888   1.791  0.1406 -0.3758  0.3535
 6914TIP3   OH242156   0.941   3.082   4.650  0.0997  0.3392 -0.4054
 6914TIP3    H142157   0.878   3.036   4.594 -0.2781 -1.3250  1.2623
 6914TIP3    H242158   1.001   3.124   4.589 -2.1757  1.4182 -2.0726
 6915TIP3   OH242159   4.998   0.458   5.953  0.0270 -0.1884 -0.3029
 6915TIP3    H142160   4.955   0.536   5.987 -0.9884 -0.0990 -1.7017
 6915TIP3    H242161   4.945   0.385   5.984  0.1773 -0.2293 -0.1427
 6916TIP3   OH242162   3.424   0.721   3.589  0.3887 -0.0102 -0.2267
 6916TIP3    H142163   3.353   0.770   3.548  0.2871 -0.6207 -0.8061
 6916TIP3    H242164   3.400   0.629   3.574  1.3651 -0.2195 -0.5515
 6917TIP3   OH242165   5.384   2.947  17.188  0.1655 -0.3061  0.4530
 6917TIP3    H142166   5.463   2.993  17.159 -0.1394  0.1999  0.4069
 6917TIP3    H242167   5.411   2.899  17.266  0.7864 -1.0113 -0.1802
 6918TIP3   OH242168   2.706   1.807  12.069  0.3110  0.4646 -0.4600
 6918TIP3    H142169   2.710   1.809  12.164  0.6024  3.4985 -0.4268
 6918TIP3    H242170   2.613   1.795  12.049 -0.1076  2.1709  0.3018
 6919TIP3   OH242171   2.958   5.060  15.070 -0.2688 -0.1143 -0.1422
 6919TIP3    H142172   3.010   5.138  15.049  0.7038 -0.9525 -0.9636
 6919TIP3    H242173   2.913   5.039  14.988 -0.8123 -0.2295  0.1787
 6920TIP3   OH242174   3.117   3.148   0.093  0.4096 -0.5098 -0.0197
 6920TIP3    H142175   3.076   3.062   0.104  0.7576 -1.0330 -2.3212
 6920TIP3    H242176   3.083   3.180   0.010  0.4104  1.5410  0.7214
 6921TIP3   OH242177   0.044   5.274   5.529  0.1795  0.2087  0.1895
 6921TIP3    H142178  -0.031   5.314   5.485 -0.5314  0.7630  1.8434
 6921TIP3    H242179   0.006   5.209   5.588  1.0354  0.1374  0.6859
 6922TIP3   OH242180   0.970   4.370  14.678 -0.4779  0.1668  0.2505
 6922TIP3    H142181   0.981   4.458  14.714  0.9355  0.1910 -0.1781
 6922TIP3    H242182   1.045   4.358  14.620 -0.7993 -1.2227  0.0807
 6923TIP3   OH242183   2.339   5.305  13.012  0.9743 -0.7245  0.4219
 6923TIP3    H142184   2.397   5.284  13.085  1.8968  0.3676  0.0400
 6923TIP3    H242185   2.297   5.221  12.990  1.7405 -1.3610  1.2829
 6924TIP3   OH242186   1.132   3.336   3.941  0.6636 -0.1465  0.0969
 6924TIP3    H142187   1.189   3.380   4.005  0.7340  1.1709 -0.8189
 6924TIP3    H242188   1.193   3.303   3.875  0.4607  0.2961 -0.3184
 6925TIP3   OH242189   2.653   0.857   4.494  0.6061  0.7638  0.1490
 6925TIP3    H142190   2.681   0.831   4.582 -1.0672  3.4732  1.6124
 6925TIP3    H242191   2.734   0.875   4.448  1.4930  0.7115  1.6232
 6926TIP3   OH242192   0.139   6.109  14.971  0.8177 -0.0039  0.1562
 6926TIP3    H142193   0.207   6.175  14.987  0.7247 -0.0557  0.7978
 6926TIP3    H242194   0.057   6.153  14.993  0.5488  0.3171 -1.3807
 6927TIP3   OH242195   5.188   1.729   5.249  0.3419 -0.1195 -0.2861
 6927TIP3    H142196   5.133   1.738   5.171 -0.2262 -0.1917  0.1059
 6927TIP3    H242197   5.172   1.640   5.279 -1.0666  0.5566  1.1184
 6928TIP3   OH242198   5.258   3.686  15.023 -1.1109  0.0878  1.1058
 6928TIP3    H142199   5.257   3.673  15.117  2.4164  1.3766  1.4963
 6928TIP3    H242200   5.252   3.781  15.012 -0.0035  0.0714  0.1569
 6929TIP3   OH242201   3.154   6.023   2.798  0.5843  0.0061 -0.0941
 6929TIP3    H142202   3.198   6.106   2.816  0.8692 -0.2443  0.3724
 6929TIP3    H242203   3.080   6.047   2.742  0.7712  0.5501 -0.1136
 6930TIP3   OH242204   1.176   2.252   2.602  0.1079 -0.6217  0.7023
 6930TIP3    H142205   1.112   2.195   2.645 -1.0521 -1.1981 -1.6284
 6930TIP3    H242206   1.131   2.284   2.524  1.6496  1.4417  0.5773
 6931TIP3   OH242207   6.421   4.230  11.136  0.0466  0.2738  0.2983
 6931TIP3    H142208   6.328   4.208  11.128  0.5031 -1.9561  0.5503
 6931TIP3    H242209   6.466   4.168  11.078  1.3774  1.6567 -0.2419
 6932TIP3   OH242210   2.494   3.336   5.120 -0.1591  0.4980 -0.6401
 6932TIP3    H142211   2.501   3.380   5.206  0.2791  1.0904 -0.9705
 6932TIP3    H242212   2.447   3.255   5.139  1.6692 -0.3453  0.5167
 6933TIP3   OH242213   5.894   0.412   2.307  0.1474 -0.2309 -0.0429
 6933TIP3    H142214   5.977   0.432   2.351  0.6185 -1.9085 -0.1131
 6933TIP3    H242215   5.856   0.341   2.358 -0.2353 -0.8871 -1.2162
 6934TIP3   OH242216   4.587   6.568  14.253 -0.5443  0.9526 -0.2919
 6934TIP3    H142217   4.501   6.592  14.288  0.3161  2.5889  0.7920
 6934TIP3    H242218   4.630   6.651  14.234  0.9963  0.1799 -0.3551
 6935TIP3   OH242219   2.755   2.164   2.060 -0.1445  0.0098 -0.3865
 6935TIP3    H142220   2.768   2.072   2.082  1.9453 -0.0255 -1.5474
 6935TIP3    H242221   2.841   2.195   2.033 -0.8170  2.2951 -0.1531
 6936TIP3   OH242222   2.572   3.553  12.588 -0.3076 -0.2749  0.1458
 6936TIP3    H142223   2.654   3.505  12.574 -0.7902 -1.1477  0.2137
 6936TIP3    H242224   2.591   3.610  12.663  0.2358 -0.4722  0.1659
 6937TIP3   OH242225   1.453   0.875  11.546 -0.0775 -0.2569  0.2129
 6937TIP3    H142226   1.456   0.918  11.461  0.6607  0.1353  0.4199
 6937TIP3    H242227   1.430   0.784  11.527 -1.4974  0.1771 -0.2513
 6938TIP3   OH242228   4.104   4.020   4.295 -0.2277  0.8023 -0.4010
 6938TIP3    H142229   4.085   3.936   4.252  0.0713  0.6539 -0.2463
 6938TIP3    H242230   4.151   4.071   4.229  0.1869  0.5934 -0.2696
 6939TIP3   OH242231   2.292   3.023   3.478  0.4342 -0.3039 -0.4785
 6939TIP3    H142232   2.360   3.090   3.471 -0.9511  1.0902 -1.3086
 6939TIP3    H242233   2.268   3.005   3.387 -0.4419 -0.6295 -0.1853
 6940TIP3   OH242234   2.375   0.116  15.675  0.0376 -0.3865 -0.2536
 6940TIP3    H142235   2.312   0.061  15.720  0.9717 -0.9644  0.3850
 6940TIP3    H242236   2.355   0.105  15.582  0.0477 -1.6128 -0.1166
 6941TIP3   OH242237   1.482   1.450   1.475 -0.0976  0.6054  0.0276
 6941TIP3    H142238   1.452   1.509   1.407 -1.0458 -0.2111 -0.2986
 6941TIP3    H242239   1.401   1.415   1.513  0.4280 -0.6599  0.0280
 6942TIP3   OH242240   6.146   1.986   1.637  0.0800 -0.1431 -0.0886
 6942TIP3    H142241   6.132   2.080   1.646  0.2333 -0.1140 -0.1525
 6942TIP3    H242242   6.178   1.958   1.723 -1.2701 -0.3787  0.3743
 6943TIP3   OH242243   1.467   5.716   2.730 -0.3710 -0.1399 -0.7619
 6943TIP3    H142244   1.473   5.787   2.666 -1.1292  0.9705  0.3528
 6943TIP3    H242245   1.405   5.654   2.691  0.1048 -0.0904 -1.6328
 6944TIP3   OH242246   5.272   4.094  11.054 -0.1468 -0.2438  0.9926
 6944TIP3    H142247   5.341   4.061  11.111 -1.8396 -2.5226  1.8703
 6944TIP3    H242248   5.278   4.041  10.975 -0.8107 -0.3861  1.0300
 6945TIP3   OH242249   0.048   1.876  12.750 -0.3498 -0.1469  1.2066
 6945TIP3    H142250   0.133   1.904  12.784  0.0014 -0.7120  0.8205
 6945TIP3    H242251   0.070   1.818  12.677 -1.0331 -2.0181  2.4238
 6946TIP3   OH242252   0.598   6.471   3.317  0.0383 -0.3850  0.1040
 6946TIP3    H142253   0.503   6.461   3.312 -0.0969  0.7390 -0.0113
 6946TIP3    H242254   0.632   6.383   3.332 -1.0509 -0.7367  0.5686
 6947TIP3   OH242255   0.909   3.997   2.833 -0.0657  0.5302 -0.0183
 6947TIP3    H142256   0.979   3.998   2.897 -1.1657 -1.2144  1.2803
 6947TIP3    H242257   0.870   4.084   2.839  0.4793  0.7156  0.9337
 6948TIP3   OH242258   1.381   2.524  15.321  0.0631 -0.4290 -0.0887
 6948TIP3    H142259   1.421   2.482  15.245 -0.6637  1.0830 -1.3751
 6948TIP3    H242260   1.292   2.547  15.291 -0.4115 -0.2399  1.3863
 6949TIP3   OH242261   6.645   4.011  12.819  0.5858  1.0951  0.0555
 6949TIP3    H142262   6.711   3.980  12.757 -1.0833  1.6927 -2.1531
 6949TIP3    H242263   6.613   4.093  12.780 -1.4181  0.8233  1.0455
 6950TIP3   OH242264   0.027   2.438  17.132  0.1740 -0.0803 -0.6731
 6950TIP3    H142265  -0.020   2.503  17.080  1.9115  1.1246 -0.8341
 6950TIP3    H242266   0.013   2.355  17.086  1.7281  0.9527 -3.2013
 6951TIP3   OH242267   5.742   0.249  14.284  0.3054  0.3001  0.2484
 6951TIP3    H142268   5.699   0.244  14.369 -0.4880  1.9296 -0.0179
 6951TIP3    H242269   5.802   0.323  14.292 -0.8302  1.4022 -1.0309
 6952TIP3   OH242270   0.443   4.849   4.155  0.0246  0.6338  0.4805
 6952TIP3    H142271   0.392   4.913   4.206 -0.1738  0.5969  0.3256
 6952TIP3    H242272   0.436   4.768   4.205 -0.0878  0.6219  0.4446
 6953TIP3   OH242273   1.662   1.488   5.532 -0.1339  0.2722 -0.3603
 6953TIP3    H142274   1.604   1.509   5.604  1.4682  0.7117  0.8733
 6953TIP3    H242275   1.617   1.421   5.482 -2.0183  1.1667  0.0681
 6954TIP3   OH242276   2.693   2.214  16.298 -0.0595 -0.1225 -0.0551
 6954TIP3    H142277   2.762   2.160  16.335  1.4945  1.2116 -0.8677
 6954TIP3    H242278   2.728   2.243  16.214 -2.9493 -2.0448 -2.1096
 6955TIP3   OH242279   4.809   6.598  16.081 -0.2151  0.4498  0.6883
 6955TIP3    H142280   4.746   6.546  16.130 -0.0350 -0.1206  0.3298
 6955TIP3    H242281   4.799   6.687  16.115 -1.1827  0.3661  0.6570
 6956TIP3   OH242282   1.762   1.810   2.799 -0.5511 -0.2688 -0.5630
 6956TIP3    H142283   1.669   1.798   2.819  0.3404 -2.6718  3.1725
 6956TIP3    H242284   1.800   1.723   2.813  2.4300  0.8815 -0.8662
 6957TIP3   OH242285   1.121   5.327   2.434  0.6034 -0.2848  0.3648
 6957TIP3    H142286   1.192   5.274   2.469 -1.0845 -0.7754  3.4408
 6957TIP3    H242287   1.068   5.265   2.383  0.5765 -0.7708  0.9604
 6958TIP3   OH242288   2.370   4.319   1.393  0.6628 -0.0827 -0.2097
 6958TIP3    H142289   2.355   4.407   1.359 -2.2732 -0.3759  0.0769
 6958TIP3    H242290   2.386   4.266   1.315 -1.9837 -0.0265 -0.8741
 6959TIP3   OH242291   5.334   0.052  17.213  0.2032 -0.0964 -1.0126
 6959TIP3    H142292   5.333  -0.042  17.230  0.1896 -0.2107 -1.6196
 6959TIP3    H242293   5.267   0.088  17.271  2.3051 -0.0290  1.5912
 6960TIP3   OH242294   0.087   6.037   1.623  0.3495  0.0503 -0.1689
 6960TIP3    H142295   0.139   5.975   1.674  0.3182  0.2253  0.0778
 6960TIP3    H242296   0.140   6.117   1.621  0.1531  0.1839 -0.0350
 6961TIP3   OH242297   6.403   0.217   5.868 -0.3795 -0.0047  0.1990
 6961TIP3    H142298   6.477   0.158   5.864  1.0518  1.6880  0.5094
 6961TIP3    H242299   6.380   0.234   5.777  0.8040  0.8583  0.0456
 6962TIP3   OH242300   0.733   0.381   3.256 -0.0167 -0.2656  0.3653
 6962TIP3    H142301   0.812   0.348   3.213 -0.0805 -1.5497  1.2076
 6962TIP3    H242302   0.764   0.413   3.340 -0.2124  0.3923  0.1919
 6963TIP3   OH242303   0.186   5.417  16.816  0.2044 -0.0481  0.4101
 6963TIP3    H142304   0.125   5.350  16.844  1.1480 -0.7822  0.7288
 6963TIP3    H242305   0.200   5.400  16.723  0.1732 -0.0852  0.4126
 6964TIP3   OH242306   0.262   1.778  11.302  0.6410  0.0654  0.2187
 6964TIP3    H142307   0.280   1.868  11.273 -1.2540  0.8788  1.3307
 6964TIP3    H242308   0.169   1.779  11.325 -0.0379 -2.8199 -1.8929
 6965TIP3   OH242309   1.897   0.628   1.136  0.3755  0.0135  0.4052
 6965TIP3    H142310   1.926   0.587   1.218 -1.4505 -1.4342  0.3927
 6965TIP3    H242311   1.869   0.715   1.163  0.4344 -0.1984  1.2005
 6966TIP3   OH242312   0.112   5.851  11.335  0.5056  0.1626  0.3524
 6966TIP3    H142313   0.101   5.812  11.421  2.8498 -2.1452 -0.2687
 6966TIP3    H242314   0.170   5.926  11.349 -0.1419  0.5522  0.9426
 6967TIP3   OH242315   1.292   6.683   1.407 -0.0337 -0.2143 -0.2864
 6967TIP3    H142316   1.287   6.666   1.312  1.9918  1.0209 -0.6707
 6967TIP3    H242317   1.386   6.683   1.426 -0.3670  0.7307  1.5175
 6968TIP3   OH242318   6.202   5.783  15.888 -1.1014  0.5106  0.3735
 6968TIP3    H142319   6.243   5.697  15.882  0.8471  1.4296 -0.2254
 6968TIP3    H242320   6.202   5.803  15.982  0.1238  0.6157  0.3609
 6969TIP3   OH242321   2.735   4.169   6.339 -0.0321  0.2735 -0.3288
 6969TIP3    H142322   2.651   4.201   6.372  0.2135  0.9975 -0.3833
 6969TIP3    H242323   2.727   4.176   6.243  0.3076  0.9311 -0.3153
 6970TIP3   OH242324   5.546   1.083  14.514  0.3890 -0.4296  0.0322
 6970TIP3    H142325   5.622   1.121  14.557  2.9095 -2.7249 -2.0044
 6970TIP3    H242326   5.540   1.129  14.430 -0.6196 -0.1622  0.2361
 6971TIP3   OH242327   3.951   5.240   5.246  0.3705  0.5939 -0.3049
 6971TIP3    H142328   3.978   5.318   5.295  2.5923 -0.9272  1.0433
 6971TIP3    H242329   3.867   5.215   5.286  0.6137  1.1589  0.5926
 6972TIP3   OH242330   1.334   4.089   3.724 -0.1643  0.4104  0.2086
 6972TIP3    H142331   1.345   4.160   3.661 -1.0607  0.3132 -0.0630
 6972TIP3    H242332   1.257   4.041   3.695  1.1247 -1.4596 -0.3508
 6973TIP3   OH242333   0.435   0.224   0.965  0.3510 -0.7272  0.2887
 6973TIP3    H142334   0.465   0.150   1.017  1.3410 -0.1135  0.6072
 6973TIP3    H242335   0.512   0.251   0.915  0.0628  0.2272  0.3449
 6974TIP3   OH242336   0.692   1.368  12.442  0.4690 -0.7648  0.1680
 6974TIP3    H142337   0.648   1.376  12.527 -0.3457 -0.5460 -0.2664
 6974TIP3    H242338   0.739   1.285  12.447  0.0306 -0.9873  0.6559
 6975TIP3   OH242339   0.801   6.515  15.991  0.3451  0.1779  0.0645
 6975TIP3    H142340   0.755   6.450  15.939  2.1839 -0.3518 -0.9904
 6975TIP3    H242341   0.797   6.480  16.081 -0.0562 -0.5736 -0.2315
 6976TIP3   OH242342   3.815   1.978   4.655 -0.4285  1.1862 -0.1022
 6976TIP3    H142343   3.776   1.949   4.572  0.3377  0.1965 -0.1375
 6976TIP3    H242344   3.753   1.950   4.721  0.2498 -0.5680 -0.1433
 6977TIP3   OH242345   0.371   1.610   2.532 -0.3043  0.0513 -0.3734
 6977TIP3    H142346   0.356   1.573   2.445  3.0427 -1.4035 -0.4611
 6977TIP3    H242347   0.409   1.696   2.515  1.1556 -0.5833 -0.4115
 6978TIP3   OH242348   5.140   2.930  13.962 -0.0606 -1.0325 -0.3755
 6978TIP3    H142349   5.101   2.965  14.042  0.5555  0.1588 -0.5630
 6978TIP3    H242350   5.225   2.975  13.955 -0.6749 -0.0723 -2.3931
 6979TIP3   OH242351   5.767   0.794  14.994 -0.2562  0.1397  0.2421
 6979TIP3    H142352   5.824   0.748  15.055  1.5014  0.5441 -1.0063
 6979TIP3    H242353   5.679   0.769  15.020  0.4910 -0.9426  1.9206
 6980TIP3   OH242354   4.971   4.455  16.861  0.1346  0.0882 -0.5261
 6980TIP3    H142355   4.976   4.492  16.949  1.4475  2.0582 -1.3807
 6980TIP3    H242356   4.883   4.478  16.831 -0.3604 -0.6898  0.2857
 6981TIP3   OH242357   4.710   6.763  16.740 -0.0981 -0.4566 -0.0033
 6981TIP3    H142358   4.636   6.824  16.731 -1.0894 -1.6363 -0.0779
 6981TIP3    H242359   4.740   6.749  16.650 -0.4034 -0.7153 -0.0662
 6982TIP3   OH242360   3.960   0.581  13.757 -0.3116 -0.4456 -0.0541
 6982TIP3    H142361   4.050   0.599  13.727 -0.6364 -0.1537 -0.8797
 6982TIP3    H242362   3.958   0.614  13.847  0.4446 -0.5668  0.0160
 6983TIP3   OH242363   1.903   5.880   0.501 -0.0902 -0.2428  0.2663
 6983TIP3    H142364   1.869   5.950   0.445  1.0670 -0.8339 -1.2574
 6983TIP3    H242365   1.907   5.919   0.588 -0.9420  1.0738 -0.2486
 6984TIP3   OH242366   2.372   0.768  12.213 -0.6495 -0.2245 -0.3562
 6984TIP3    H142367   2.418   0.692  12.177  1.3447  0.3090  0.8890
 6984TIP3    H242368   2.419   0.843  12.178  0.0712  0.3285  1.6517
 6985TIP3   OH242369   4.769   1.604  14.220  0.9127 -0.1707 -0.8094
 6985TIP3    H142370   4.683   1.581  14.184  0.1562  1.5561 -0.2202
 6985TIP3    H242371   4.800   1.524  14.262  0.2960 -1.2640 -2.3319
 6986TIP3   OH242372   1.785   6.577   2.192  0.2032 -0.1888 -0.0500
 6986TIP3    H142373   1.761   6.669   2.200 -0.8656 -0.4983  0.6525
 6986TIP3    H242374   1.706   6.535   2.158  0.7846 -0.7969 -0.6626
 6987TIP3   OH242375   4.774   2.938   6.172 -0.0789 -0.8546 -0.0133
 6987TIP3    H142376   4.681   2.950   6.192 -0.0059 -1.4139  0.7123
 6987TIP3    H242377   4.790   2.996   6.097 -0.8391 -0.1933  0.3125
 6988TIP3   OH242378   5.069   5.911   2.989 -0.4336  0.2546 -0.3173
 6988TIP3    H142379   5.111   5.996   2.974  0.7719 -0.0437  1.1614
 6988TIP3    H242380   4.986   5.917   2.940  0.6672  1.3813 -2.1886
 6989TIP3   OH242381   1.192   4.294  16.599 -0.7633  0.9441  0.4346
 6989TIP3    H142382   1.152   4.330  16.678  0.4954  0.9256  1.1084
 6989TIP3    H242383   1.286   4.309  16.610 -0.2779 -1.4970  0.2421
 6990TIP3   OH242384   5.221   5.640  15.406  0.3278  0.3946  0.0207
 6990TIP3    H142385   5.184   5.555  15.430 -2.1585  0.8180 -1.9127
 6990TIP3    H242386   5.248   5.678  15.489  1.9143 -2.3815  0.9152
 6991TIP3   OH242387   4.173   0.747   3.135  0.2336  0.4397 -0.2453
 6991TIP3    H142388   4.158   0.703   3.218 -1.5988  0.7566 -0.3848
 6991TIP3    H242389   4.166   0.677   3.069  2.3740  0.0547 -0.1371
 6992TIP3   OH242390   2.074   6.502  15.503 -0.2822  0.2273  0.2412
 6992TIP3    H142391   2.090   6.408  15.504  0.1109  0.2968  0.4197
 6992TIP3    H242392   2.161   6.541  15.494 -0.2979  0.6185  1.6876
 6993TIP3   OH242393   6.564   5.696   4.458  0.1666 -0.0459  0.3861
 6993TIP3    H142394   6.613   5.670   4.380  3.2679 -0.2645  2.2563
 6993TIP3    H242395   6.540   5.613   4.499 -2.4015  0.0418 -0.7488
 6994TIP3   OH242396   0.545   2.121   1.576  0.0577  0.2232  0.0021
 6994TIP3    H142397   0.471   2.109   1.517 -0.9522 -0.5167  1.3716
 6994TIP3    H242398   0.513   2.092   1.661  1.5156  1.1212  0.8999
 6995TIP3   OH242399   3.652   5.034  16.385 -0.1080 -0.4851 -0.0349
 6995TIP3    H142400   3.718   4.972  16.414 -0.4321 -0.7689  0.0965
 6995TIP3    H242401   3.601   5.053  16.464 -0.2230 -0.3139 -0.1516
 6996TIP3   OH242402   5.648   1.370   2.437  0.2239  0.5959 -0.2132
 6996TIP3    H142403   5.619   1.391   2.526  2.7280  2.2890  0.2824
 6996TIP3    H242404   5.662   1.275   2.439 -3.1841 -0.0388  0.0285
 6997TIP3   OH242405   6.049   2.525  14.916 -0.3226  0.4698 -0.3103
 6997TIP3    H142406   6.095   2.562  14.841 -0.2528 -0.8541 -0.9562
 6997TIP3    H242407   5.959   2.514  14.887 -0.5623  1.0317  0.2074
 6998TIP3   OH242408   3.656   3.635   5.713  0.4702  0.6787 -0.6436
 6998TIP3    H142409   3.566   3.627   5.682  0.5889 -0.8838 -0.6442
 6998TIP3    H242410   3.667   3.729   5.729 -1.5073  0.7829  0.4150
 6999TIP3   OH242411   0.611   5.194  11.494  0.4372  0.7555  0.2937
 6999TIP3    H142412   0.705   5.179  11.489  0.3271  0.3936 -1.4637
 6999TIP3    H242413   0.578   5.166  11.409 -0.9451  2.9543  0.0097
 7000TIP3   OH242414   4.739   4.242  15.950 -0.3279 -0.3506 -0.6446
 7000TIP3    H142415   4.702   4.210  16.032  0.5190 -0.0881 -0.1591
 7000TIP3    H242416   4.689   4.322  15.932  1.4954  1.3259  1.2416
 7001TIP3   OH242417   0.111   1.936  14.891 -0.2214 -0.9309  0.1882
 7001TIP3    H142418   0.123   2.017  14.842  1.4690 -1.9360 -1.1635
 7001TIP3    H242419   0.120   1.962  14.983  2.0773  0.1665 -0.2899
 7002TIP3   OH242420   3.141   6.165  12.363  0.3013 -0.5502  0.2206
 7002TIP3    H142421   3.216   6.132  12.313  0.4070 -0.7921  0.5394
 7002TIP3    H242422   3.088   6.210  12.298  0.2473 -1.1915 -0.1888
 7003TIP3   OH242423   3.066   0.153   3.202 -0.1834 -0.4303 -0.1751
 7003TIP3    H142424   3.025   0.169   3.117  0.2899  2.6290  0.0590
 7003TIP3    H242425   3.155   0.125   3.180 -0.6196 -1.4998 -0.6553
 7004TIP3   OH242426   0.241   3.428   1.852 -0.3674 -0.1469  0.4929
 7004TIP3    H142427   0.260   3.477   1.772  3.0619  0.2666  1.3973
 7004TIP3    H242428   0.261   3.337   1.830  0.0382 -0.1118  0.7036
 7005TIP3   OH242429   0.260   4.526  12.934  0.0935  0.4702 -0.2342
 7005TIP3    H142430   0.310   4.603  12.907  0.4744  0.1048 -0.5822
 7005TIP3    H242431   0.177   4.534  12.887  0.4222  0.2838 -0.8643
 7006TIP3   OH242432   3.110   5.599   4.980 -0.4660 -0.5146 -0.0600
 7006TIP3    H142433   3.056   5.586   4.903 -2.3811  1.3298  0.8789
 7006TIP3    H242434   3.191   5.638   4.946 -0.8433 -0.7170 -1.2257
 7007TIP3   OH242435   2.134   5.794   5.131 -0.4507  0.1345  0.7351
 7007TIP3    H142436   2.059   5.811   5.188 -0.2743  0.8570  0.7600
 7007TIP3    H242437   2.198   5.861   5.155 -0.0656 -0.0493  0.2338
 7008TIP3   OH242438   2.257   0.948   4.227 -0.1344  0.0221 -0.0372
 7008TIP3    H142439   2.166   0.960   4.255  0.3355  0.2440  1.5415
 7008TIP3    H242440   2.259   0.977   4.136 -1.7069 -0.3315 -0.2078
 7009TIP3   OH242441   3.963   3.347   2.329  0.1574 -0.2708 -0.1521
 7009TIP3    H142442   4.046   3.300   2.337  0.0465 -0.3655  0.4745
 7009TIP3    H242443   3.957   3.369   2.236  1.5615  0.9874  0.0270
 7010TIP3   OH242444   4.120   4.644   0.248  0.1822  0.2846 -0.1962
 7010TIP3    H142445   4.024   4.637   0.246  0.0266  0.5958  2.4097
 7010TIP3    H242446   4.151   4.554   0.256  0.0928  0.2075 -0.7076
 7011TIP3   OH242447   2.341   3.298  15.521  0.0445  0.4673  0.7331
 7011TIP3    H142448   2.265   3.280  15.466  0.6118  1.0928 -0.3127
 7011TIP3    H242449   2.324   3.383  15.560 -0.1080  0.2776  1.0858
 7012TIP3   OH242450   2.593   4.154  13.918 -0.1098 -0.6564 -0.0808
 7012TIP3    H142451   2.656   4.141  13.847 -0.0885 -0.0077 -0.1874
 7012TIP3    H242452   2.592   4.070  13.965  1.1330 -0.5495  0.1687
 7013TIP3   OH242453   0.177   4.418  11.796 -0.4901 -0.2186 -0.1544
 7013TIP3    H142454   0.232   4.494  11.813  1.0702 -1.2283 -0.4704
 7013TIP3    H242455   0.100   4.453  11.750  0.6555  1.0318 -1.1915
 7014TIP3   OH242456   5.204   4.174   5.234  0.0900  0.8313  0.3246
 7014TIP3    H142457   5.165   4.101   5.282 -1.2236  2.5031  1.9846
 7014TIP3    H242458   5.290   4.186   5.274 -0.3308  1.1485  1.1855
 7015TIP3   OH242459   5.667   2.656   1.450  0.1553 -1.1774  0.0125
 7015TIP3    H142460   5.574   2.665   1.431 -0.0098 -0.5588  1.0245
 7015TIP3    H242461   5.671   2.644   1.545  0.9322 -4.1928 -0.3102
 7016TIP3   OH242462   1.099   1.945  12.128  0.1973  0.5042 -0.4550
 7016TIP3    H142463   1.154   1.951  12.050  0.6524 -0.4240 -0.2128
 7016TIP3    H242464   1.145   1.996  12.194  1.5546 -1.4079  0.1727
 7017TIP3   OH242465   1.033   5.841   5.434  0.0938  0.5358  0.1881
 7017TIP3    H142466   1.024   5.751   5.467 -0.3079  0.7043  0.5536
 7017TIP3    H242467   1.075   5.888   5.506 -0.1342  0.7483  0.1806
 7018TIP3   OH242468   1.238   1.578  11.389  0.1591 -0.6810  0.2325
 7018TIP3    H142469   1.196   1.599  11.306 -1.6020  2.0129  1.6786
 7018TIP3    H242470   1.329   1.605  11.377 -0.4827  1.4490 -0.2892
 7019TIP3   OH242471   1.824   1.805   0.479 -0.0797  0.4919 -0.6626
 7019TIP3    H142472   1.766   1.730   0.463 -1.4637  1.9040 -2.6214
 7019TIP3    H242473   1.770   1.867   0.527  1.6552 -0.4105  2.8527
 7020TIP3   OH242474   1.575   1.203  17.108 -0.2833  0.2965 -0.5015
 7020TIP3    H142475   1.509   1.180  17.173  0.7945  0.0892  0.5614
 7020TIP3    H242476   1.604   1.291  17.132  0.8405 -0.1767 -0.0693
 7021TIP3   OH242477   6.598   0.815   3.813  0.6417 -0.5133 -0.1228
 7021TIP3    H142478   6.575   0.871   3.739 -0.7649 -1.6182 -0.5783
 7021TIP3    H242479   6.518   0.811   3.866  1.9208  1.0616  2.0571
 7022TIP3   OH242480   1.821   4.785  11.675 -0.1742 -0.3062  0.2042
 7022TIP3    H142481   1.736   4.742  11.682  0.9092 -2.3504  2.1252
 7022TIP3    H242482   1.860   4.776  11.762  1.5032  1.7511 -0.2272
 7023TIP3   OH242483   0.792   0.520  15.432  0.6693 -0.6888  0.9589
 7023TIP3    H142484   0.803   0.546  15.341  0.5641 -1.2209  0.7965
 7023TIP3    H242485   0.702   0.490  15.438 -0.4326  2.4023  1.9927
 7024TIP3   OH242486   4.819   6.479  11.044 -0.1349  0.0251  0.5409
 7024TIP3    H142487   4.812   6.460  10.950 -0.3099 -0.2501  0.6101
 7024TIP3    H242488   4.910   6.509  11.055  0.0999 -0.6195  0.4031
 7025TIP3   OH242489   2.000   4.807  14.846 -0.5677 -0.6167  0.3015
 7025TIP3    H142490   1.922   4.782  14.796 -1.5449  2.6394 -0.0422
 7025TIP3    H242491   2.024   4.727  14.894 -2.9532 -2.2695 -1.0223
 7026TIP3   OH242492   6.396   5.168   4.679  0.1719 -0.2588  0.0868
 7026TIP3    H142493   6.340   5.129   4.747  0.0828  1.1536  0.8571
 7026TIP3    H242494   6.355   5.141   4.597 -0.8756 -0.3673  0.6240
 7027TIP3   OH242495   5.331   1.051   6.057  0.3750 -0.1144  0.4881
 7027TIP3    H142496   5.330   1.032   6.151 -1.8776 -0.1591  0.5053
 7027TIP3    H242497   5.389   0.984   6.020  0.4589 -0.7615  1.7205
 7028TIP3   OH242498   6.752   5.455   6.508  0.7135  0.1362 -0.2429
 7028TIP3    H142499   6.688   5.385   6.490 -0.5469  0.8766  1.0986
 7028TIP3    H242500   6.800   5.465   6.426 -1.0935 -0.2756 -1.4138
 7029TIP3   OH242501   2.704   5.124   5.235  0.0351  0.1623  0.0222
 7029TIP3    H142502   2.732   5.210   5.267 -0.7090  0.1262  0.8215
 7029TIP3    H242503   2.700   5.069   5.314 -0.3984 -0.3487 -0.3406
 7030TIP3   OH242504   1.377   6.580   0.844 -0.1752  0.6206 -0.2637
 7030TIP3    H142505   1.393   6.487   0.830 -2.2596  0.0553  0.6792
 7030TIP3    H242506   1.459   6.614   0.878  0.3489 -1.0787  0.2643
 7031TIP3   OH242507   1.495   0.802   1.080 -0.1830  0.1689  0.2001
 7031TIP3    H142508   1.478   0.719   1.035  0.6600 -0.6865  1.3956
 7031TIP3    H242509   1.417   0.814   1.135 -1.1800  1.1780 -1.3501
 7032TIP3   OH242510   0.165   5.061   4.296 -0.2363 -0.2632  0.2670
 7032TIP3    H142511   0.082   5.026   4.329 -0.1381  0.5302  1.3869
 7032TIP3    H242512   0.228   5.046   4.366  0.8700 -1.8463 -0.9829
 7033TIP3   OH242513   3.487   6.529  11.756  0.4671  0.6356 -0.5586
 7033TIP3    H142514   3.505   6.496  11.668 -2.3569  0.4601 -1.1535
 7033TIP3    H242515   3.442   6.612  11.742  1.2278  1.3157  0.7810
 7034TIP3   OH242516   5.694   4.377   1.299 -0.2513 -0.0652  0.5077
 7034TIP3    H142517   5.631   4.443   1.325  0.4498  0.8797 -0.1031
 7034TIP3    H242518   5.647   4.294   1.304 -0.9637  0.4043  1.8843
 7035TIP3   OH242519   6.409   4.537   2.201 -0.1559 -0.0223 -0.4591
 7035TIP3    H142520   6.369   4.471   2.257  1.3982 -0.3251  0.3178
 7035TIP3    H242521   6.377   4.621   2.236  1.0818 -0.1799  1.1747
 7036TIP3   OH242522   0.455   0.005  11.917 -0.3680 -0.0528  0.2239
 7036TIP3    H142523   0.404   0.039  11.990  0.6951  1.0455  0.4861
 7036TIP3    H242524   0.546   0.016  11.945  0.0448 -0.2736 -0.9847
 7037TIP3   OH242525   0.160   0.571   0.272 -0.3510  0.1684  0.2999
 7037TIP3    H142526   0.157   0.485   0.231 -0.7660  0.1143  0.4371
 7037TIP3    H242527   0.072   0.584   0.306  0.0431  0.0961  1.3957
 7038TIP3   OH242528   1.056   1.920  11.790  0.2278  0.3539 -0.2382
 7038TIP3    H142529   1.017   1.843  11.832 -0.1048  0.2452 -0.7305
 7038TIP3    H242530   1.148   1.919  11.817  0.5356 -0.9266 -1.2165
 7039TIP3   OH242531   2.757   4.215   0.095  0.7320  0.0594 -0.1760
 7039TIP3    H142532   2.785   4.305   0.085 -0.2861  0.2903 -1.1487
 7039TIP3    H242533   2.812   4.180   0.166  1.0918  1.4428  0.2511
 7040TIP3   OH242534   1.658   4.010  14.429 -1.1604  0.2859 -0.7898
 7040TIP3    H142535   1.633   3.942  14.492  1.4306  0.1738  0.2250
 7040TIP3    H242536   1.707   3.963  14.362  0.6462  1.0600 -0.0823
 7041TIP3   OH242537   6.236   4.681   4.160  0.2870 -0.2930 -0.0927
 7041TIP3    H142538   6.223   4.692   4.254  0.1605 -0.5120 -0.0855
 7041TIP3    H242539   6.174   4.742   4.120 -1.5644 -2.0746 -0.0859
 7042TIP3   OH242540   1.588   4.699  13.380 -0.6127 -0.2424 -0.6188
 7042TIP3    H142541   1.675   4.738  13.373 -0.0833 -0.8660  1.5244
 7042TIP3    H242542   1.529   4.774  13.388 -0.4141  0.2092 -2.8318
 7043TIP3   OH242543   1.474   4.893   1.061 -0.3166  0.6581  0.1473
 7043TIP3    H142544   1.437   4.909   0.974  1.2494 -0.1911 -0.7327
 7043TIP3    H242545   1.432   4.812   1.090 -0.0167  0.3054 -0.3600
 7044TIP3   OH242546   4.979   5.783  14.429  0.4315  0.1259  0.3469
 7044TIP3    H142547   5.052   5.721  14.425  0.9054  0.7108 -2.5411
 7044TIP3    H242548   4.921   5.757  14.357 -1.3890  0.7003  1.5263
 7045TIP3   OH242549   6.119   0.757   1.351 -0.2096  0.1987 -0.2319
 7045TIP3    H142550   6.161   0.687   1.301 -1.9028 -0.5658 -0.6262
 7045TIP3    H242551   6.189   0.791   1.407  0.7338 -1.5934 -0.2507
 7046TIP3   OH242552   0.831   5.645   6.190 -0.5447 -0.4401 -0.1781
 7046TIP3    H142553   0.745   5.634   6.230 -0.2874 -1.2061  0.1755
 7046TIP3    H242554   0.875   5.710   6.244 -0.6842 -0.4868 -0.0101
 7047TIP3   OH242555   2.319   4.177   5.887 -0.0501  0.7423  0.1740
 7047TIP3    H142556   2.349   4.166   5.978  0.3386 -1.1204 -0.1357
 7047TIP3    H242557   2.225   4.160   5.891  0.1336 -0.4119  0.1056
 7048TIP3   OH242558   5.239   2.467   3.611  0.2516  0.2083 -0.2030
 7048TIP3    H142559   5.324   2.504   3.588  0.2067 -0.1436 -0.9454
 7048TIP3    H242560   5.181   2.543   3.617  0.5460  0.4224  0.0410
 7049TIP3   OH242561   4.950   4.856   4.018 -0.1320  0.4755  1.0018
 7049TIP3    H142562   5.020   4.920   4.011 -1.5344  1.9494 -0.3368
 7049TIP3    H242563   4.977   4.783   3.961  0.2374  1.1001  0.3698
 7050TIP3   OH242564   2.246   0.788   5.928 -0.7589  0.2744  0.2406
 7050TIP3    H142565   2.281   0.864   5.882 -3.0865  0.5650 -1.1988
 7050TIP3    H242566   2.299   0.715   5.897 -0.3395  0.9092 -0.5731
 7051TIP3   OH242567   1.750   2.438   5.342  0.2451 -0.5254  0.6623
 7051TIP3    H142568   1.796   2.406   5.420  1.2851  2.4900  1.4069
 7051TIP3    H242569   1.676   2.488   5.376 -1.1569 -1.7252 -0.4481
 7052TIP3   OH242570   6.071   2.186   3.406 -0.0232  0.3156  0.4170
 7052TIP3    H142571   6.126   2.260   3.379 -0.8265  0.5418 -0.6427
 7052TIP3    H242572   6.071   2.190   3.502  1.7971  0.3107  0.4552
 7053TIP3   OH242573   4.823   5.581   1.391  0.0409  0.4998  0.1924
 7053TIP3    H142574   4.853   5.652   1.448  0.7498  1.0783 -0.8728
 7053TIP3    H242575   4.861   5.600   1.306 -1.0465 -0.3156 -0.5125
 7054TIP3   OH242576   3.321   3.838  12.948 -0.9237  0.5488  0.3418
 7054TIP3    H142577   3.282   3.777  12.885 -0.8714 -0.0213  0.8563
 7054TIP3    H242578   3.403   3.866  12.906  0.0835 -1.3042  0.9427
 7055TIP3   OH242579   2.532   2.246   5.857 -0.0016 -0.1641  0.1049
 7055TIP3    H142580   2.607   2.193   5.827  1.1752  1.8368 -0.6494
 7055TIP3    H242581   2.571   2.328   5.886 -1.8470  0.5611  0.6374
 7056TIP3   OH242582   4.408   6.108  13.247  0.5769 -0.0149  0.4813
 7056TIP3    H142583   4.388   6.126  13.339  2.7380  0.1258  0.9832
 7056TIP3    H242584   4.384   6.017  13.234 -1.7479  0.5239  0.5314
 7057TIP3   OH242585   3.313   3.284  13.272  0.0688  0.1095 -0.1063
 7057TIP3    H142586   3.346   3.353  13.214 -0.6728  1.0634  0.5959
 7057TIP3    H242587   3.334   3.315  13.360  1.5661 -1.5246  0.1737
 7058TIP3   OH242588   0.601   1.058  12.996  0.7142  0.4074 -0.0444
 7058TIP3    H142589   0.688   1.031  13.025  0.4607 -0.7393 -0.3070
 7058TIP3    H242590   0.574   0.989  12.935 -0.6155  0.4333  0.4965
 7059TIP3   OH242591   3.625   2.513   5.394  0.1964 -1.0093 -0.0760
 7059TIP3    H142592   3.588   2.472   5.472 -0.5217  0.2083  0.2479
 7059TIP3    H242593   3.712   2.473   5.385 -0.0005 -1.7007  0.9100
 7060TIP3   OH242594   3.799   1.401   1.309 -0.2741 -0.1753 -0.4199
 7060TIP3    H142595   3.740   1.472   1.283 -0.2232 -0.7855 -2.3392
 7060TIP3    H242596   3.760   1.323   1.271  1.3990 -0.6945 -1.1184
 7061TIP3   OH242597   6.555   3.212  14.353  0.5951  0.4167  0.2413
 7061TIP3    H142598   6.514   3.237  14.436  1.5736 -0.3566  0.9834
 7061TIP3    H242599   6.514   3.269  14.288 -0.4811  0.7686  1.1904
 7062TIP3   OH242600   5.099   2.369  16.027 -1.0871 -0.7286  0.2372
 7062TIP3    H142601   5.120   2.277  16.046  0.8428 -0.2912  0.4812
 7062TIP3    H242602   5.044   2.397  16.100 -0.7034 -1.3692  0.7857
 7063TIP3   OH242603   0.453   0.592  11.312 -0.0139  0.2935  0.2799
 7063TIP3    H142604   0.386   0.599  11.243  0.9800  0.5929 -0.6902
 7063TIP3    H242605   0.422   0.651  11.381 -1.4329 -0.6066  0.4563
 7064TIP3   OH242606   3.585   3.708  12.022  0.8372  0.2223 -0.4136
 7064TIP3    H142607   3.597   3.683  11.930  0.0662  0.6688 -0.6398
 7064TIP3    H242608   3.603   3.627  12.071 -0.5441 -0.5224 -1.0774
 7065TIP3   OH242609   0.998   2.435   1.226  0.5635  0.4814  0.0528
 7065TIP3    H142610   1.057   2.510   1.219  1.4349 -0.0239  1.3995
 7065TIP3    H242611   1.036   2.382   1.297 -1.3113 -0.0572  0.7108
 7066TIP3   OH242612   5.806   0.485   5.703 -0.4292 -0.0211 -0.3728
 7066TIP3    H142613   5.716   0.503   5.679 -0.2186  2.3584  0.3792
 7066TIP3    H242614   5.799   0.429   5.781 -1.3391  1.3867  0.6116
 7067TIP3   OH242615   4.217   2.586   3.082 -0.5091  0.3523 -0.6247
 7067TIP3    H142616   4.148   2.549   3.137  0.4274  1.3885  1.3179
 7067TIP3    H242617   4.229   2.521   3.013 -0.3654 -1.9908  1.4745
 7068TIP3   OH242618   0.993   0.746  11.689 -0.0593  0.0495  0.2181
 7068TIP3    H142619   1.026   0.730  11.600  0.1182 -3.1159  0.7517
 7068TIP3    H242620   1.070   0.735  11.745 -1.0043 -2.9246  1.0960
 7069TIP3   OH242621   4.189   0.271  14.615 -0.3349  0.2005  0.0522
 7069TIP3    H142622   4.107   0.298  14.657  0.0291  0.4634  0.6024
 7069TIP3    H242623   4.163   0.202  14.554 -1.5303  2.6529 -2.4447
 7070TIP3   OH242624   6.148   2.622   5.926  0.0795  0.5178  0.4224
 7070TIP3    H142625   6.199   2.679   5.869  1.1049 -0.3697  0.4016
 7070TIP3    H242626   6.169   2.651   6.015  0.9964 -0.1066  0.4304
 7071TIP3   OH242627   5.949   2.104   5.826 -0.0055  0.1156  0.0896
 7071TIP3    H142628   5.901   2.087   5.746 -0.1797 -0.1960  0.2582
 7071TIP3    H242629   6.040   2.081   5.806 -0.2202 -0.9526  0.2851
 7072TIP3   OH242630   4.972   1.968   3.100  0.1831  0.3402 -0.3388
 7072TIP3    H142631   5.047   1.923   3.060  0.8392  1.4640 -0.3989
 7072TIP3    H242632   5.001   2.059   3.109 -0.6120  0.4679  1.0634
 7073TIP3   OH242633   2.869   3.417   2.063  0.1661  0.0837 -0.0770
 7073TIP3    H142634   2.828   3.477   2.126  0.3098  0.6677 -0.5214
 7073TIP3    H242635   2.916   3.354   2.116  0.5235  0.7395  0.4005
 7074TIP3   OH242636   3.363   3.801   4.804 -0.3061  0.1955  0.0447
 7074TIP3    H142637   3.318   3.876   4.842 -0.5458 -0.6293  1.4702
 7074TIP3    H242638   3.444   3.837   4.767 -0.6292  1.2085  0.3082
 7075TIP3   OH242639   6.600   3.722   0.084 -0.1367 -0.2516 -0.0397
 7075TIP3    H142640   6.551   3.797   0.048 -1.5948 -0.2293  1.8744
 7075TIP3    H242641   6.586   3.727   0.178 -0.0317 -2.7846  0.1782
 7076TIP3   OH242642   1.224   6.023  11.412 -0.3179  0.1785 -0.1771
 7076TIP3    H142643   1.149   6.007  11.355 -1.2988  0.8228  0.8814
 7076TIP3    H242644   1.279   5.946  11.401 -1.4912 -0.6528 -0.4659
 7077TIP3   OH242645   6.118   2.368  11.041 -0.6258  0.0976  0.2765
 7077TIP3    H142646   6.187   2.374  11.107 -0.5558  0.9923  0.1309
 7077TIP3    H242647   6.115   2.455  11.002  0.5013 -0.8224 -2.0768
 7078TIP3   OH242648   0.145   0.733  13.367  0.1951 -0.4192 -0.5626
 7078TIP3    H142649   0.222   0.756  13.420  0.4704  1.5667 -1.7313
 7078TIP3    H242650   0.092   0.812  13.367 -0.0472 -0.5386 -2.8178
 7079TIP3   OH242651   4.633   4.025   3.478  0.2184 -0.1584 -0.1373
 7079TIP3    H142652   4.640   4.115   3.509 -0.7982  0.1212 -0.6469
 7079TIP3    H242653   4.644   4.031   3.383  4.0451 -1.0970  0.1148
 7080TIP3   OH242654   4.132   3.073  14.318  0.0706  0.2105  0.0883
 7080TIP3    H142655   4.210   3.018  14.322  0.8048  1.1666 -0.5524
 7080TIP3    H242656   4.093   3.053  14.233  0.1759  0.4588 -0.0191
 7081TIP3   OH242657   5.650   6.776   5.186  0.3356 -0.0199  0.5520
 7081TIP3    H142658   5.739   6.804   5.206  0.1059 -0.0622  1.6965
 7081TIP3    H242659   5.600   6.793   5.266 -0.3312 -1.4852  0.4951
 7082TIP3   OH242660   6.774   4.229   2.002 -0.1528  0.2155  0.2343
 7082TIP3    H142661   6.768   4.156   2.065 -0.8077  0.1655  0.1190
 7082TIP3    H242662   6.688   4.271   2.006  0.0628  0.6867 -0.0607
 7083TIP3   OH242663   2.355   5.466   4.760 -0.2070 -0.3699 -0.2150
 7083TIP3    H142664   2.407   5.523   4.704  1.4638 -0.7513  0.8801
 7083TIP3    H242665   2.268   5.505   4.759  0.2695  0.7548 -1.4722
 7084TIP3   OH242666   1.523   1.823  14.607 -0.1226 -0.4541 -0.4242
 7084TIP3    H142667   1.442   1.875  14.610 -0.3092 -0.7838  1.0571
 7084TIP3    H242668   1.496   1.740  14.566 -0.3278 -0.2401 -0.7303
 7085TIP3   OH242669   6.364   3.723   4.150  0.3470 -0.4186 -0.6349
 7085TIP3    H142670   6.343   3.815   4.162 -0.5139 -0.8476  1.5671
 7085TIP3    H242671   6.411   3.698   4.230 -0.7559 -2.2210 -0.4981
 7086TIP3   OH242672   1.626   5.075  12.741 -0.0503  0.1445 -0.3528
 7086TIP3    H142673   1.630   4.982  12.765  1.2962  1.3365  5.3585
 7086TIP3    H242674   1.705   5.089  12.688 -1.1619 -2.1291 -2.8269
 7087TIP3   OH242675   1.062   0.716   3.181 -0.3785 -0.2355  0.2932
 7087TIP3    H142676   1.153   0.711   3.152 -0.4761 -0.4878  0.0236
 7087TIP3    H242677   1.011   0.688   3.105 -0.5902 -1.9075  1.0242
 7088TIP3   OH242678   5.102   0.156   2.138 -0.8210  0.5006 -0.6437
 7088TIP3    H142679   5.171   0.119   2.083 -0.2948 -0.0590  0.3493
 7088TIP3    H242680   5.037   0.191   2.077 -1.0102 -1.4687 -1.6254
 7089TIP3   OH242681   3.705   6.543  10.667  0.1462 -0.1212 -0.2178
 7089TIP3    H142682   3.748   6.602  10.605 -2.0606  1.3000 -0.5120
 7089TIP3    H242683   3.702   6.592  10.749  0.5946 -0.9044  0.2879
 7090TIP3   OH242684   2.994   5.303  13.750 -0.1336  0.0695  0.0102
 7090TIP3    H142685   2.903   5.325  13.733  0.3973  2.5717  0.0315
 7090TIP3    H242686   3.031   5.282  13.664 -0.6730 -0.9163 -0.0022
 7091TIP3   OH242687   1.215   0.977  14.573 -0.2225  0.4484  0.1676
 7091TIP3    H142688   1.253   0.970  14.660 -1.1957 -0.1170  0.5638
 7091TIP3    H242689   1.131   0.932  14.580  0.6230 -1.5395 -1.6331
 7092TIP3   OH242690   3.824   3.745   1.509 -0.5443  0.2694 -0.1927
 7092TIP3    H142691   3.865   3.832   1.507 -0.9069  0.4396 -0.2102
 7092TIP3    H242692   3.790   3.733   1.421  0.6495 -0.4441 -0.5798
 7093TIP3   OH242693   6.748   2.514   3.631 -0.3754 -0.7579 -0.3986
 7093TIP3    H142694   6.776   2.567   3.706  0.5051  0.2731 -1.4123
 7093TIP3    H242695   6.660   2.546   3.610 -0.0841 -0.0950 -0.6335
 7094TIP3   OH242696   4.032   3.784   0.425 -0.1042 -0.4623 -0.2856
 7094TIP3    H142697   3.942   3.792   0.392  0.5533  0.4664 -1.9853
 7094TIP3    H242698   4.022   3.746   0.512 -2.1446 -0.3396 -0.4105
 7095TIP3   OH242699   2.341   0.988   3.438 -0.3012 -0.5319  0.1159
 7095TIP3    H142700   2.435   1.007   3.431 -0.1602 -1.5686 -1.1944
 7095TIP3    H242701   2.299   1.053   3.382 -0.3676 -0.0876  0.6779
 7096TIP3   OH242702   2.658   1.789   5.387  0.6006 -0.2287  0.3119
 7096TIP3    H142703   2.672   1.717   5.325  2.1514 -0.4779  0.9307
 7096TIP3    H242704   2.573   1.769   5.427 -0.6384  0.1174 -1.9139
 7097TIP3   OH242705   4.993   2.390   4.906 -0.3805 -0.3614 -0.0160
 7097TIP3    H142706   5.068   2.373   4.849 -0.4160  0.5272 -0.3467
 7097TIP3    H242707   4.940   2.453   4.858 -0.1333  0.8449  1.2182
 7098TIP3   OH242708   0.499   3.798  10.928  0.5882  0.6981  0.0703
 7098TIP3    H142709   0.445   3.827  11.002  0.9277  0.3055  0.4784
 7098TIP3    H242710   0.485   3.865  10.861 -0.8761  0.3017 -0.0611
 7099TIP3   OH242711   4.838   0.114   3.238  0.3432  0.8076 -0.4098
 7099TIP3    H142712   4.886   0.070   3.308  1.6166  0.2781 -1.5536
 7099TIP3    H242713   4.774   0.169   3.283 -0.8984 -1.6976  1.1138
 7100TIP3   OH242714   4.912   3.106   0.450 -0.2652 -0.0141  0.0905
 7100TIP3    H142715   4.912   3.181   0.508  0.1744 -0.0674  0.1667
 7100TIP3    H242716   4.856   3.131   0.377 -0.0977  0.3985  0.1012
 7101TIP3   OH242717   1.254   5.238   2.939 -0.5984 -0.0503 -0.2868
 7101TIP3    H142718   1.337   5.230   2.986  1.1940 -1.9116 -3.3547
 7101TIP3    H242719   1.209   5.155   2.956 -0.7608  0.0234 -0.3571
 7102TIP3   OH242720   5.441   1.419   0.223 -0.7726 -0.1905 -0.7952
 7102TIP3    H142721   5.473   1.440   0.136 -1.1082  0.6939 -0.7160
 7102TIP3    H242722   5.380   1.490   0.244  1.6507  1.3817  1.4280
 7103TIP3   OH242723   4.971   2.361  13.166  0.4244  0.1130 -0.0096
 7103TIP3    H142724   4.905   2.381  13.232 -0.1265  1.2466 -0.8720
 7103TIP3    H242725   5.055   2.383  13.207  0.1996 -0.4149  0.7452
 7104TIP3   OH242726   2.015   1.166  16.613 -0.1083 -0.2990  0.5698
 7104TIP3    H142727   2.095   1.114  16.615 -0.1216 -0.4372 -1.0542
 7104TIP3    H242728   1.974   1.143  16.530 -0.1075  2.2984 -0.2417
 7105TIP3   OH242729   1.722   5.356  14.594  0.1987  0.1543  0.6000
 7105TIP3    H142730   1.731   5.302  14.515 -0.7768 -1.1664  1.3602
 7105TIP3    H242731   1.645   5.322  14.638 -0.1411  1.8350  1.4044
 7106TIP3   OH242732   2.579   5.772   1.905  0.2566  0.4818 -0.1287
 7106TIP3    H142733   2.599   5.683   1.935 -0.7149  0.9871  2.1419
 7106TIP3    H242734   2.638   5.785   1.830  1.7271 -1.4054  0.6182
 7107TIP3   OH242735   3.310   5.106  16.804  0.2165  0.4131 -0.5811
 7107TIP3    H142736   3.326   5.189  16.849  0.5568  0.2741 -0.4411
 7107TIP3    H242737   3.221   5.113  16.771 -0.1987  0.3373  0.4924
 7108TIP3   OH242738   3.226   4.602   1.606 -0.4319  0.5797  0.3313
 7108TIP3    H142739   3.144   4.605   1.556  0.4496  0.1086 -1.2185
 7108TIP3    H242740   3.281   4.668   1.563  1.0503 -1.2246 -0.6419
 7109TIP3   OH242741   1.571   5.872  12.959  0.9103 -0.9118  0.7377
 7109TIP3    H142742   1.585   5.956  13.002 -0.7372 -0.6559  0.8113
 7109TIP3    H242743   1.476   5.863  12.953  1.0739 -2.0976 -0.5891
 7110TIP3   OH242744   6.479   2.562  13.485 -0.2392  0.2180  0.3480
 7110TIP3    H142745   6.504   2.655  13.487  0.8213 -0.0707  1.2325
 7110TIP3    H242746   6.536   2.524  13.418 -0.3953  0.1304  0.2656
 7111TIP3   OH242747   5.621   3.644  16.025 -0.1062  0.1606 -0.0102
 7111TIP3    H142748   5.570   3.721  16.052 -0.7171 -0.9733  2.3410
 7111TIP3    H242749   5.668   3.618  16.104  1.2137 -1.0621 -1.1489
 7112TIP3   OH242750   0.681   5.233  12.058  0.2327 -0.8052 -0.0253
 7112TIP3    H142751   0.724   5.294  11.998 -0.0689 -1.7753 -1.2858
 7112TIP3    H242752   0.727   5.150  12.043  0.5640 -0.9408  1.5709
 7113TIP3   OH242753   4.145   6.759   2.055 -0.0207 -0.6832  0.1332
 7113TIP3    H142754   4.077   6.786   1.994  0.3621 -0.4184 -0.1789
 7113TIP3    H242755   4.150   6.830   2.119  2.8432  1.4517 -2.1594
 7114TIP3   OH242756   0.362   1.534  13.682 -0.8169 -0.0916 -0.1954
 7114TIP3    H142757   0.419   1.523  13.606 -0.2967  1.4096 -0.0616
 7114TIP3    H242758   0.403   1.481  13.750 -0.6829 -0.5876 -0.6596
 7115TIP3   OH242759   2.106   6.423   1.281  0.6270 -0.3030 -0.0469
 7115TIP3    H142760   2.119   6.352   1.218 -2.7463 -0.3685 -0.8504
 7115TIP3    H242761   2.028   6.398   1.330  1.2937  1.3134  1.9882
 7116TIP3   OH242762   0.798   5.389  15.128 -0.2903 -0.2419  0.7079
 7116TIP3    H142763   0.888   5.356  15.132  0.0815  0.2452 -2.0788
 7116TIP3    H242764   0.753   5.328  15.070 -1.3200  0.4952  0.7175
 7117TIP3   OH242765   0.872   5.069   3.743 -0.1319 -0.0892  0.0745
 7117TIP3    H142766   0.929   5.083   3.819  2.2916 -0.9444 -1.4624
 7117TIP3    H242767   0.817   4.994   3.767 -2.2570  2.0516  2.4036
 7118TIP3   OH242768   6.146   0.732  11.154 -0.3066 -0.0565  0.4198
 7118TIP3    H142769   6.213   0.668  11.180 -1.3746 -1.2719  0.2917
 7118TIP3    H242770   6.114   0.767  11.237  0.5025  0.5742  0.4807
 7119TIP3   OH242771   1.487   3.938   2.250  0.0499 -0.4656  0.3902
 7119TIP3    H142772   1.445   3.944   2.164 -2.3979 -1.7593  1.3736
 7119TIP3    H242773   1.433   3.992   2.307  0.9061 -0.5979  1.3584
 7120TIP3   OH242774   4.766   2.926  16.652 -0.0364  0.0339 -0.1870
 7120TIP3    H142775   4.694   2.864  16.650  2.1210 -2.6846  0.1892
 7120TIP3    H242776   4.792   2.934  16.560  0.7198 -0.9869 -0.0764
 7121TIP3   OH242777   4.446   3.479  12.026 -0.5160 -0.0270  0.1844
 7121TIP3    H142778   4.444   3.460  11.932 -0.1214 -0.2154  0.2117
 7121TIP3    H242779   4.494   3.562  12.033 -1.4278  0.5125  0.1406
 7122TIP3   OH242780   3.711   3.852   3.714 -0.1306 -0.1761 -0.3990
 7122TIP3    H142781   3.631   3.805   3.735  0.1385 -0.8577 -0.8819
 7122TIP3    H242782   3.782   3.792   3.738  0.2288  0.2089 -0.4775
 7123TIP3   OH242783   1.036   2.320   0.833  0.3459  0.1542  0.2337
 7123TIP3    H142784   1.072   2.255   0.774  1.4962  4.2211 -4.1794
 7123TIP3    H242785   0.952   2.344   0.794 -0.1954  1.0830  1.8753
 7124TIP3   OH242786   2.632   4.708  15.191 -0.0755  0.1593  1.0021
 7124TIP3    H142787   2.666   4.781  15.243  1.5040 -1.2009  1.9756
 7124TIP3    H242788   2.545   4.691  15.228  0.0488  0.7468  1.5896
 7125TIP3   OH242789   4.214   5.991  16.686 -0.2242  0.3063  0.4990
 7125TIP3    H142790   4.284   6.053  16.706 -1.4946  1.9168  0.2066
 7125TIP3    H242791   4.255   5.904  16.695  1.9030  1.1740 -0.1577
 7126TIP3   OH242792   1.716   2.579  15.249 -0.2585  0.2006 -0.1832
 7126TIP3    H142793   1.690   2.613  15.335 -0.0065  0.8710 -0.3711
 7126TIP3    H242794   1.811   2.577  15.252 -0.2560  0.0279 -0.3775
 7127TIP3   OH242795   2.657   5.438   0.051 -0.0392  0.1869  0.7816
 7127TIP3    H142796   2.577   5.440  -0.002 -1.1397 -0.9932  2.2786
 7127TIP3    H242797   2.689   5.529   0.050 -0.0189  0.2288 -1.7751
 7128TIP3   OH242798   0.304   3.155  15.573 -0.1433 -0.3402  0.1545
 7128TIP3    H142799   0.334   3.088  15.634  0.1005 -0.6329 -0.2856
 7128TIP3    H242800   0.379   3.171  15.515  0.8334  2.3877  1.9959
 7129TIP3   OH242801   2.731   0.969   0.604 -0.1338 -0.2141  0.5704
 7129TIP3    H142802   2.736   0.956   0.510 -1.6674 -0.8611  0.5456
 7129TIP3    H242803   2.645   1.008   0.619 -0.4757 -1.3260  1.7935
 7130TIP3   OH242804   6.335   0.882   1.952  0.0352 -0.7747 -0.3222
 7130TIP3    H142805   6.288   0.836   1.883  0.9844 -1.2478 -0.6660
 7130TIP3    H242806   6.380   0.813   2.001 -0.2773 -0.4041  0.5162
 7131TIP3   OH242807   5.605   2.335   2.540 -0.4114 -0.3153  0.7237
 7131TIP3    H142808   5.599   2.274   2.614 -0.7191  0.8044  1.6471
 7131TIP3    H242809   5.586   2.281   2.463 -3.2254 -0.9346  1.7177
 7132TIP3   OH242810   2.742   1.554  13.292  0.6427  0.4033 -0.0001
 7132TIP3    H142811   2.822   1.608  13.290  0.8898  0.0333 -1.2640
 7132TIP3    H242812   2.771   1.468  13.261 -0.0910  0.0241  0.3421
 7133TIP3   OH242813   4.996   6.298  15.541 -0.9276  0.2539  0.0291
 7133TIP3    H142814   4.932   6.246  15.590 -0.6336 -0.9576 -0.8111
 7133TIP3    H242815   5.073   6.301  15.598 -1.2628  0.5828  0.4787
 7134TIP3   OH242816   1.101   5.739   3.568  0.5073  0.3331 -0.4768
 7134TIP3    H142817   1.150   5.689   3.503 -0.1812 -0.5962 -0.2944
 7134TIP3    H242818   1.018   5.759   3.525  0.0075 -0.3712  0.1315
 7135TIP3   OH242819   2.019   3.200   1.181 -0.2077 -0.0154 -0.3519
 7135TIP3    H142820   1.981   3.132   1.237 -1.5471  0.4620 -0.6480
 7135TIP3    H242821   2.070   3.255   1.241 -2.7381  1.3062  0.7047
 7136TIP3   OH242822   4.591   2.187  14.242 -0.5686  0.1578  0.2982
 7136TIP3    H142823   4.624   2.144  14.320 -0.6260 -0.6465 -0.1173
 7136TIP3    H242824   4.630   2.275  14.245 -1.3170  0.4761  1.7167
 7137TIP3   OH242825   3.836   2.380   1.156  0.0980 -0.0659 -0.2368
 7137TIP3    H142826   3.839   2.467   1.194  0.7192 -0.7089  1.2366
 7137TIP3    H242827   3.915   2.373   1.102  0.2664  0.1210 -0.0094
 7138TIP3   OH242828   1.418   5.788  11.673  0.3027  0.3915  0.6602
 7138TIP3    H142829   1.342   5.731  11.661  0.0754  1.0566 -1.5666
 7138TIP3    H242830   1.389   5.856  11.733 -1.0027  0.8074 -0.3962
 7139TIP3   OH242831   6.078   4.997   1.786 -0.2195 -0.4052 -0.2648
 7139TIP3    H142832   6.081   5.051   1.864 -0.2126  0.4263 -0.8283
 7139TIP3    H242833   6.072   4.907   1.819 -0.2382 -0.0666  0.6797
 7140TIP3   OH242834   4.549   2.904  11.920 -0.1460 -0.1409  0.1472
 7140TIP3    H142835   4.471   2.851  11.936  0.0005 -0.0663  1.1970
 7140TIP3    H242836   4.598   2.899  12.002 -1.2437  3.4192  1.2420
 7141TIP3   OH242837   6.247   4.448   3.100  0.0845  0.1182 -0.8341
 7141TIP3    H142838   6.217   4.360   3.122  2.1230 -0.0399  1.8390
 7141TIP3    H242839   6.201   4.505   3.161  0.4649  0.6024 -0.9976
 7142TIP3   OH242840   1.233   2.508   4.547 -0.3602  0.0226  0.1056
 7142TIP3    H142841   1.178   2.583   4.571  0.2712  0.6233 -0.2860
 7142TIP3    H242842   1.319   2.546   4.529 -0.3386 -0.6423 -1.2923
 7143TIP3   OH242843   1.375   6.256  12.909  0.3227 -0.2564 -0.1602
 7143TIP3    H142844   1.456   6.298  12.882 -0.5254  2.8378  1.5924
 7143TIP3    H242845   1.378   6.257  13.005 -0.4344 -3.0787  0.0022
 7144TIP3   OH242846   1.201   3.683  16.980  0.2676  0.2500  0.1557
 7144TIP3    H142847   1.265   3.690  17.051  0.7743 -0.9098 -0.1488
 7144TIP3    H242848   1.148   3.762  16.986 -0.7435 -0.5239  2.8434
 7145TIP3   OH242849   3.024   3.080   3.674  0.7324  0.5495  0.3870
 7145TIP3    H142850   2.937   3.042   3.665  2.0050 -2.4963 -0.4929
 7145TIP3    H242851   3.034   3.097   3.767  0.5736 -2.9358  1.1571
 7146TIP3   OH242852   3.403   4.667  12.803 -0.1739  0.5633  0.0406
 7146TIP3    H142853   3.485   4.632  12.838 -0.2198  0.0907 -0.3142
 7146TIP3    H242854   3.335   4.611  12.839 -0.3887  1.2147  0.6731
 7147TIP3   OH242855   5.093   2.537   1.688 -0.3762  0.0394  0.2191
 7147TIP3    H142856   5.045   2.517   1.768 -0.0608 -1.8107 -0.0232
 7147TIP3    H242857   5.050   2.485   1.620  0.9936 -0.4615 -0.3003
 7148TIP3   OH242858   6.267   5.958  11.377 -0.1355  0.0754  0.2833
 7148TIP3    H142859   6.208   6.034  11.371 -0.4374 -0.1063  0.8443
 7148TIP3    H242860   6.218   5.895  11.429 -1.2431 -1.7808 -2.7184
 7149TIP3   OH242861   3.390   6.323  12.928 -0.6188 -0.2303  0.0348
 7149TIP3    H142862   3.446   6.246  12.919  0.2425  0.2312  1.2279
 7149TIP3    H242863   3.301   6.290  12.912 -0.2842 -1.4991  0.6985
 7150TIP3   OH242864   1.185   4.099   1.254 -0.1224  0.1135  0.1220
 7150TIP3    H142865   1.281   4.101   1.250 -0.0998  0.5702  0.8773
 7150TIP3    H242866   1.157   4.176   1.205 -0.1075 -0.0209 -0.1002
 7151TIP3   OH242867   3.186   4.890   6.817 -0.0823  0.3905 -0.3666
 7151TIP3    H142868   3.267   4.937   6.794  0.1637  0.0509 -0.2073
 7151TIP3    H242869   3.119   4.932   6.764  0.4424 -0.2375 -1.5772
 7152TIP3   OH242870   4.885   1.098  15.822  0.1326 -0.0984 -0.1783
 7152TIP3    H142871   4.815   1.109  15.886  0.0346  1.1451 -0.4865
 7152TIP3    H242872   4.914   1.187  15.802 -0.8560 -0.3426 -3.0026
 7153TIP3   OH242873   2.658   0.453  16.280  0.0601 -0.2046 -0.6249
 7153TIP3    H142874   2.591   0.435  16.214 -0.6532 -0.0381  0.0407
 7153TIP3    H242875   2.682   0.367  16.314  0.7486 -0.3326 -1.3859
 7154TIP3   OH242876   4.074   4.281   3.741 -0.1008  0.5428  0.3208
 7154TIP3    H142877   3.993   4.266   3.693  1.6502 -0.8019 -2.4960
 7154TIP3    H242878   4.091   4.375   3.730 -0.8455  0.6672  0.2127
 7155TIP3   OH242879   2.518   1.317  16.763 -0.3625  0.3532  0.3707
 7155TIP3    H142880   2.581   1.259  16.806  0.0120 -0.8724 -1.7285
 7155TIP3    H242881   2.458   1.258  16.718 -0.9709  1.5707 -0.4531
 7156TIP3   OH242882   3.707   5.099  15.414 -0.0851 -0.2240 -0.0848
 7156TIP3    H142883   3.684   5.035  15.481 -2.1263  0.6180  0.0871
 7156TIP3    H242884   3.664   5.066  15.334  2.7159 -1.4879 -1.1993
 7157TIP3   OH242885   2.242   5.810   4.475 -0.0442 -0.3641  0.5731
 7157TIP3    H142886   2.172   5.786   4.536 -1.0893  0.1863 -0.3934
 7157TIP3    H242887   2.266   5.900   4.501  0.2712 -0.5268  0.8584
 7158TIP3   OH242888   4.919   0.607  14.876 -0.7945  0.0129 -0.3005
 7158TIP3    H142889   4.910   0.696  14.841 -1.4199 -0.2761 -0.9007
 7158TIP3    H242890   4.863   0.607  14.954 -1.8018 -0.1969 -0.9944
 7159TIP3   OH242891   1.910   5.282  11.283  0.7201  0.0717  0.9861
 7159TIP3    H142892   1.977   5.310  11.345  0.1842 -1.3201  2.2631
 7159TIP3    H242893   1.898   5.189  11.301 -1.7085  0.3147  1.0115
 7160TIP3   OH242894   1.702   3.754  12.819 -0.1420  0.4075 -0.3705
 7160TIP3    H142895   1.748   3.791  12.744 -1.8927  1.1595 -1.1430
 7160TIP3    H242896   1.694   3.827  12.881 -0.3752  0.3119 -0.2855
 7161TIP3   OH242897   5.021   0.895  12.113  0.2763  0.1507  0.4980
 7161TIP3    H142898   4.965   0.839  12.058  0.2672 -0.3755  1.0323
 7161TIP3    H242899   5.005   0.865  12.202  1.5649 -0.1752  0.6552
 7162TIP3   OH242900   3.257   2.824  10.757 -0.1547 -0.2386  0.4621
 7162TIP3    H142901   3.192   2.755  10.760  1.2938 -1.6640  0.6618
 7162TIP3    H242902   3.214   2.897  10.714 -1.8763 -1.1082  0.6506
 7163TIP3   OH242903   5.062   4.436   2.152 -0.0763 -0.1125  0.3275
 7163TIP3    H142904   5.151   4.407   2.134 -0.5532 -1.9169  0.7400
 7163TIP3    H242905   5.017   4.432   2.068 -0.2356 -0.9902  0.4433
 7164TIP3   OH242906   5.177   6.384  16.885 -0.0017  0.5092 -0.4174
 7164TIP3    H142907   5.207   6.463  16.929  0.8124 -0.6951  1.3285
 7164TIP3    H242908   5.085   6.374  16.912 -0.2119  1.0239 -0.9269
 7165TIP3   OH242909   5.677   5.569   1.042 -0.6425 -0.1098  0.3002
 7165TIP3    H142910   5.607   5.587   0.979  0.2449  0.8305 -0.4481
 7165TIP3    H242911   5.654   5.484   1.079 -0.5787 -1.2642 -2.1333
 7166TIP3   OH242912   2.280   2.597  16.343  0.0461  0.2783 -0.1587
 7166TIP3    H142913   2.331   2.670  16.378  2.2198 -1.0586 -0.3245
 7166TIP3    H242914   2.226   2.637  16.274  0.6496  1.8421  0.2161
 7167TIP3   OH242915   4.195   1.873   3.977 -0.4617  0.5152  0.3068
 7167TIP3    H142916   4.101   1.881   3.994 -0.1776  1.3140  1.6271
 7167TIP3    H242917   4.236   1.891   4.062  0.8044 -2.6597  0.5115
 7168TIP3   OH242918   5.332   6.412   1.278 -0.3992 -0.3377  0.4946
 7168TIP3    H142919   5.424   6.416   1.254 -0.2187 -0.0558  1.2063
 7168TIP3    H242920   5.309   6.319   1.269 -0.5006 -0.1690 -1.2778
 7169TIP3   OH242921   6.604   4.489  13.376 -0.1049 -0.4930 -0.3586
 7169TIP3    H142922   6.610   4.417  13.438 -0.8528 -0.0588  0.2406
 7169TIP3    H242923   6.675   4.548  13.402  0.3060 -0.8547 -0.6483
 7170TIP3   OH242924   2.837   5.332  14.536  0.3121  0.0038 -0.0351
 7170TIP3    H142925   2.884   5.325  14.453  1.1509  0.9662  0.3406
 7170TIP3    H242926   2.811   5.243  14.556  0.0141 -0.2351 -1.3775
 7171TIP3   OH242927   0.378   2.939  12.983 -0.3331 -0.3090  0.5821
 7171TIP3    H142928   0.323   3.016  12.996 -1.1229 -1.0456  1.8462
 7171TIP3    H242929   0.384   2.899  13.070  0.9467 -1.0872  0.1590
 7172TIP3   OH242930   2.454   4.356  16.254 -0.3874  0.3034 -0.0960
 7172TIP3    H142931   2.363   4.351  16.227 -0.3287 -3.0615 -0.1430
 7172TIP3    H242932   2.502   4.383  16.175 -1.1364 -0.1197 -0.7027
 7173TIP3   OH242933   0.208   5.310  14.917 -0.0929 -0.3150 -0.5914
 7173TIP3    H142934   0.159   5.281  14.994 -0.9206 -0.7005 -1.2414
 7173TIP3    H242935   0.299   5.290  14.937  0.0409  1.8004  1.2771
 7174TIP3   OH242936   6.294   5.744   1.471 -0.0080  0.1779 -0.2770
 7174TIP3    H142937   6.242   5.806   1.419 -0.3440 -0.5577 -0.8284
 7174TIP3    H242938   6.235   5.670   1.485  0.4213 -0.0532  0.3185
 7175TIP3   OH242939   1.918   1.905  16.284 -0.4529  0.5335 -0.3064
 7175TIP3    H142940   1.936   1.874  16.373 -0.3789  0.8533 -0.2103
 7175TIP3    H242941   2.001   1.898  16.239 -0.6553 -0.3223 -0.5608
 7176TIP3   OH242942   3.190   0.233  15.642  0.3830  0.1712 -0.1049
 7176TIP3    H142943   3.111   0.248  15.694 -0.4845  0.0239 -1.3386
 7176TIP3    H242944   3.261   0.232  15.707 -0.5104  1.1584  0.9423
 7177TIP3   OH242945   3.419   6.273   3.450 -0.2949 -0.6455  0.0630
 7177TIP3    H142946   3.439   6.220   3.527 -0.0266  0.1258  0.5284
 7177TIP3    H242947   3.406   6.361   3.484 -3.4720 -0.8693 -0.3278
 7178TIP3   OH242948   6.426   6.736   3.922 -0.2833 -0.0250  0.1243
 7178TIP3    H142949   6.490   6.666   3.925 -1.5868 -1.2235  1.9456
 7178TIP3    H242950   6.377   6.728   4.004 -1.9693  1.5754 -0.6487
 7179TIP3   OH242951   2.446   0.958  13.007  0.1942  0.2791  0.0653
 7179TIP3    H142952   2.376   0.936  13.069 -0.8251  0.2107 -1.0580
 7179TIP3    H242953   2.411   1.033  12.958 -0.1080 -1.1918 -2.0884
 7180TIP3   OH242954   0.797   4.637  14.189  0.3450  0.0399 -0.7422
 7180TIP3    H142955   0.820   4.623  14.097 -1.5952 -2.6527 -0.9507
 7180TIP3    H242956   0.873   4.609  14.238  1.1253  0.7919 -1.4918
 7181TIP3   OH242957   4.857   0.494   2.279 -0.0016 -0.6411 -0.1005
 7181TIP3    H142958   4.768   0.523   2.302 -0.3037 -1.1082 -0.6615
 7181TIP3    H242959   4.899   0.475   2.363 -0.5182 -0.6694  0.1525
 7182TIP3   OH242960   5.906   2.480   5.906  1.2689 -0.4225 -0.2178
 7182TIP3    H142961   5.868   2.552   5.958  0.1882 -0.0992 -1.3988
 7182TIP3    H242962   5.995   2.508   5.887  1.4100 -0.1785  0.7674
 7183TIP3   OH242963   3.055   4.124  14.311 -0.6216 -0.3366 -0.2063
 7183TIP3    H142964   3.133   4.068  14.309 -0.7090 -0.5828  1.5388
 7183TIP3    H242965   2.982   4.062  14.306 -0.7892 -0.0556 -2.8783
 7184TIP3   OH242966   4.180   6.442  16.701 -0.0630  0.3399 -0.3304
 7184TIP3    H142967   4.183   6.356  16.742  0.4071 -0.7132 -2.4953
 7184TIP3    H242968   4.120   6.492  16.757 -1.6048 -1.8496  0.1125
 7185TIP3   OH242969   0.990   6.604  14.836  0.4355 -0.4571 -0.8254
 7185TIP3    H142970   1.044   6.633  14.909  0.6257 -0.1911 -1.0698
 7185TIP3    H242971   0.940   6.531  14.871 -0.7065  0.7101  0.0515
 7186TIP3   OH242972   2.212   4.959  11.469  0.5614 -0.0414 -0.4008
 7186TIP3    H142973   2.170   5.019  11.530  0.2414 -0.7857  0.1239
 7186TIP3    H242974   2.153   4.884  11.464  1.5764 -0.8888 -0.0196
 7187TIP3   OH242975   6.407   1.294  11.862  0.5078  0.3142  0.0556
 7187TIP3    H142976   6.420   1.213  11.814  1.9168 -0.6512  1.9475
 7187TIP3    H242977   6.360   1.268  11.942  0.6086  1.4179  0.5031
 7188TIP3   OH242978   0.328   1.644  13.967  0.1817 -0.0366  0.2237
 7188TIP3    H142979   0.379   1.703  13.912 -0.1848  1.0559  1.0000
 7188TIP3    H242980   0.386   1.624  14.041  0.0374 -0.0050  0.3471
 7189TIP3   OH242981   2.243   6.625   2.293  0.0482 -0.1188  0.1209
 7189TIP3    H142982   2.310   6.665   2.238 -0.5496  1.4527  0.4817
 7189TIP3    H242983   2.189   6.573   2.233 -0.2804  1.1431 -0.6915
 7190TIP3   OH242984   5.834   2.270  11.030  0.0907  0.1251  0.2288
 7190TIP3    H142985   5.920   2.303  11.055  0.5898 -0.5631 -0.5188
 7190TIP3    H242986   5.830   2.182  11.068  0.2847 -0.3740 -0.8588
 7191TIP3   OH242987   1.263   5.721   6.172 -0.2328  0.2166  0.1080
 7191TIP3    H142988   1.273   5.671   6.091 -1.4238  0.1753 -0.0342
 7191TIP3    H242989   1.339   5.779   6.175 -1.7288  2.5773 -2.7381
 7192TIP3   OH242990   2.847   3.314  12.143 -0.7136  0.0800  0.8799
 7192TIP3    H142991   2.928   3.365  12.148 -1.7048  1.6632  2.0923
 7192TIP3    H242992   2.780   3.378  12.117 -1.6951 -1.0228  0.6024
 7193TIP3   OH242993   5.644   2.946   4.477 -0.0576  0.5834 -0.3388
 7193TIP3    H142994   5.584   2.887   4.431  1.0780 -0.9681  0.0967
 7193TIP3    H242995   5.723   2.947   4.424  0.9120 -0.4558  1.0105
 7194TIP3   OH242996   2.845   3.135  16.688 -0.1616 -0.3688 -0.3979
 7194TIP3    H142997   2.819   3.221  16.721 -0.2014 -0.1492 -0.9770
 7194TIP3    H242998   2.831   3.141  16.593  0.7006 -0.7126 -0.5531
 7195TIP3   OH242999   4.114   6.448   6.003  0.7760  0.2478 -0.0512
 7195TIP3    H143000   4.070   6.430   6.086  1.0461  0.6134  0.1736
 7195TIP3    H243001   4.200   6.407   6.013  0.9505  0.6247  0.0005
 7196TIP3   OH243002   0.483   1.314  15.964  0.1363 -0.3957  0.1814
 7196TIP3    H143003   0.513   1.338  16.052  0.7340  0.5293 -0.2526
 7196TIP3    H243004   0.449   1.226  15.974  1.1676 -0.7175  1.1297
 7197TIP3   OH243005   4.808   2.152   1.373 -0.4199 -0.2527 -0.7275
 7197TIP3    H143006   4.774   2.093   1.306 -0.2536 -0.3540 -0.7234
 7197TIP3    H243007   4.739   2.217   1.385 -0.8378 -0.7665 -0.3278
 7198TIP3   OH243008   4.454   3.536   0.982  0.0489 -0.3636  0.0191
 7198TIP3    H143009   4.471   3.471   1.051 -0.6918  1.1287  1.7142
 7198TIP3    H243010   4.359   3.530   0.966 -0.3394  1.2766  1.3467
 7199TIP3   OH243011   3.395   0.984   1.637 -0.2081 -0.2417  0.0140
 7199TIP3    H143012   3.416   0.942   1.721  0.3999 -1.4927 -0.7221
 7199TIP3    H243013   3.355   1.067   1.660  2.2644  0.6228  1.5747
 7200TIP3   OH243014   2.814   5.269   5.451 -0.0705  0.2418 -0.0583
 7200TIP3    H143015   2.897   5.282   5.495  1.8796 -1.5027 -2.8835
 7200TIP3    H243016   2.751   5.252   5.521  1.5984  2.8613  2.2536
 7201TIP3   OH243017   0.147   4.889  12.789  0.4157 -0.3205 -0.0885
 7201TIP3    H143018   0.235   4.854  12.804  1.3666  1.7469 -0.4775
 7201TIP3    H243019   0.139   4.892  12.694  0.6732  1.1617 -0.0844
 7202TIP3   OH243020   5.236   4.497  14.100 -0.7830 -0.0756 -0.2303
 7202TIP3    H143021   5.196   4.583  14.118 -0.3642 -0.1157  1.0108
 7202TIP3    H243022   5.170   4.434  14.126 -0.1192 -0.1372  1.4240
 7203TIP3   OH243023   5.657   0.614  16.194  0.3148 -0.3490  0.1568
 7203TIP3    H143024   5.617   0.695  16.164  0.2981 -0.4029  0.0333
 7203TIP3    H243025   5.606   0.588  16.271 -0.0277 -0.5311 -0.1252
 7204TIP3   OH243026   6.433   1.275   2.750 -0.4722  0.4961 -0.1300
 7204TIP3    H143027   6.395   1.356   2.784  0.9135  0.5648  1.3582
 7204TIP3    H243028   6.509   1.259   2.806  0.8726 -0.3859 -2.1222
 7205TIP3   OH243029   6.321   4.493   2.479  0.0872 -0.2095  0.0336
 7205TIP3    H143030   6.278   4.421   2.525  1.3206 -1.1524 -0.2249
 7205TIP3    H243031   6.253   4.559   2.468 -0.6518 -0.6186  1.7873
 7206TIP3   OH243032   5.869   5.248  16.518 -0.0229 -0.1482  0.1174
 7206TIP3    H143033   5.942   5.276  16.462 -0.0720 -0.4642 -0.1114
 7206TIP3    H243034   5.911   5.222  16.600  0.0435  0.3857  0.2583
 7207TIP3   OH243035   1.678   4.869  13.683  0.4576 -0.3384  0.1742
 7207TIP3    H143036   1.660   4.951  13.730  0.1771  0.2222 -0.8758
 7207TIP3    H243037   1.607   4.810  13.709 -0.5034  0.4341 -0.6146
 7208TIP3   OH243038   0.050   4.119  15.771 -0.3686 -0.1269 -0.9100
 7208TIP3    H143039   0.118   4.143  15.707  0.4745 -0.5878 -0.2142
 7208TIP3    H243040   0.025   4.202  15.811  1.5154 -0.1607  0.4888
 7209TIP3   OH243041   2.127   2.760   5.467  0.3266  0.3689 -0.1523
 7209TIP3    H143042   2.214   2.749   5.426  0.3402  0.7484 -0.2323
 7209TIP3    H243043   2.138   2.727   5.556  0.3545 -0.2705 -0.3900
 7210TIP3   OH243044   0.658   1.907  11.685  0.4074 -0.3628  0.1475
 7210TIP3    H143045   0.664   1.956  11.603  1.8079 -0.9226 -0.1322
 7210TIP3    H243046   0.747   1.913  11.722 -0.5319  1.1464  2.4115
 7211TIP3   OH243047   3.957   0.557  16.501 -0.3495 -0.1067 -0.3504
 7211TIP3    H143048   3.886   0.592  16.447 -0.7448 -2.3786 -1.4261
 7211TIP3    H243049   4.027   0.536  16.439 -0.3165 -1.5788  0.1356
 7212TIP3   OH243050   3.270   3.662  13.165 -0.0499  0.7776  0.1935
 7212TIP3    H143051   3.182   3.685  13.194  0.0270  0.6165  0.5649
 7212TIP3    H243052   3.302   3.741  13.120 -0.5343  0.6897 -0.3028
 7213TIP3   OH243053   5.082   5.166   0.617 -0.0159 -0.1777 -0.0171
 7213TIP3    H143054   5.030   5.191   0.541 -0.7118 -0.4156  0.3658
 7213TIP3    H243055   5.035   5.091   0.654  1.5325 -1.4826 -0.6258
 7214TIP3   OH243056   0.628   5.730  13.369 -0.3511 -0.3597 -0.2946
 7214TIP3    H143057   0.627   5.819  13.336  0.3800 -0.5058 -0.7295
 7214TIP3    H243058   0.609   5.738  13.463 -1.5993  0.1287 -0.5767
 7215TIP3   OH243059   4.091   1.710   1.033 -0.2261  0.2145  0.1357
 7215TIP3    H143060   4.161   1.654   1.066  0.2204  1.3776  1.2535
 7215TIP3    H243061   4.128   1.751   0.955  0.0267  0.1921  0.2437
 7216TIP3   OH243062   4.135   0.386  12.404  0.0175  0.0444  0.3069
 7216TIP3    H143063   4.198   0.393  12.332  1.5953 -3.2787  1.2000
 7216TIP3    H243064   4.050   0.372  12.361  0.6728 -0.2920 -0.9141
 7217TIP3   OH243065   5.564   2.732  13.568  0.0310 -0.3084  0.0025
 7217TIP3    H143066   5.513   2.772  13.638 -0.0998 -2.1529  1.0444
 7217TIP3    H243067   5.505   2.731  13.492 -0.3567  0.3931  0.2927
 7218TIP3   OH243068   1.652   3.452  10.806 -0.0407 -0.1857 -0.1667
 7218TIP3    H143069   1.696   3.468  10.723 -0.8118  0.4565 -0.4631
 7218TIP3    H243070   1.589   3.382  10.786  0.3988 -0.6545  0.0953
 7219TIP3   OH243071   4.212   0.627   3.791 -0.1391  0.1525 -0.3558
 7219TIP3    H143072   4.160   0.551   3.817  1.5816 -0.7802  0.4952
 7219TIP3    H243073   4.168   0.701   3.832 -2.3405 -0.2066 -1.8865
 7220TIP3   OH243074   4.885   1.627  13.921  0.0959  0.1708  0.0705
 7220TIP3    H143075   4.810   1.637  13.981  0.0401 -2.3327  0.5350
 7220TIP3    H243076   4.960   1.656  13.972 -0.3435  1.0982  0.2053
 7221TIP3   OH243077   0.753   4.081   3.439 -0.1144 -0.6571 -0.4914
 7221TIP3    H143078   0.674   4.036   3.468 -1.0891  1.0769 -0.3113
 7221TIP3    H243079   0.756   4.160   3.492  1.1175 -0.1272 -1.3067
 7222TIP3   OH243080   2.618   6.713   0.607  0.5279 -0.1658  0.6637
 7222TIP3    H143081   2.602   6.619   0.603  0.5997 -0.1530  0.0116
 7222TIP3    H243082   2.621   6.741   0.515  0.7251  0.4339  0.8480
 7223TIP3   OH243083   2.569   6.640   5.837  0.2445  0.6124 -0.2145
 7223TIP3    H143084   2.529   6.558   5.867  0.6877  0.3642 -0.2854
 7223TIP3    H243085   2.553   6.702   5.908  0.9589  0.1311  0.3741
 7224TIP3   OH243086   4.938   4.856  10.849 -0.1912  0.3074 -0.2315
 7224TIP3    H143087   5.018   4.809  10.871 -0.1955  0.6955  0.6403
 7224TIP3    H243088   4.872   4.787  10.836 -0.1260  0.0557  0.7431
 7225TIP3   OH243089   2.313   5.921  15.957 -0.4460 -0.0692  0.2279
 7225TIP3    H143090   2.348   5.833  15.943  1.7451  0.5301  1.5234
 7225TIP3    H243091   2.282   5.921  16.048  0.1940  0.6641  0.4620
 7226TIP3   OH243092   2.178   4.067   3.226  0.0830  0.1311  0.4763
 7226TIP3    H143093   2.262   4.046   3.267  0.7647  0.6560 -0.6095
 7226TIP3    H243094   2.196   4.142   3.170 -1.3949  1.0145  1.1275
 7227TIP3   OH243095   6.729   2.791   0.694  0.0127 -0.0872  0.2684
 7227TIP3    H143096   6.813   2.836   0.686  0.3143 -0.3518  1.7953
 7227TIP3    H243097   6.736   2.717   0.633  0.1705  0.8936 -0.9577
 7228TIP3   OH243098   1.574   6.726  14.185 -0.4951  0.1173  0.5849
 7228TIP3    H143099   1.573   6.719  14.281  0.9913 -1.6222  0.5178
 7228TIP3    H243100   1.536   6.812  14.167 -1.9390 -0.0099  2.6694
 7229TIP3   OH243101   0.105   5.718  16.691  0.1869 -0.5598 -0.3584
 7229TIP3    H143102   0.118   5.792  16.632  0.6443 -2.3327 -2.6768
 7229TIP3    H243103   0.010   5.716  16.706 -0.1196 -0.6808 -2.0228
 7230TIP3   OH243104   5.964   4.547   1.343  0.0222  0.0985  0.1486
 7230TIP3    H143105   5.985   4.640   1.347 -1.3551  0.3898  2.5330
 7230TIP3    H243106   5.905   4.539   1.268  0.7419  0.9728 -0.5430
 7231TIP3   OH243107   1.382   2.521   5.733  0.7358 -0.2299 -0.7320
 7231TIP3    H143108   1.342   2.443   5.695 -0.7098 -0.0440  0.3449
 7231TIP3    H243109   1.365   2.590   5.668  0.8010 -0.5092 -1.0490
 7232TIP3   OH243110   6.174   4.718   2.297  0.1328  0.4401  0.1234
 7232TIP3    H143111   6.251   4.773   2.311 -1.0287  1.9052  1.0276
 7232TIP3    H243112   6.132   4.714   2.383 -0.7648 -0.4052 -0.3431
 7233TIP3   OH243113   0.784   0.144   3.690 -0.1889 -0.4424  0.3008
 7233TIP3    H143114   0.817   0.099   3.768 -0.0947  0.9496  1.0986
 7233TIP3    H243115   0.780   0.237   3.716  2.1918  0.4554 -2.0934
 7234TIP3   OH243116   1.190   2.533  15.030 -0.2938  0.1608 -0.1329
 7234TIP3    H143117   1.177   2.588  15.107  4.0250  1.3810  0.0070
 7234TIP3    H243118   1.174   2.444  15.061 -1.1386  0.8212  1.4343
 7235TIP3   OH243119   5.264   0.075   1.333  0.3394 -0.1986 -0.0280
 7235TIP3    H143120   5.331   0.122   1.284  0.6436 -0.6279 -0.0346
 7235TIP3    H243121   5.206   0.038   1.267 -0.8274  1.4557  0.0014
 7236TIP3   OH243122   0.315   1.491  14.733  0.2402  0.1226 -0.1685
 7236TIP3    H143123   0.286   1.582  14.728  0.2896  0.1080 -0.8086
 7236TIP3    H243124   0.410   1.496  14.726  0.1375 -0.0997 -2.3534
 7237TIP3   OH243125   0.514   2.823   3.152  0.0219 -0.0623 -0.3818
 7237TIP3    H143126   0.431   2.863   3.126  0.7559  0.9132 -1.2810
 7237TIP3    H243127   0.551   2.884   3.217 -0.4361 -1.0302  0.8333
 7238TIP3   OH243128   5.398   4.198   5.437  0.1610  0.0291  0.0321
 7238TIP3    H143129   5.378   4.188   5.530 -1.2316  1.4383 -0.0830
 7238TIP3    H243130   5.460   4.271   5.434  2.0550 -1.4968  0.0000
 7239TIP3   OH243131   0.339   1.229   3.485 -0.4911 -1.0586 -0.1651
 7239TIP3    H143132   0.380   1.211   3.569  0.9446  0.2861 -0.5309
 7239TIP3    H243133   0.247   1.204   3.497 -0.9767  1.4456  2.6673
 7240TIP3   OH243134   1.582   3.003   3.892  0.1641 -0.0006 -0.0281
 7240TIP3    H143135   1.513   3.061   3.924  1.3214 -0.2358  3.2457
 7240TIP3    H243136   1.552   2.915   3.916  1.1539 -0.1902  0.5508
 7241TIP3   OH243137   1.650   4.598   5.437 -0.2404 -0.2399 -0.3074
 7241TIP3    H143138   1.711   4.623   5.506  0.4253  1.3457 -1.3946
 7241TIP3    H243139   1.564   4.597   5.479  0.3221 -0.7121  0.8412
 7242TIP3   OH243140   3.323   0.370  13.204  0.5657  0.2200 -0.0539
 7242TIP3    H143141   3.406   0.357  13.251  0.5483  0.0580 -0.0662
 7242TIP3    H243142   3.322   0.301  13.138  2.3778  2.7110 -2.8875
 7243TIP3   OH243143   2.704   5.815   4.469 -0.1135 -0.1317  0.1421
 7243TIP3    H143144   2.649   5.835   4.393 -0.0167 -0.8382 -0.1244
 7243TIP3    H243145   2.693   5.890   4.527  1.3596  1.4289 -1.4324
 7244TIP3   OH243146   3.665   6.703  14.013 -0.1745 -0.3045  0.3739
 7244TIP3    H143147   3.693   6.776  14.068  0.6504 -1.2761  1.3047
 7244TIP3    H243148   3.734   6.694  13.947 -1.1032  0.7820 -0.7787
 7245TIP3   OH243149   6.259   1.478   2.888  0.2691 -0.0442 -0.0578
 7245TIP3    H143150   6.198   1.551   2.899  3.1786  2.3067  1.8450
 7245TIP3    H243151   6.241   1.420   2.962  2.7603  2.6922  2.9544
 7246TIP3   OH243152   0.389   5.147  11.078 -0.3982  0.2391  0.4563
 7246TIP3    H143153   0.351   5.235  11.077 -1.6984 -0.2936  0.3522
 7246TIP3    H243154   0.371   5.112  10.991 -0.7435 -0.4713  0.8042
 7247TIP3   OH243155   2.674   6.505  14.951 -0.1075  0.0605 -0.4139
 7247TIP3    H143156   2.603   6.457  14.909  0.3077  0.3199 -1.4271
 7247TIP3    H243157   2.708   6.562  14.883  0.1126  1.0188  0.4771
 7248TIP3   OH243158   3.998   6.434  15.279  0.1050 -0.4898  0.3594
 7248TIP3    H143159   4.078   6.470  15.240 -0.1505  1.0436  1.1892
 7248TIP3    H243160   3.976   6.359  15.223  2.3417 -1.2133  0.3725
 7249TIP3   OH243161   2.948   2.940   0.240  0.3456  0.3756 -0.2930
 7249TIP3    H143162   2.855   2.921   0.248  0.2359 -0.6184 -2.9787
 7249TIP3    H243163   2.991   2.858   0.266  0.4435  0.4736 -0.1413
 7250TIP3   OH243164   0.557   1.748  17.006 -0.3382 -0.5176  0.3128
 7250TIP3    H143165   0.488   1.767  16.943 -2.1462 -1.4945  1.9008
 7250TIP3    H243166   0.530   1.666  17.048  1.3674 -0.4932  1.5660
 7251TIP3   OH243167   6.555   1.484   1.144 -0.5027 -0.8323 -0.5245
 7251TIP3    H143168   6.581   1.444   1.227  1.2413 -0.7252 -0.9823
 7251TIP3    H243169   6.515   1.567   1.169  0.1374 -0.7306  0.1937
 7252TIP3   OH243170   3.600   1.217   4.993 -0.5613 -0.0127 -0.0256
 7252TIP3    H143171   3.686   1.233   4.954 -0.2190  0.8744  1.0492
 7252TIP3    H243172   3.603   1.126   5.021  0.2032  0.1336  0.3965
 7253TIP3   OH243173   3.847   2.097   3.501  0.8507 -0.1070 -0.1758
 7253TIP3    H143174   3.872   2.022   3.556  1.8114 -0.4123 -0.9927
 7253TIP3    H243175   3.850   2.062   3.412 -0.6910  0.3787 -0.4449
 7254TIP3   OH243176   6.395   5.351  12.892  0.9543 -0.2607  0.6119
 7254TIP3    H143177   6.387   5.446  12.884 -2.1149 -0.3703  1.1465
 7254TIP3    H243178   6.457   5.338  12.964  3.0168  1.2226 -0.7759
 7255TIP3   OH243179   2.663   1.735   2.206 -0.2203  0.1552  0.0336
 7255TIP3    H143180   2.572   1.704   2.202 -0.1072 -0.2955  0.8961
 7255TIP3    H243181   2.670   1.780   2.290  0.5621 -0.4672  0.3079
 7256TIP3   OH243182   1.158   6.358  13.776 -0.3945 -0.2639 -0.1993
 7256TIP3    H143183   1.138   6.277  13.729 -0.4584  0.4208 -1.3879
 7256TIP3    H243184   1.244   6.384  13.744 -1.4281  1.4307 -1.7072
 7257TIP3   OH243185   0.426   0.014   1.151  0.2336 -0.2918 -0.4054
 7257TIP3    H143186   0.400  -0.068   1.110  1.4134 -0.1420 -1.5164
 7257TIP3    H243187   0.500  -0.010   1.208  1.0156  0.0753 -1.2383
 7258TIP3   OH243188   0.470   4.302   0.280  0.1338 -0.4250 -0.4421
 7258TIP3    H143189   0.389   4.333   0.240  0.3217 -0.2995 -0.7365
 7258TIP3    H243190   0.470   4.208   0.265  0.4265 -0.3157 -1.1607
 7259TIP3   OH243191   1.713   0.318  16.408  0.6823  0.1231 -0.1405
 7259TIP3    H143192   1.714   0.413  16.399 -1.1620  0.2518  0.4865
 7259TIP3    H243193   1.725   0.303  16.502  0.0629 -0.1941 -0.1033
 7260TIP3   OH243194   0.704   6.445   4.187  0.7549 -0.0841 -0.0347
 7260TIP3    H143195   0.763   6.373   4.211 -0.5409 -1.2752 -0.2654
 7260TIP3    H243196   0.711   6.451   4.092 -1.1187 -1.7958 -0.3597
 7261TIP3   OH243197   2.503   5.394   3.590  0.3009 -0.5768  0.1357
 7261TIP3    H143198   2.510   5.336   3.514 -0.0737  0.1830 -0.5048
 7261TIP3    H243199   2.430   5.453   3.567 -0.3841 -0.8721  1.4563
 7262TIP3   OH243200   5.390   5.491  16.940  0.1035 -0.1392  0.1901
 7262TIP3    H143201   5.480   5.480  16.971  0.0929 -0.2051  0.1974
 7262TIP3    H243202   5.396   5.482  16.845  0.2976  1.0743  0.0703
 7263TIP3   OH243203   2.835   0.522   2.782 -0.7370 -0.1420  0.4382
 7263TIP3    H143204   2.923   0.525   2.819 -1.1083 -0.0289  1.3153
 7263TIP3    H243205   2.778   0.508   2.856 -1.5483  0.7190 -0.0010
 7264TIP3   OH243206   5.303   3.971  15.233 -0.0082 -0.9225 -0.6550
 7264TIP3    H143207   5.393   3.938  15.237 -0.0531 -1.2607 -2.1183
 7264TIP3    H243208   5.278   3.982  15.325  1.5883 -0.6413 -0.2195
 7265TIP3   OH243209   1.418   2.619  17.159 -0.3678  0.2828  0.0842
 7265TIP3    H143210   1.467   2.693  17.124 -0.6178  2.0243  3.1042
 7265TIP3    H243211   1.358   2.657  17.223  0.3581 -2.5670  2.7317
 7266TIP3   OH243212   1.307   1.623  13.155 -0.5370  0.1969  0.7944
 7266TIP3    H143213   1.348   1.637  13.241  0.1901 -2.4812  0.9647
 7266TIP3    H243214   1.348   1.543  13.122 -1.8996  0.3477 -1.4058
 7267TIP3   OH243215   5.338   0.746   1.676  0.1057  0.5175  0.5367
 7267TIP3    H143216   5.361   0.653   1.681  0.3780  0.4284 -1.5516
 7267TIP3    H243217   5.410   0.786   1.626 -1.8584  1.1023 -2.0112
 7268TIP3   OH243218   3.238   1.254   5.597 -0.7143 -0.5036 -0.1087
 7268TIP3    H143219   3.184   1.297   5.664 -1.1646 -0.5082 -0.4637
 7268TIP3    H243220   3.327   1.259   5.632 -0.7040  1.0309 -0.2988
 7269TIP3   OH243221   2.040   6.635  10.999  0.1582  0.1457 -0.2380
 7269TIP3    H143222   1.978   6.658  11.069 -2.8244 -4.3884 -0.9380
 7269TIP3    H243223   2.018   6.695  10.928 -1.4599  0.5549  0.5424
 7270TIP3   OH243224   5.152   5.412   2.008 -0.0379 -0.1819  0.4782
 7270TIP3    H143225   5.145   5.396   2.102 -1.0404  0.0588  0.4586
 7270TIP3    H243226   5.224   5.355   1.979  0.7731  0.2807  1.5009
 7271TIP3   OH243227   1.886   0.379  17.154  0.2468 -0.3686 -0.2020
 7271TIP3    H143228   1.816   0.409  17.211  1.5290  1.5700  0.4775
 7271TIP3    H243229   1.929   0.309  17.203 -1.3995 -1.8687 -0.8072
 7272TIP3   OH243230   1.282   0.205  14.383  0.0172  0.7564 -0.4229
 7272TIP3    H143231   1.276   0.237  14.293  0.2657  0.6763 -0.4691
 7272TIP3    H243232   1.306   0.113  14.374 -0.8528  0.5161 -0.2948
 7273TIP3   OH243233   3.436   0.411   5.359  0.2078 -0.2275  0.0961
 7273TIP3    H143234   3.368   0.423   5.292 -0.0550  1.2443  0.5909
 7273TIP3    H243235   3.396   0.445   5.439  0.4795 -2.0645  1.0483
 7274TIP3   OH243236   4.784   1.802  11.678  0.0843 -0.0608  0.3184
 7274TIP3    H143237   4.809   1.892  11.698  1.2767 -0.6131  1.5027
 7274TIP3    H243238   4.845   1.775  11.609 -1.6328  0.6635 -1.5678
 7275TIP3   OH243239   5.755   3.662  15.686 -0.6222 -0.4136  0.1175
 7275TIP3    H143240   5.779   3.571  15.705 -1.8237 -0.9676 -0.8960
 7275TIP3    H243241   5.792   3.712  15.759  1.3475 -1.5076 -0.0571
 7276TIP3   OH243242   4.148   5.372  15.771 -0.4122  0.1475  0.4668
 7276TIP3    H143243   4.147   5.316  15.849 -2.7540  0.4799  0.7256
 7276TIP3    H243244   4.105   5.320  15.703 -0.2860  0.6701 -0.0199
 7277TIP3   OH243245   3.540   5.508   1.370 -0.3142  0.3148  0.1031
 7277TIP3    H143246   3.551   5.512   1.465 -3.3530 -0.8724  0.6306
 7277TIP3    H243247   3.475   5.576   1.351  0.4901  0.7548 -1.1922
 7278TIP3   OH243248   4.023   3.781   3.276  0.6620 -0.6319 -0.2080
 7278TIP3    H143249   4.098   3.739   3.235  1.9223  0.8593  0.4975
 7278TIP3    H243250   4.053   3.869   3.297 -1.3239  0.0357  0.0071
 7279TIP3   OH243251   1.911   0.802  14.057 -0.7494 -0.2167 -0.2059
 7279TIP3    H143252   1.905   0.866  13.986  0.4156  0.9206  0.6685
 7279TIP3    H243253   1.832   0.818  14.110 -1.7452 -1.2308 -1.3304
 7280TIP3   OH243254   1.941   0.388  14.194 -0.6863 -0.5022  0.0844
 7280TIP3    H143255   1.946   0.426  14.282 -1.2781  3.7820 -1.4960
 7280TIP3    H243256   2.032   0.373  14.169 -0.4951 -1.3480  1.2117
 7281TIP3   OH243257   0.095   4.220   5.426 -0.0149  0.2532 -0.0831
 7281TIP3    H143258   0.120   4.258   5.511  1.6893  1.2995 -0.9864
 7281TIP3    H243259   0.097   4.126   5.441  0.9950  0.3938  0.8708
 7282TIP3   OH243260   4.292   4.701   5.181  0.0005  0.4275 -0.0028
 7282TIP3    H143261   4.367   4.680   5.124 -1.4150  0.3001 -1.9049
 7282TIP3    H243262   4.269   4.617   5.221 -1.0070 -0.2118 -1.8204
 7283TIP3   OH243263   3.983   2.892   2.375 -0.4531  0.4617 -0.4043
 7283TIP3    H143264   4.056   2.836   2.403  0.1167  0.8898 -0.9733
 7283TIP3    H243265   3.970   2.870   2.283 -0.8366  0.6108 -0.3884
 7284TIP3   OH243266   0.462   3.987  11.530  0.3150  0.5089 -0.4790
 7284TIP3    H143267   0.429   3.899  11.513  0.1087  0.8818 -2.2788
 7284TIP3    H243268   0.398   4.027  11.589 -0.2097 -0.1612 -0.5913
 7285TIP3   OH243269   2.688   5.512   2.023  0.4875  0.1368  0.6327
 7285TIP3    H143270   2.616   5.466   2.067 -0.0676  0.2868 -0.0848
 7285TIP3    H243271   2.754   5.525   2.090  0.2204 -0.8126  1.0974
 7286TIP3   OH243272   4.506   3.828   3.251 -0.2098  0.3106  0.0438
 7286TIP3    H143273   4.589   3.868   3.275 -0.4784 -0.2218  2.0689
 7286TIP3    H243274   4.452   3.901   3.221  0.4510  0.9184  0.2963
 7287TIP3   OH243275   5.181   6.132  11.639 -0.1610  0.0163 -0.1529
 7287TIP3    H143276   5.151   6.118  11.549 -0.4220  0.5257 -0.1513
 7287TIP3    H243277   5.107   6.175  11.682  0.4438  0.9749 -0.0498
 7288TIP3   OH243278   6.780   0.972  13.288  0.6834  0.5774  0.6456
 7288TIP3    H143279   6.689   0.944  13.297 -0.4427  2.1953 -3.4441
 7288TIP3    H243280   6.778   1.065  13.310  1.0170  0.9174 -0.6926
 7289TIP3   OH243281   0.613   0.782   2.218  0.0273 -0.3654 -0.2875
 7289TIP3    H143282   0.557   0.854   2.247 -0.2857 -0.7716  0.1266
 7289TIP3    H243283   0.564   0.702   2.240 -1.5187 -0.7659 -4.2486
 7290TIP3   OH243284   5.430   1.083   2.742  0.5321  0.7839  0.6258
 7290TIP3    H143285   5.521   1.055   2.750  0.2076 -0.1213  1.3172
 7290TIP3    H243286   5.391   1.021   2.681  0.5336  1.6022 -0.2364
 7291TIP3   OH243287   1.792   4.762  11.169 -0.3772 -0.4270  0.4027
 7291TIP3    H143288   1.729   4.696  11.140  0.1367 -0.9465  0.4425
 7291TIP3    H243289   1.822   4.804  11.088 -0.9591 -0.0014  0.4046
 7292TIP3   OH243290   2.995   1.495  14.489  0.0861  0.2719 -0.3337
 7292TIP3    H143291   2.900   1.486  14.487  0.0408 -0.2315  1.6741
 7292TIP3    H243292   3.010   1.587  14.510 -0.0547 -0.0832  1.4862
 7293TIP3   OH243293   3.534   2.538  11.705  0.0198 -0.0763 -0.2747
 7293TIP3    H143294   3.601   2.515  11.640  0.0593 -0.7020 -0.0188
 7293TIP3    H243295   3.525   2.633  11.697 -0.3173 -0.1880 -1.5365
 7294TIP3   OH243296   2.681   0.125   5.299  0.1885 -0.5290 -0.0415
 7294TIP3    H143297   2.766   0.148   5.335 -0.0055 -0.4572  0.3825
 7294TIP3    H243298   2.640   0.070   5.367 -0.2643 -0.2239 -0.0625
 7295TIP3   OH243299   6.655   2.421   6.168  0.2835 -0.5991 -0.2198
 7295TIP3    H143300   6.724   2.405   6.233  0.2073 -2.0161 -0.4557
 7295TIP3    H243301   6.593   2.349   6.181  0.5125 -1.1989 -2.1530
 7296TIP3   OH243302   4.270   4.641  17.247  0.1070 -0.1341 -0.2002
 7296TIP3    H143303   4.355   4.615  17.282  0.4238 -1.3352 -1.7384
 7296TIP3    H243304   4.211   4.638  17.322  1.1918 -0.3932  0.6710
 7297TIP3   OH243305   2.079   2.345  11.826  0.7160 -0.2766  0.0247
 7297TIP3    H143306   2.145   2.352  11.894  1.6540 -4.6694 -0.1029
 7297TIP3    H243307   2.129   2.348  11.744  0.3467 -0.3498 -0.2076
 7298TIP3   OH243308   2.153   6.450  14.474 -0.1757  0.7354  0.4259
 7298TIP3    H143309   2.112   6.364  14.466  1.0485  0.0468  1.1811
 7298TIP3    H243310   2.096   6.509  14.425 -1.1683 -0.4623  0.0997
 7299TIP3   OH243311   2.267   5.555   1.525  0.1051  0.1892  0.6805
 7299TIP3    H143312   2.210   5.502   1.470  1.5088  0.3769 -1.0586
 7299TIP3    H243313   2.295   5.496   1.595 -2.2747  0.1475  1.6775
 7300TIP3   OH243314   0.379   4.035  14.099  0.3172  0.3291 -0.3904
 7300TIP3    H143315   0.317   3.970  14.066  0.4522  0.2755 -0.5424
 7300TIP3    H243316   0.442   4.046  14.028  1.6439 -1.1109  0.5124
 7301TIP3   OH243317   1.776   6.277   3.585  0.1281  0.1466 -0.0603
 7301TIP3    H143318   1.736   6.200   3.545 -1.2740 -0.6129  2.5537
 7301TIP3    H243319   1.717   6.349   3.561 -0.0078 -0.0598 -0.3549
 7302TIP3   OH243320   2.608   5.618   4.242 -0.3056  0.3131  0.2951
 7302TIP3    H143321   2.653   5.549   4.292  0.4933  0.7749  0.2197
 7302TIP3    H243322   2.516   5.607   4.266 -0.1957 -0.7733  0.3030
 7303TIP3   OH243323   5.393   5.330  11.277  0.1243  0.4718  0.7554
 7303TIP3    H143324   5.366   5.355  11.366  0.0861  2.8957  0.1242
 7303TIP3    H243325   5.338   5.383  11.220 -1.2129 -2.4278 -0.8355
 7304TIP3   OH243326   0.164   1.708  12.544  0.0068 -0.0557  0.7419
 7304TIP3    H143327   0.247   1.668  12.567 -0.1056  0.2690  1.7340
 7304TIP3    H243328   0.128   1.650  12.476 -1.0418 -2.8033  3.4130
 7305TIP3   OH243329   4.027   0.147  15.524 -0.5036  0.2527 -0.1283
 7305TIP3    H143330   4.116   0.176  15.508  0.4621 -2.8428 -1.1692
 7305TIP3    H243331   4.032   0.098  15.607 -1.1037 -0.3810 -0.4505
 7306TIP3   OH243332   5.002   2.551   1.937  0.1341 -0.0091 -0.6515
 7306TIP3    H143333   4.935   2.488   1.964 -0.9108  0.4188 -2.1305
 7306TIP3    H243334   5.049   2.572   2.018  0.0317 -2.0840  0.0209
 7307TIP3   OH243335   5.679   3.891  16.259  0.1927  0.0673  0.0042
 7307TIP3    H143336   5.773   3.883  16.270  0.3372  1.2186 -0.2178
 7307TIP3    H243337   5.644   3.805  16.280  1.4806 -1.0497 -2.1085
 7308TIP3   OH243338   0.158   0.078  17.270 -0.6798  0.8087  0.2592
 7308TIP3    H143339   0.175   0.066  17.177 -0.7108 -0.3039  0.3943
 7308TIP3    H243340   0.169  -0.009  17.308 -1.6258  1.0585  1.1414
 7309TIP3   OH243341   0.955   1.195  16.753  0.8684  0.6145  0.1301
 7309TIP3    H143342   1.034   1.210  16.806  0.1703  0.7013  1.1688
 7309TIP3    H243343   0.988   1.183  16.664  2.3985 -2.5095  0.9785
 7310TIP3   OH243344   6.579   3.892  11.407 -0.0556 -0.8242 -0.6612
 7310TIP3    H143345   6.576   3.820  11.469 -0.5592  0.9437  1.4904
 7310TIP3    H243346   6.492   3.893  11.367 -1.9798  1.5354  3.0382
 7311TIP3   OH243347   2.383   1.236   4.030  0.6361 -0.0749  0.2524
 7311TIP3    H143348   2.356   1.148   4.003 -2.8415  0.5128  1.2525
 7311TIP3    H243349   2.397   1.283   3.948 -2.1150 -0.3988 -0.5081
 7312TIP3   OH243350   6.404   1.749   5.050 -0.4774 -0.4239  0.0180
 7312TIP3    H143351   6.415   1.694   5.127 -2.5700  1.3577  1.7456
 7312TIP3    H243352   6.309   1.756   5.039 -0.2589 -1.1028 -3.1529
 7313TIP3   OH243353   3.926   5.712   1.071  0.2539 -0.1791 -0.1887
 7313TIP3    H143354   3.858   5.662   1.026  1.1631 -0.9801 -0.7142
 7313TIP3    H243355   4.005   5.659   1.061  0.2279 -1.2374  3.7209
 7314TIP3   OH243356   2.335   0.313   5.243  0.1034 -0.0475  0.4760
 7314TIP3    H143357   2.311   0.252   5.173 -1.0313 -0.2580  1.0227
 7314TIP3    H243358   2.396   0.374   5.202 -2.0602  1.0857 -1.3082
 7315TIP3   OH243359   6.731   0.234   1.281  0.4431  0.1316 -0.6931
 7315TIP3    H143360   6.776   0.214   1.199 -0.0551 -1.5063 -0.6133
 7315TIP3    H243361   6.638   0.228   1.260  0.3044 -0.0245 -0.0731
 7316TIP3   OH243362   0.057   6.376   2.603 -0.0036 -0.8630 -0.2891
 7316TIP3    H143363   0.122   6.377   2.673 -0.4104  1.4761  0.1273
 7316TIP3    H243364   0.077   6.453   2.549 -0.4229 -1.9518 -2.1077
 7317TIP3   OH243365   5.127   4.201  14.071  0.0286 -0.3009  0.6952
 7317TIP3    H143366   5.080   4.199  13.988  0.7585  0.7185  0.2406
 7317TIP3    H243367   5.082   4.136  14.125 -2.1222  0.8401  0.3981
 7318TIP3   OH243368   1.156   4.895   0.649 -0.3617  0.0455 -0.3603
 7318TIP3    H143369   1.135   4.981   0.684 -1.9770 -0.2833 -0.4528
 7318TIP3    H243370   1.072   4.850   0.644  0.2002 -0.8944 -2.0567
 7319TIP3   OH243371   5.050   4.176   2.291 -0.0741 -0.3587  0.4945
 7319TIP3    H143372   5.041   4.256   2.241 -1.0671 -0.9599 -0.3092
 7319TIP3    H243373   4.966   4.164   2.334  0.2875 -0.6254  1.1471
 7320TIP3   OH243374   6.698   0.134   0.161  0.2429  0.1198 -0.0915
 7320TIP3    H143375   6.764   0.149   0.093 -0.3951  0.9605 -0.5436
 7320TIP3    H243376   6.736   0.065   0.216  0.7597 -0.6275 -1.3212
 7321TIP3   OH243377   5.835   4.746  16.802 -0.1057  0.0487  0.3833
 7321TIP3    H143378   5.827   4.656  16.834 -0.2809  0.1192  0.5384
 7321TIP3    H243379   5.745   4.777  16.795 -0.0551  0.1337  0.1056
 7322TIP3   OH243380   4.321   3.809   0.545  0.6849 -0.1442  0.3069
 7322TIP3    H143381   4.383   3.737   0.560 -0.2792 -1.4877 -1.6465
 7322TIP3    H243382   4.310   3.811   0.450  0.6876  2.6652  0.2855
 7323TIP3   OH243383   4.825   1.862  12.808  0.2564 -0.0663  0.0973
 7323TIP3    H143384   4.909   1.893  12.841  0.0194  2.0380 -1.0993
 7323TIP3    H243385   4.838   1.855  12.713 -0.3046 -1.8840  0.1087
 7324TIP3   OH243386   6.503   4.750  14.971 -0.2023 -0.1519 -0.4322
 7324TIP3    H143387   6.470   4.824  15.022 -0.8838 -0.5536 -0.2769
 7324TIP3    H243388   6.424   4.702  14.945  0.1087  0.0681 -1.9076
 7325TIP3   OH243389   1.756   2.803  12.061  0.0004  0.3669  0.2396
 7325TIP3    H143390   1.670   2.839  12.039 -0.6403 -1.5550 -0.5955
 7325TIP3    H243391   1.817   2.875  12.045 -1.3914  1.6561  0.5018
 7326TIP3   OH243392   2.776   5.422  13.653  0.4418 -0.3775  0.3509
 7326TIP3    H143393   2.811   5.505  13.685  3.5116  0.2320 -3.7296
 7326TIP3    H243394   2.718   5.446  13.581  1.0717 -1.7269 -0.6452
 7327TIP3   OH243395   6.268   1.767   4.737 -0.1665  0.0682  0.4840
 7327TIP3    H143396   6.349   1.749   4.784 -1.2953  0.0721  2.5805
 7327TIP3    H243397   6.210   1.695   4.763 -1.9038  1.8555  1.8051
 7328TIP3   OH243398   3.861   3.473   0.466 -0.1094  0.1779  0.1093
 7328TIP3    H143399   3.784   3.527   0.451  0.5555  0.7718 -1.3218
 7328TIP3    H243400   3.903   3.510   0.544  0.0928  1.4533 -0.5880
 7329TIP3   OH243401   5.625   3.728   1.582 -0.2300 -0.2109 -0.2731
 7329TIP3    H143402   5.558   3.735   1.650  1.2685 -1.3149  1.3959
 7329TIP3    H243403   5.615   3.808   1.530 -0.6239  1.2955  1.9976
 7330TIP3   OH243404   2.528   4.152   4.286  0.4757 -0.2180  0.8634
 7330TIP3    H143405   2.480   4.169   4.367  0.7653 -1.1126  1.2361
 7330TIP3    H243406   2.588   4.225   4.277 -1.4046  1.3326  0.0121
 7331TIP3   OH243407   1.146   1.933   5.270  0.3958  0.0878  0.4132
 7331TIP3    H143408   1.185   1.850   5.245  1.6391  0.6794  0.3129
 7331TIP3    H243409   1.061   1.934   5.226  1.2495 -0.2080 -1.3360
 7332TIP3   OH243410   2.182   5.284   3.984 -0.3358 -0.7094  0.0173
 7332TIP3    H143411   2.108   5.308   4.039 -0.6184 -1.6406  0.0615
 7332TIP3    H243412   2.245   5.245   4.045 -0.7188 -1.8973 -0.3220
 7333TIP3   OH243413   5.214   3.451  14.910  0.2473 -0.2734  0.6677
 7333TIP3    H143414   5.210   3.539  14.946  0.0745 -0.0831  0.1780
 7333TIP3    H243415   5.167   3.397  14.974  0.6095 -0.0661  1.1180
 7334TIP3   OH243416   1.179   3.213   2.833  0.4396 -0.4713 -0.7997
 7334TIP3    H143417   1.089   3.243   2.837  1.0624  1.6486 -1.4617
 7334TIP3    H243418   1.184   3.161   2.752 -0.1547 -0.5689 -0.7768
 7335TIP3   OH243419   6.230   0.297   1.740  0.6789 -0.0871 -0.2561
 7335TIP3    H143420   6.143   0.331   1.761 -0.8536 -2.3205 -2.4719
 7335TIP3    H243421   6.232   0.210   1.781  1.5541 -0.3831 -0.8994
 7336TIP3   OH243422   6.133   4.469   5.895 -0.0397  0.4425 -0.5222
 7336TIP3    H143423   6.204   4.427   5.944 -1.7351 -1.7136  0.2326
 7336TIP3    H243424   6.153   4.449   5.803  0.5960  0.3156 -0.3588
 7337TIP3   OH243425   3.395   0.144   5.140 -0.4138 -0.1870  0.2595
 7337TIP3    H143426   3.452   0.071   5.166 -1.5624 -0.9887  0.6122
 7337TIP3    H243427   3.395   0.140   5.044 -1.3310 -1.3614  0.2938
 7338TIP3   OH243428   2.995   1.360  10.933 -0.0011 -0.1873 -0.3463
 7338TIP3    H143429   3.020   1.452  10.938  0.3139 -0.2748 -0.2985
 7338TIP3    H243430   3.043   1.318  11.004 -1.3899 -0.1152  0.6725
 7339TIP3   OH243431   3.859   5.185  12.623 -0.4688 -0.2648 -0.2184
 7339TIP3    H143432   3.901   5.160  12.541 -1.4517 -0.7325 -0.5920
 7339TIP3    H243433   3.778   5.136  12.625 -0.4350 -0.3158  1.0775
 7340TIP3   OH243434   2.118   0.645   4.070 -0.5453  0.1881  0.2039
 7340TIP3    H143435   2.042   0.596   4.039 -0.9661  0.2950  1.0358
 7340TIP3    H243436   2.085   0.733   4.087 -0.2769  0.1953  0.7113
 7341TIP3   OH243437   6.061   1.272  12.902 -0.1606  0.1899 -0.1659
 7341TIP3    H143438   6.138   1.270  12.958 -0.0536 -0.7493 -0.3268
 7341TIP3    H243439   6.095   1.255  12.814 -0.4965  0.2279 -0.3046
 7342TIP3   OH243440   5.191   3.238   2.721  0.3600 -0.8074 -0.5078
 7342TIP3    H143441   5.151   3.150   2.718 -0.2489 -0.5768  0.3405
 7342TIP3    H243442   5.181   3.272   2.632 -1.2226 -0.8261 -0.3664
 7343TIP3   OH243443   3.944   2.459  14.828  0.3031  0.2676 -0.7644
 7343TIP3    H143444   3.968   2.551  14.815  1.4102 -0.0994 -1.5197
 7343TIP3    H243445   3.920   2.453  14.921  0.0583  1.3477 -0.7491
 7344TIP3   OH243446   3.334   0.982   5.677 -0.4217 -0.4621  0.1649
 7344TIP3    H143447   3.283   0.914   5.635 -1.2847 -0.7890  1.6773
 7344TIP3    H243448   3.282   1.061   5.669  0.1259 -0.1791 -0.7187
 7345TIP3   OH243449   5.435   3.643  11.887 -0.3456  0.3083  0.2380
 7345TIP3    H143450   5.375   3.620  11.958  1.1678 -0.1055  1.4387
 7345TIP3    H243451   5.450   3.737  11.899  0.3725  0.1245  0.8653
 7346TIP3   OH243452   6.180   4.551   1.940 -0.5799 -0.2227  0.2170
 7346TIP3    H143453   6.268   4.515   1.931 -0.7160 -0.9056  1.4147
 7346TIP3    H243454   6.134   4.490   1.998 -1.3609  0.9350  0.8649
 7347TIP3   OH243455   5.649   0.572   0.099  0.0008 -0.3703  0.3743
 7347TIP3    H143456   5.672   0.554   0.008 -0.2387  1.4348 -0.0811
 7347TIP3    H243457   5.717   0.633   0.129  0.1318 -1.0145  1.4546
 7348TIP3   OH243458   2.269   3.254   1.934 -0.1193 -0.4939 -0.2264
 7348TIP3    H143459   2.360   3.252   1.904 -0.1983  1.2056 -0.7151
 7348TIP3    H243460   2.274   3.291   2.022 -0.3127 -0.6280 -0.1596
 7349TIP3   OH243461   4.763   6.505   1.501  0.2464 -0.8477  0.1272
 7349TIP3    H143462   4.697   6.453   1.547  0.5224 -0.4619  0.9788
 7349TIP3    H243463   4.714   6.556   1.437 -0.4388  0.2500  1.4813
 7350TIP3   OH243464   4.476   2.752   3.270 -0.2100 -0.1891 -0.0884
 7350TIP3    H143465   4.506   2.718   3.354 -1.5599  0.5358  0.7312
 7350TIP3    H243466   4.403   2.811   3.292 -0.7989 -0.2015 -1.7815
 7351TIP3   OH243467   6.457   5.897  12.566  0.2201  0.0701  0.0891
 7351TIP3    H143468   6.518   5.939  12.506 -0.4134  1.5268  0.4135
 7351TIP3    H243469   6.373   5.940  12.550 -0.2105 -0.2971  1.2211
 7352TIP3   OH243470   1.574   3.730  15.864  0.6246  0.0044 -0.2098
 7352TIP3    H143471   1.597   3.638  15.878 -2.0779 -0.7425 -0.2039
 7352TIP3    H243472   1.650   3.778  15.898  0.7157 -2.1126  3.1258
 7353TIP3   OH243473   3.577   1.723   3.418  0.1963 -0.2176  0.2752
 7353TIP3    H143474   3.625   1.767   3.487  3.2128  0.8638 -2.2762
 7353TIP3    H243475   3.607   1.764   3.337 -1.2243 -3.0355 -1.8953
 7354TIP3   OH243476   2.564   3.615  14.908  0.5169 -0.3610  0.4969
 7354TIP3    H143477   2.641   3.672  14.913 -0.3839  0.8154  1.7598
 7354TIP3    H243478   2.569   3.561  14.987 -0.1388 -0.0208  0.7767
 7355TIP3   OH243479   0.086   2.706   3.414 -0.4158 -0.3711 -0.2651
 7355TIP3    H143480   0.048   2.635   3.466 -1.1908 -0.1934 -0.5736
 7355TIP3    H243481   0.138   2.757   3.476 -1.6944  0.1056  0.4390
 7356TIP3   OH243482   1.210   0.367   4.248 -0.1632 -0.1847  0.1259
 7356TIP3    H143483   1.286   0.400   4.296 -0.3186  0.2045  0.1056
 7356TIP3    H243484   1.205   0.274   4.272  0.5643 -0.3131 -0.1890
 7357TIP3   OH243485   3.053   5.010  11.142  0.3786 -0.0243 -0.4347
 7357TIP3    H143486   3.070   4.950  11.215  3.5997  0.7152 -0.3931
 7357TIP3    H243487   2.965   5.043  11.157  0.1360 -1.5343  1.9172
 7358TIP3   OH243488   2.545   6.265  15.830 -0.0016  0.5485 -0.1807
 7358TIP3    H143489   2.479   6.272  15.899  0.4813  2.4091  0.1211
 7358TIP3    H243490   2.504   6.307  15.754  0.2564  0.3206 -0.4482
 7359TIP3   OH243491   0.252   3.148   1.872 -0.5900  0.1018  0.1631
 7359TIP3    H143492   0.335   3.102   1.857 -0.6817  0.3617 -1.3840
 7359TIP3    H243493   0.194   3.115   1.803 -1.3874  0.8198  0.4697
 7360TIP3   OH243494   4.776   3.462  11.788 -0.2192 -0.2801 -0.1053
 7360TIP3    H143495   4.851   3.403  11.777  0.1046  0.0197  0.4187
 7360TIP3    H243496   4.787   3.527  11.719  0.1074 -0.1377  0.0767
 7361TIP3   OH243497   2.152   5.972  11.896 -1.1002  0.4684  0.0209
 7361TIP3    H143498   2.138   5.986  11.989 -1.3247  0.5918 -0.0306
 7361TIP3    H243499   2.087   6.027  11.853 -3.0094 -1.7723 -0.1747
 7362TIP3   OH243500   2.360   6.355   6.318 -0.0245  0.2077  0.7092
 7362TIP3    H143501   2.426   6.303   6.365 -0.8760 -1.8803 -0.2515
 7362TIP3    H243502   2.278   6.308   6.333 -0.7403  0.9135 -0.7720
 7363TIP3   OH243503   4.918   0.485   5.685  0.9703 -0.2857  0.3441
 7363TIP3    H143504   4.967   0.487   5.767  0.1604 -0.8001  0.8490
 7363TIP3    H243505   4.854   0.555   5.693  1.9237  0.7299 -0.5304
 7364TIP3   OH243506   2.326   5.541  14.376  0.6003  0.0785  0.2803
 7364TIP3    H143507   2.236   5.512  14.364  1.0045 -0.7471 -0.9137
 7364TIP3    H243508   2.350   5.581  14.293  0.9233  1.5210  1.0256
 7365TIP3   OH243509   0.573   6.202   5.832  0.7933  0.4807  0.4286
 7365TIP3    H143510   0.622   6.159   5.902  0.5668  1.4301  1.1908
 7365TIP3    H243511   0.501   6.142   5.813  1.6849 -0.4893 -0.0550
 7366TIP3   OH243512   0.105   4.988   0.343 -0.5082  0.5532 -0.2618
 7366TIP3    H143513   0.010   5.002   0.346 -0.5908 -0.0298  0.5418
 7366TIP3    H243514   0.139   5.042   0.414 -0.5531 -1.1388  1.1472
 7367TIP3   OH243515   5.572   4.745  16.036  0.4093  0.4709  0.4706
 7367TIP3    H143516   5.507   4.725  16.103 -0.9354  0.7525 -0.7167
 7367TIP3    H243517   5.579   4.664  15.985  0.0482  0.8225 -0.1558
 7368TIP3   OH243518   2.491   2.132  16.663  0.5463  0.0166 -0.4221
 7368TIP3    H143519   2.491   2.068  16.591 -1.6805  0.7683 -1.1724
 7368TIP3    H243520   2.548   2.202  16.632 -1.8402  1.2414 -2.4659
 7369TIP3   OH243521   5.720   3.622   2.060  0.1516 -0.2419 -0.2440
 7369TIP3    H143522   5.707   3.548   2.000  2.0779 -1.0594  0.2942
 7369TIP3    H243523   5.796   3.669   2.024  0.4220  0.1024  0.7579
 7370TIP3   OH243524   4.226   4.112   4.069 -0.1407  0.5054  0.1434
 7370TIP3    H143525   4.178   4.192   4.048  0.2828  0.4788 -1.0051
 7370TIP3    H243526   4.200   4.050   4.001 -1.1887 -0.6575  1.5602
 7371TIP3   OH243527   1.204   2.840   2.225  0.1612 -0.2612  0.0111
 7371TIP3    H143528   1.257   2.771   2.185 -0.8656 -0.9332 -0.2384
 7371TIP3    H243529   1.268   2.904   2.257  1.0824 -0.5083 -1.2346
 7372TIP3   OH243530   1.796   3.071   1.762  0.2946 -0.4068 -0.6758
 7372TIP3    H143531   1.744   3.146   1.792 -0.5877 -1.4118  0.3784
 7372TIP3    H243532   1.731   3.009   1.728  0.9122 -1.1662 -0.4838
 7373TIP3   OH243533   6.738   0.410   5.966 -0.7067 -0.2907 -0.0170
 7373TIP3    H143534   6.659   0.410   6.019 -0.1161  0.1326  0.8906
 7373TIP3    H243535   6.760   0.503   5.955  0.8081 -0.4202  1.5179
 7374TIP3   OH243536   4.288   2.974   2.096 -0.3383 -0.4530 -0.0585
 7374TIP3    H143537   4.307   3.004   2.007  0.0313 -1.2896 -0.2731
 7374TIP3    H243538   4.371   2.988   2.143 -0.2595 -0.8411 -0.0807
 7375TIP3   OH243539   0.231   2.296   5.914  0.1079 -0.3080  0.7959
 7375TIP3    H143540   0.265   2.269   5.999  0.9764 -1.9151 -0.0205
 7375TIP3    H243541   0.285   2.249   5.850 -0.1632  1.2729 -0.6705
 7376TIP3   OH243542   0.474   5.710   2.868 -0.2848 -0.0584  0.8620
 7376TIP3    H143543   0.514   5.653   2.934 -0.9002  1.6028  2.7504
 7376TIP3    H243544   0.381   5.688   2.871 -0.2320 -0.3963  0.0989
 7377TIP3   OH243545   5.210   1.514   5.414 -0.1732  0.7742 -0.5403
 7377TIP3    H143546   5.272   1.476   5.476 -1.6298 -0.7212  0.0851
 7377TIP3    H243547   5.146   1.559   5.468 -1.6663 -0.8535 -0.8584
 7378TIP3   OH243548   1.372   6.027   5.310 -0.4669 -0.6095  0.3733
 7378TIP3    H143549   1.352   6.119   5.294 -1.1306 -1.1286 -2.2285
 7378TIP3    H243550   1.467   6.023   5.310 -0.4178 -0.2261 -1.8254
 7379TIP3   OH243551   3.756   0.217   2.101  0.3003 -0.4879  0.1163
 7379TIP3    H143552   3.664   0.192   2.105 -0.9072  2.3309 -3.5501
 7379TIP3    H243553   3.795   0.156   2.039  0.4856 -0.7318  0.4747
 7380TIP3   OH243554   4.213   1.767   1.821  0.4847 -0.1285 -0.7866
 7380TIP3    H143555   4.130   1.814   1.832  0.0881 -1.1101  0.9336
 7380TIP3    H243556   4.279   1.835   1.810 -0.1485  0.8480  1.0048
 7381TIP3   OH243557   0.282   6.187  11.358 -0.6656 -0.0337 -0.0103
 7381TIP3    H143558   0.299   6.276  11.388 -0.5814 -0.1333  0.2401
 7381TIP3    H243559   0.307   6.132  11.432 -1.8458 -0.1969  0.2743
 7382TIP3   OH243560   1.336   3.145  13.087 -0.3156  0.1171  0.1372
 7382TIP3    H143561   1.330   3.128  12.993 -0.2516  2.0756 -0.2700
 7382TIP3    H243562   1.388   3.072  13.121  0.9292  0.1275 -1.5906
 7383TIP3   OH243563   3.302   3.880   1.403 -0.0805 -0.2781  0.0329
 7383TIP3    H143564   3.232   3.945   1.405 -0.9960 -1.1959 -1.0250
 7383TIP3    H243565   3.275   3.813   1.466 -0.7401 -1.1712 -1.1485
 7384TIP3   OH243566   4.315   4.843  16.426  0.0844  0.2056 -0.0253
 7384TIP3    H143567   4.377   4.863  16.495 -0.9132  2.4403  0.2924
 7384TIP3    H243568   4.253   4.782  16.466 -0.2754  1.2015  0.9661
 7385TIP3   OH243569   1.923   6.632   0.292  0.1094  0.0743  0.6553
 7385TIP3    H143570   1.922   6.554   0.237  0.2894  0.7827 -0.3859
 7385TIP3    H243571   1.876   6.607   0.371  0.7850 -1.3029  0.6431
 7386TIP3   OH243572   0.205   0.647  12.112  0.2074  0.5328  0.0036
 7386TIP3    H143573   0.265   0.721  12.126  0.0144  1.1045 -1.9313
 7386TIP3    H243574   0.256   0.586  12.058 -1.6860  2.2716 -4.1664
 7387TIP3   OH243575   1.379   2.733  15.594  0.1540  0.1382  0.0227
 7387TIP3    H143576   1.358   2.675  15.521 -0.5957  0.6034 -0.1352
 7387TIP3    H243577   1.295   2.756  15.632  0.5067  0.3502  0.6909
 7388TIP3   OH243578   5.585   0.350   2.849  0.3889  0.3589  0.0671
 7388TIP3    H143579   5.586   0.255   2.858  0.6032  0.3562  0.0267
 7388TIP3    H243580   5.589   0.365   2.755  0.0862  0.4048  0.0629
 7389TIP3   OH243581   3.687   6.582   2.423  0.3098 -0.1994  0.2498
 7389TIP3    H143582   3.775   6.553   2.446  0.1906  0.3789  1.5361
 7389TIP3    H243583   3.682   6.571   2.328  2.4885  1.6023 -0.1686
 7390TIP3   OH243584   3.552   6.450  13.373  0.2673  0.7026  0.3089
 7390TIP3    H143585   3.497   6.512  13.325 -0.8502  0.0025  0.6548
 7390TIP3    H243586   3.614   6.505  13.420  1.0600  1.4375 -1.5026
 7391TIP3   OH243587   2.901   3.031   2.201  0.6290  0.1706  0.5247
 7391TIP3    H143588   2.860   3.009   2.117  0.3624 -0.9206  0.9315
 7391TIP3    H243589   2.828   3.038   2.262  0.9270 -0.3695  0.9501
 7392TIP3   OH243590   2.315   0.852   1.507 -0.2622 -0.0477  0.5183
 7392TIP3    H143591   2.298   0.763   1.536  0.0227 -0.2714  0.0185
 7392TIP3    H243592   2.390   0.844   1.447 -0.6787  0.4218 -0.0870
 7393TIP3   OH243593   5.580   1.705   4.626 -0.3113  0.3143  0.0744
 7393TIP3    H143594   5.674   1.718   4.631 -0.2586 -0.1290  0.2499
 7393TIP3    H243595   5.569   1.614   4.599 -0.6892  0.3825 -0.0109
 7394TIP3   OH243596   4.027   2.712  12.933 -0.5428  0.6098 -0.4400
 7394TIP3    H143597   4.115   2.711  12.895 -0.5037 -0.3616 -0.3518
 7394TIP3    H243598   4.004   2.805  12.937  1.0051  0.9774  0.7643
 7395TIP3   OH243599   6.619   1.864  17.180 -0.2165 -0.3849 -0.9142
 7395TIP3    H143600   6.592   1.862  17.088 -0.8973 -1.8987 -0.7124
 7395TIP3    H243601   6.537   1.860  17.229  0.1834 -3.4687 -0.2815
 7396TIP3   OH243602   6.506   3.301  14.698  0.0455 -0.4362 -0.1526
 7396TIP3    H143603   6.412   3.282  14.710 -0.3209  2.3613  2.5630
 7396TIP3    H243604   6.549   3.248  14.765  0.4773 -1.5608 -1.2663
 7397TIP3   OH243605   5.438   4.721   2.938  0.1473 -0.5965 -0.6170
 7397TIP3    H143606   5.532   4.737   2.936  0.1951 -0.7863 -0.0414
 7397TIP3    H243607   5.398   4.808   2.927  0.3940 -0.4279 -0.2024
 7398TIP3   OH243608   3.563   6.431   5.449 -0.3344  0.6535 -0.4667
 7398TIP3    H143609   3.557   6.413   5.543 -0.3132 -0.4331 -0.6655
 7398TIP3    H243610   3.501   6.371   5.408  0.0822  0.6992 -1.1979
 7399TIP3   OH243611   5.994   1.045  13.741 -0.3868 -0.5394 -0.1319
 7399TIP3    H143612   5.970   1.015  13.653  1.7820 -0.4948 -0.8201
 7399TIP3    H243613   6.003   1.140  13.732 -2.5922 -0.1849  0.8303
 7400TIP3   OH243614   4.625   4.998   1.072  0.4403 -0.2787 -0.0558
 7400TIP3    H143615   4.709   5.020   1.110  0.5360 -0.6745 -0.0291
 7400TIP3    H243616   4.602   5.073   1.018  1.0754 -0.4023 -0.5104
 7401TIP3   OH243617   4.716   5.010   3.454  0.3595  0.0926  0.1829
 7401TIP3    H143618   4.801   5.052   3.438  0.7923 -1.2872 -1.4952
 7401TIP3    H243619   4.734   4.946   3.523  1.1124 -1.2720 -1.2227
 7402TIP3   OH243620   0.024   1.461   0.477  0.1652  0.0837 -0.5144
 7402TIP3    H143621   0.110   1.465   0.519  0.8913 -1.3362 -1.7619
 7402TIP3    H243622   0.005   1.551   0.452  0.8088  0.5722  0.6810
 7403TIP3   OH243623   2.544   5.174   3.773 -0.0828 -0.2786  0.4891
 7403TIP3    H143624   2.482   5.103   3.756  0.4771 -0.7591  0.3989
 7403TIP3    H243625   2.507   5.250   3.727  1.1909 -1.4472 -2.7377
 7404TIP3   OH243626   0.822   6.349   1.946  0.0576 -0.5342 -0.2951
 7404TIP3    H143627   0.786   6.261   1.960  1.7221 -1.1234  0.5539
 7404TIP3    H243628   0.901   6.335   1.895 -1.2381  0.8174 -2.8768
 7405TIP3   OH243629   6.665   0.975  14.937 -0.4838  0.1567  0.4767
 7405TIP3    H143630   6.713   0.893  14.924  0.3266  0.6434  0.2996
 7405TIP3    H243631   6.694   1.007  15.022 -1.9809 -0.5043  1.2655
 7406TIP3   OH243632   5.602   4.222  12.945 -0.7195 -0.2262  0.1337
 7406TIP3    H143633   5.600   4.161  13.019 -1.9026  1.1173  1.2619
 7406TIP3    H243634   5.668   4.185  12.885  1.5046 -0.5094  2.5709
 7407TIP3   OH243635   0.243   2.827   1.789  0.1544  0.5115 -0.1019
 7407TIP3    H143636   0.190   2.904   1.772  0.0855  0.2283 -1.2432
 7407TIP3    H243637   0.294   2.815   1.709  0.8308 -0.1008  0.4066
 7408TIP3   OH243638   4.560   6.216  12.669 -0.2032  0.0329 -0.3570
 7408TIP3    H143639   4.586   6.139  12.719  0.5181  0.8206  0.5249
 7408TIP3    H243640   4.487   6.253  12.717 -1.7486 -1.0683 -1.7637
 7409TIP3   OH243641   0.141   1.862   5.321 -0.1896 -0.3345  0.4118
 7409TIP3    H143642   0.096   1.788   5.280 -1.1711 -0.6343  1.9406
 7409TIP3    H243643   0.234   1.841   5.312 -0.3956 -0.7525 -0.9501
 7410TIP3   OH243644   1.860   0.355   5.177  0.5783 -0.3752  0.3232
 7410TIP3    H143645   1.792   0.326   5.116 -1.0052  3.4733 -0.0126
 7410TIP3    H243646   1.941   0.322   5.140 -0.7001 -1.4815 -1.6712
 7411TIP3   OH243647   4.312   4.842   5.879  0.4689 -0.0255  0.0794
 7411TIP3    H143648   4.331   4.783   5.952  2.3416  1.8457  1.2095
 7411TIP3    H243649   4.365   4.810   5.807 -0.6708 -1.3331 -0.2075
 7412TIP3   OH243650   5.491   6.305  15.729  0.4000 -0.3360  0.3419
 7412TIP3    H143651   5.506   6.394  15.698  0.0496 -0.7068 -0.9498
 7412TIP3    H243652   5.557   6.292  15.797 -0.0289  1.1493  1.0772
 7413TIP3   OH243653   4.646   0.536  16.269  0.5326 -0.3791 -0.0433
 7413TIP3    H143654   4.597   0.540  16.351  0.1652 -0.2854 -0.2631
 7413TIP3    H243655   4.673   0.626  16.253  1.4179 -0.5552  0.4583
 7414TIP3   OH243656   4.411   1.831   5.075  0.2662 -0.2141 -0.2492
 7414TIP3    H143657   4.469   1.769   5.121 -0.1810  1.0337  2.1385
 7414TIP3    H243658   4.471   1.894   5.035  0.6666  0.5167  1.3996
 7415TIP3   OH243659   1.513   1.058   4.954 -0.2025 -0.5716  0.3661
 7415TIP3    H143660   1.460   1.136   4.937 -0.8717 -0.9652  0.5942
 7415TIP3    H243661   1.594   1.091   4.992  0.1325  0.1140 -0.9018
 7416TIP3   OH243662   1.145   5.241   1.955  0.4532 -0.5003  0.3047
 7416TIP3    H143663   1.080   5.172   1.942 -0.3360  0.2095  0.3958
 7416TIP3    H243664   1.168   5.269   1.867 -0.3093  0.0965  0.2807
 7417TIP3   OH243665   2.466   3.535  11.309  0.6725  0.1267  0.2065
 7417TIP3    H143666   2.447   3.628  11.317 -1.8198 -0.3348  0.6000
 7417TIP3    H243667   2.382   3.495  11.284  1.6049 -2.0329  0.2577
 7418TIP3   OH243668   0.410   4.144   0.828 -0.0233 -0.1349 -0.3319
 7418TIP3    H143669   0.473   4.128   0.899 -0.2121  0.8005  0.0597
 7418TIP3    H243670   0.326   4.153   0.873  0.2953  3.8045 -0.2229
 7419TIP3   OH243671   6.142   1.781  11.601 -0.2997  0.1168 -0.0747
 7419TIP3    H143672   6.222   1.802  11.649  0.3597 -1.7365 -0.2862
 7419TIP3    H243673   6.172   1.752  11.515 -1.3573  1.5442 -0.9608
 7420TIP3   OH243674   3.052   0.999  14.009 -0.0686 -0.2756  0.3880
 7420TIP3    H143675   2.958   0.986  13.995 -0.2336  0.5323  0.6586
 7420TIP3    H243676   3.071   0.952  14.090 -0.3217 -0.1381  0.5296
 7421TIP3   OH243677   1.487   1.216   0.754 -0.1537  0.4126 -0.2761
 7421TIP3    H143678   1.405   1.190   0.712  0.1765 -1.5459  0.1623
 7421TIP3    H243679   1.500   1.150   0.822  0.7347  1.8985  1.0582
 7422TIP3   OH243680   1.819   4.250  16.993 -0.0478  0.0850  0.2464
 7422TIP3    H143681   1.790   4.185  16.928 -1.1223  1.9329 -1.2191
 7422TIP3    H243682   1.844   4.326  16.941  0.0711  1.2658  1.9682
 7423TIP3   OH243683   6.346   3.693   6.352  0.0240  0.0637 -0.5783
 7423TIP3    H143684   6.433   3.730   6.341  0.1273  0.4449  1.1179
 7423TIP3    H243685   6.356   3.600   6.331  1.7766 -0.7387  2.9458
 7424TIP3   OH243686   6.482   5.197  12.675  0.4480  0.5551 -0.0594
 7424TIP3    H143687   6.473   5.260  12.746  0.0736  1.5543 -0.9767
 7424TIP3    H243688   6.573   5.168  12.680  0.3602  0.4092  0.9757
 7425TIP3   OH243689   6.271   1.219   4.284  0.8933 -0.3991 -0.2948
 7425TIP3    H143690   6.367   1.219   4.287  0.8769 -1.2714  1.5211
 7425TIP3    H243691   6.245   1.281   4.352  0.1035  2.0529 -2.6679
 7426TIP3   OH243692   1.732   1.924  11.882  0.2733 -0.2569 -0.0936
 7426TIP3    H143693   1.822   1.893  11.875  0.2105 -0.1028 -3.5574
 7426TIP3    H243694   1.703   1.933  11.791 -2.3413  2.3413  0.8358
 7427TIP3   OH243695   0.056   5.525   4.413 -0.3223  0.1348 -0.1638
 7427TIP3    H143696   0.067   5.597   4.476  1.9985  0.3799 -0.7306
 7427TIP3    H243697   0.065   5.446   4.466 -0.0823  0.3185  0.0781
 7428TIP3   OH243698   3.129   5.295   6.424  0.1670  0.1523  0.1785
 7428TIP3    H143699   3.185   5.329   6.354 -1.2584  0.6397 -0.7858
 7428TIP3    H243700   3.045   5.280   6.381 -0.0537 -1.9420  1.2416
 7429TIP3   OH243701   0.702   4.943  12.555 -0.0453  0.2956 -0.0161
 7429TIP3    H143702   0.725   4.883  12.625 -1.2332 -0.0341  0.1002
 7429TIP3    H243703   0.770   5.011  12.558 -0.7614  1.0056  2.2950
 7430TIP3   OH243704   4.504   0.472  11.156  0.0937  0.4054  0.2171
 7430TIP3    H143705   4.507   0.503  11.246 -1.7880 -1.3481  0.9566
 7430TIP3    H243706   4.416   0.492  11.126 -0.6160 -2.4263  0.1294
 7431TIP3   OH243707   5.732   4.476  16.860 -0.8949 -0.4486  0.1295
 7431TIP3    H143708   5.685   4.533  16.921 -0.1892 -0.5672  0.7942
 7431TIP3    H243709   5.816   4.459  16.903 -0.1105  0.0079 -1.1563
 7432TIP3   OH243710   1.534   2.310  14.718 -0.1757 -0.8813  0.0479
 7432TIP3    H143711   1.447   2.348  14.702 -0.5219 -1.8162 -0.3883
 7432TIP3    H243712   1.577   2.314  14.632  0.2674 -0.3326  0.2835
 7433TIP3   OH243713   6.299   4.529  17.156 -0.5461  0.7607  0.1087
 7433TIP3    H143714   6.314   4.618  17.126 -0.8463  0.6098 -0.4995
 7433TIP3    H243715   6.365   4.515  17.224  0.4021  0.9694 -0.7410
 7434TIP3   OH243716   6.514   0.695  17.036  0.4650 -0.1914  0.0045
 7434TIP3    H143717   6.494   0.780  16.998 -0.7009 -0.7701 -0.7289
 7434TIP3    H243718   6.448   0.636  16.999 -0.9473 -0.7480  3.1019
 7435TIP3   OH243719   6.159   1.179   6.242 -0.3258  0.1252 -0.9079
 7435TIP3    H143720   6.174   1.255   6.298 -0.2270  0.6215 -1.5905
 7435TIP3    H243721   6.072   1.193   6.204 -2.6498 -2.5658  2.7539
 7436TIP3   OH243722   4.026   4.674  16.145 -0.4318  0.4865 -0.4316
 7436TIP3    H143723   4.030   4.579  16.139 -1.4919  0.3994 -0.0229
 7436TIP3    H243724   4.117   4.702  16.154 -0.0886 -0.4585 -0.8675
 7437TIP3   OH243725   6.421   3.700   0.983 -0.0449 -0.0079 -0.4631
 7437TIP3    H143726   6.486   3.630   0.988  0.5622  0.3220 -2.5008
 7437TIP3    H243727   6.446   3.761   1.052 -0.0367 -1.3380  0.7471
 7438TIP3   OH243728   2.401   5.087  15.142  0.2293 -0.4739 -0.0097
 7438TIP3    H143729   2.361   5.031  15.076 -2.7125  2.4290 -0.9222
 7438TIP3    H243730   2.380   5.045  15.225 -1.1680 -1.1564 -0.6826
 7439TIP3   OH243731   1.359   4.681   0.562 -0.0396  0.1454  0.2739
 7439TIP3    H143732   1.373   4.593   0.528 -1.0062  0.1591 -0.1776
 7439TIP3    H243733   1.274   4.677   0.605 -0.1161  0.8750  0.1986
 7440TIP3   OH243734   4.323   0.185  11.766  0.4666  0.3276  0.2855
 7440TIP3    H143735   4.364   0.243  11.830  0.4509  0.0578  0.5445
 7440TIP3    H243736   4.247   0.233  11.735 -0.5977 -0.2530  1.8379
 7441TIP3   OH243737   2.696   4.538   0.835 -0.3362 -0.1066  0.3156
 7441TIP3    H143738   2.617   4.589   0.815 -0.3146 -0.3493 -0.4037
 7441TIP3    H243739   2.749   4.542   0.755 -0.3053 -1.2051  0.2593
 7442TIP3   OH243740   0.435   1.660   4.220  0.3805  0.3954 -0.1868
 7442TIP3    H143741   0.401   1.571   4.214 -0.5539  0.7888 -0.9588
 7442TIP3    H243742   0.526   1.649   4.248 -0.2563 -0.6977  1.6049
 7443TIP3   OH243743   2.904   4.128   3.352  0.4306  0.1038  0.0098
 7443TIP3    H143744   2.914   4.046   3.401 -0.5908  0.0850  0.1959
 7443TIP3    H243745   2.811   4.135   3.335  0.8436 -0.6016 -3.1862
 7444TIP3   OH243746   4.166   3.325  15.638 -0.5146  0.1672 -0.3994
 7444TIP3    H143747   4.187   3.238  15.603  0.5262  0.3702 -0.3241
 7444TIP3    H243748   4.220   3.332  15.717  2.0298  2.1210 -2.1525
 7445TIP3   OH243749   3.711   0.123  12.085  0.4533  0.3343  0.0840
 7445TIP3    H143750   3.744   0.210  12.061 -0.1342 -0.2438 -3.3148
 7445TIP3    H243751   3.766   0.062  12.035  0.4035 -1.2825  1.8659
 7446TIP3   OH243752   0.657   2.692  13.438  0.2711  0.4262 -0.2693
 7446TIP3    H143753   0.667   2.624  13.371  1.2182 -0.4320  0.6972
 7446TIP3    H243754   0.687   2.772  13.395  2.1912 -0.3525 -0.5138
 7447TIP3   OH243755   3.541   0.227  13.265 -0.7376  0.8144 -0.6015
 7447TIP3    H143756   3.538   0.163  13.194 -0.7271 -1.2213  1.1098
 7447TIP3    H243757   3.575   0.177  13.340  0.5556  3.1824  0.5154
 7448TIP3   OH243758   2.531   3.374   5.385 -0.5139  0.3321  0.3556
 7448TIP3    H143759   2.617   3.357   5.346 -0.8720 -1.0814  0.1323
 7448TIP3    H243760   2.538   3.463   5.420  1.8730 -0.5906  2.5065
 7449TIP3   OH243761   2.524   1.808   2.462  0.0947 -0.7012 -0.3856
 7449TIP3    H143762   2.443   1.756   2.464 -0.1699 -0.3759 -1.5222
 7449TIP3    H243763   2.570   1.784   2.542 -1.0520 -1.0188  0.1973
 7450TIP3   OH243764   3.977   1.696   1.265 -0.0739  0.5082  0.7953
 7450TIP3    H143765   3.918   1.621   1.260 -0.1752  0.6137  0.3709
 7450TIP3    H243766   4.011   1.706   1.177  2.2743 -0.8875  1.4736
 7451TIP3   OH243767   4.776   5.351   2.493 -0.0666  0.3518 -0.0194
 7451TIP3    H143768   4.868   5.324   2.489  0.6051  2.4863 -0.1973
 7451TIP3    H243769   4.758   5.362   2.586 -0.4288 -0.8905  0.0730
 7452TIP3   OH243770   2.641   3.951   2.705 -0.2030 -0.3549  0.3763
 7452TIP3    H143771   2.658   3.857   2.705  0.7049 -0.2087 -0.1826
 7452TIP3    H243772   2.678   3.982   2.622 -1.2819  0.3633  0.1496
 7453TIP3   OH243773   3.012   0.951  15.897  0.2060 -0.0620 -0.6624
 7453TIP3    H143774   2.968   0.892  15.836 -1.3836  1.0348 -0.6416
 7453TIP3    H243775   3.017   0.902  15.979 -2.7459  0.3509 -0.1036
 7454TIP3   OH243776   5.642   1.625  12.326 -0.1510 -0.6441  0.5928
 7454TIP3    H143777   5.577   1.694  12.318 -0.5233 -0.9793  0.7374
 7454TIP3    H243778   5.724   1.666  12.296 -0.4499 -0.2693  0.2873
 7455TIP3   OH243779   1.892   4.015  15.674 -0.0025 -0.2174  0.1167
 7455TIP3    H143780   1.963   4.008  15.610 -0.0135 -0.2200  0.1048
 7455TIP3    H243781   1.812   3.998  15.624 -0.1796  1.5649 -0.2559
 7456TIP3   OH243782   5.422   2.253   6.789 -0.1648 -0.0899 -0.0279
 7456TIP3    H143783   5.377   2.235   6.871 -0.0761 -0.8609 -0.1421
 7456TIP3    H243784   5.356   2.297   6.735 -0.5803 -0.6102  0.0475
 7457TIP3   OH243785   2.112   5.610  14.663  0.6043 -0.6425  0.1285
 7457TIP3    H143786   2.110   5.528  14.614  1.0166 -1.0561  0.7932
 7457TIP3    H243787   2.200   5.644  14.649  0.2427  0.0147 -0.6557
 7458TIP3   OH243788   6.445   2.754   3.863  0.2328 -0.1583  0.4022
 7458TIP3    H143789   6.451   2.821   3.932 -0.6878 -0.3851  0.7189
 7458TIP3    H243790   6.432   2.803   3.782 -3.3040  0.0519  0.9607
 7459TIP3   OH243791   4.923   2.381   1.240  0.3912  0.0005 -0.0746
 7459TIP3    H143792   4.901   2.291   1.264  0.9010  0.2759  1.5720
 7459TIP3    H243793   4.844   2.414   1.198 -0.4889 -0.6465  0.9981
 7460TIP3   OH243794   3.105   5.521   2.406  0.4954 -0.0528 -0.0431
 7460TIP3    H143795   3.174   5.455   2.405  0.6845  0.1316  0.5389
 7460TIP3    H243796   3.152   5.605   2.397  0.2288 -0.0133 -1.1964
 7461TIP3   OH243797   0.655   2.286  16.393 -0.3381  0.1157 -0.0128
 7461TIP3    H143798   0.683   2.337  16.469 -0.7766 -1.2737  1.1488
 7461TIP3    H243799   0.559   2.282  16.402 -0.2681 -1.4704  0.3618
 7462TIP3   OH243800   1.884   4.166   1.301  0.0189 -0.1019  0.0496
 7462TIP3    H143801   1.917   4.193   1.215 -1.7001 -0.3399 -0.7341
 7462TIP3    H243802   1.938   4.090   1.324  1.4761  0.8421 -0.1039
 7463TIP3   OH243803   6.268   1.678  16.153 -0.3888  0.2236 -0.0167
 7463TIP3    H143804   6.294   1.761  16.115 -1.5042 -0.0889 -1.5721
 7463TIP3    H243805   6.204   1.643  16.092 -0.4503 -1.4661  0.9512
 7464TIP3   OH243806   6.010   6.604  15.628  0.1456  0.8749  0.3758
 7464TIP3    H143807   6.012   6.564  15.715  0.6431  0.3778  0.1461
 7464TIP3    H243808   6.097   6.584  15.592 -0.0440  1.1211 -0.2112
 7465TIP3   OH243809   4.867   3.847  17.158 -0.1697  0.3573 -0.1017
 7465TIP3    H143810   4.840   3.763  17.195  2.2215 -0.2559  0.3881
 7465TIP3    H243811   4.884   3.902  17.235 -1.3328  1.1945 -0.4175
 7466TIP3   OH243812   2.153   2.989   0.039 -0.2737  0.1396 -0.3235
 7466TIP3    H143813   2.233   2.937   0.034 -0.1891  0.2687 -0.3180
 7466TIP3    H243814   2.136   3.017  -0.051  0.1657  0.8287 -0.1983
 7467TIP3   OH243815   6.051   2.698   2.068  0.0446 -0.9624 -0.0813
 7467TIP3    H143816   6.108   2.639   2.117 -0.5468 -0.4877  1.2563
 7467TIP3    H243817   6.021   2.648   1.993  1.0661 -1.7042  0.0001
 7468TIP3   OH243818   4.953   5.741   2.402 -0.3545  0.0591 -0.0219
 7468TIP3    H143819   4.922   5.751   2.312  0.6784  0.5492 -0.3380
 7468TIP3    H243820   4.873   5.735   2.455 -0.9690 -0.4547 -0.9891
 7469TIP3   OH243821   3.623   5.738   2.099 -0.4513  0.0497 -0.3457
 7469TIP3    H143822   3.565   5.669   2.129 -0.8133 -0.3057 -1.7865
 7469TIP3    H243823   3.678   5.758   2.175 -1.9085 -0.1498  0.8041
 7470TIP3   OH243824   4.418   3.996  16.873  0.2474 -0.6108 -0.1951
 7470TIP3    H143825   4.459   4.065  16.925 -0.2066 -0.6483  0.2188
 7470TIP3    H243826   4.461   3.915  16.900  1.6385 -0.3686 -1.5479
 7471TIP3   OH243827   6.494   1.428   4.238  0.3235  0.0802 -0.3344
 7471TIP3    H143828   6.511   1.401   4.148 -1.4994 -0.0316 -0.6816
 7471TIP3    H243829   6.409   1.472   4.235  1.0903  1.7793  1.0230
 7472TIP3   OH243830   3.925   5.614   4.038  0.3633 -0.6414  0.4763
 7472TIP3    H143831   3.834   5.592   4.018  0.1079  0.8238 -0.1218
 7472TIP3    H243832   3.919   5.695   4.089  1.3188 -0.6100  0.5551
 7473TIP3   OH243833   2.465   0.716  11.089  0.0369 -0.5826 -0.2747
 7473TIP3    H143834   2.398   0.686  11.028 -0.9528 -1.6279  1.2527
 7473TIP3    H243835   2.429   0.797  11.126 -0.1366 -0.8296  0.1103
 7474TIP3   OH243836   0.444   2.295   5.473 -0.2084 -0.0901  0.7527
 7474TIP3    H143837   0.535   2.298   5.446 -0.7130  3.2422 -1.1336
 7474TIP3    H243838   0.404   2.228   5.418  0.8081 -0.6105  0.6316
 7475TIP3   OH243839   3.559   2.793  11.453  0.3925  0.0639 -0.6338
 7475TIP3    H143840   3.602   2.708  11.446  0.3227  0.0199 -0.5251
 7475TIP3    H243841   3.630   2.855  11.465  0.3585 -0.1376  0.7469
 7476TIP3   OH243842   2.025   6.055   1.345  0.3093 -0.2505  0.4197
 7476TIP3    H143843   1.952   6.112   1.369 -0.2713 -0.4376 -0.8435
 7476TIP3    H243844   2.070   6.037   1.428 -0.3796  0.8221  1.0403
 7477TIP3   OH243845   0.355   2.610   0.357 -0.1874 -0.2910 -0.0602
 7477TIP3    H143846   0.428   2.563   0.317  0.4430  0.7377 -0.1675
 7477TIP3    H243847   0.306   2.543   0.405  1.6680 -0.7701  1.2651
 7478TIP3   OH243848   4.538   0.790   0.314 -0.3198 -0.1115 -0.1548
 7478TIP3    H143849   4.633   0.800   0.314 -0.4208  0.9370  0.3348
 7478TIP3    H243850   4.509   0.823   0.229 -0.1600 -1.5831 -0.8198
 7479TIP3   OH243851   6.447   0.933  16.544  0.3319  0.2931 -0.2284
 7479TIP3    H143852   6.451   1.025  16.568  1.5209  1.5002 -4.2266
 7479TIP3    H243853   6.353   0.913  16.541  0.0853  0.9341  1.7966
 7480TIP3   OH243854   4.243   5.448   0.605 -0.2284  0.1150  0.1886
 7480TIP3    H143855   4.187   5.488   0.539 -1.5199 -0.4981  0.8774
 7480TIP3    H243856   4.183   5.408   0.667  0.9734 -1.3337  0.4997
 7481TIP3   OH243857   6.474   2.170  14.744  0.2835 -0.3806  0.3878
 7481TIP3    H143858   6.477   2.170  14.649 -0.0384  2.0482  0.3235
 7481TIP3    H243859   6.453   2.080  14.768  0.3046 -1.0122 -1.8248
 7482TIP3   OH243860   1.881   6.168  10.725 -0.3350  0.2200 -0.2094
 7482TIP3    H143861   1.884   6.076  10.701 -1.5561  0.2791 -0.6516
 7482TIP3    H243862   1.898   6.215  10.643  1.6727  0.4147  0.2626
 7483TIP3   OH243863   0.254   0.282  11.842 -0.2850 -0.4137  0.0822
 7483TIP3    H143864   0.251   0.362  11.789 -0.7625  0.3336  1.1753
 7483TIP3    H243865   0.163   0.253  11.847  0.0131 -1.6046 -1.1233
 7484TIP3   OH243866   1.935   2.974  16.545  0.9467  0.0478  0.0294
 7484TIP3    H143867   1.918   2.880  16.536  1.0134 -0.0324  0.7063
 7484TIP3    H243868   1.879   3.015  16.480 -1.1814 -0.2764  1.5733
 7485TIP3   OH243869   6.447   4.609   6.516 -0.2462 -0.3919 -0.1323
 7485TIP3    H143870   6.489   4.650   6.592  0.8587  0.3387 -1.1178
 7485TIP3    H243871   6.365   4.573   6.551  0.4101 -0.4001  1.4827
 7486TIP3   OH243872   2.245   6.041   2.037  0.6920 -0.2781  0.1716
 7486TIP3    H143873   2.239   6.002   1.950 -1.9145 -0.4950  0.3734
 7486TIP3    H243874   2.234   5.967   2.097 -4.0798  0.4525  0.5574
 7487TIP3   OH243875   1.760   1.308  16.042  0.2424  0.5123  0.2299
 7487TIP3    H143876   1.736   1.262  15.962 -1.1601 -0.1361  0.9684
 7487TIP3    H243877   1.710   1.389  16.039  0.2970  0.5521  0.3805
 7488TIP3   OH243878   5.047   3.009  14.206  0.8273 -0.0127  0.0202
 7488TIP3    H143879   4.963   3.033  14.246  0.8441 -1.4477  1.0300
 7488TIP3    H243880   5.110   3.070  14.244  0.2862  1.0232 -0.6822
 7489TIP3   OH243881   5.333   1.302   0.606 -0.4091  0.0495  0.9761
 7489TIP3    H143882   5.332   1.309   0.701 -0.6973 -2.3517  1.2097
 7489TIP3    H243883   5.416   1.259   0.585 -1.9496 -2.9263  0.5394
 7490TIP3   OH243884   0.563   2.484  17.147  0.3603 -0.4865  0.0141
 7490TIP3    H143885   0.488   2.459  17.200  0.3964  1.1193  0.8663
 7490TIP3    H243886   0.618   2.405  17.145 -0.9621 -1.4534 -0.0298
 7491TIP3   OH243887   3.155   6.416  14.277  0.3584  0.1746  0.4964
 7491TIP3    H143888   3.126   6.335  14.235  1.0343 -1.2347  2.5753
 7491TIP3    H243889   3.174   6.475  14.205 -1.7441 -0.9170 -1.0732
 7492TIP3   OH243890   2.123   5.439  15.536 -0.4443 -0.6005 -0.2958
 7492TIP3    H143891   2.052   5.463  15.596 -0.8526 -1.5149 -0.4046
 7492TIP3    H243892   2.089   5.461  15.449 -0.3112 -0.3827 -0.2952
 7493TIP3   OH243893   5.012   2.533   0.114 -0.5746  0.7583 -0.4452
 7493TIP3    H143894   5.079   2.492   0.170  0.9699  2.3567 -1.0236
 7493TIP3    H243895   5.062   2.592   0.057 -2.4586  1.6992 -1.1917
 7494TIP3   OH243896   6.242   3.384   5.788 -0.1639  0.4011 -0.8178
 7494TIP3    H143897   6.253   3.291   5.769 -1.9028  0.1397 -0.6883
 7494TIP3    H243898   6.213   3.387   5.879  2.8201  1.3182  0.2199
 7495TIP3   OH243899   2.216   0.679  15.096  0.3191  0.2075  0.0460
 7495TIP3    H143900   2.213   0.670  15.191 -1.1516  1.4432  0.1679
 7495TIP3    H243901   2.147   0.743  15.076  1.3096  0.7814 -1.7582
 7496TIP3   OH243902   3.500   0.642   2.405  0.1123  0.2223 -0.0378
 7496TIP3    H143903   3.555   0.691   2.344  0.6441  0.4016  0.5784
 7496TIP3    H243904   3.462   0.709   2.462 -0.9942  0.1337 -0.6423
 7497TIP3   OH243905   3.624   6.145  13.449  0.0365 -0.1617  0.2035
 7497TIP3    H143906   3.627   6.164  13.355  1.7239 -2.5931 -0.3339
 7497TIP3    H243907   3.688   6.204  13.487  0.6102 -0.3434 -0.4526
 7498TIP3   OH243908   5.807   1.087  15.739 -0.1726 -0.1737 -0.7724
 7498TIP3    H143909   5.892   1.126  15.723 -1.6294  3.3278 -0.8179
 7498TIP3    H243910   5.764   1.085  15.653 -1.7500  2.5443 -0.1487
 7499TIP3   OH243911   6.502   0.193   2.196  0.0881  0.5768  0.3287
 7499TIP3    H143912   6.463   0.114   2.234  0.9675  1.2041  2.7240
 7499TIP3    H243913   6.556   0.228   2.266  1.7052  1.9629 -1.5195
 7500TIP3   OH243914   1.405   1.202  14.003  0.4543  0.2994  0.4834
 7500TIP3    H143915   1.388   1.117  13.964  0.9151  0.6039 -0.4166
 7500TIP3    H243916   1.399   1.187  14.097  0.4429 -0.7001  0.3335
 7501TIP3   OH243917   1.312   6.514  13.954 -0.5366  0.2515 -0.0908
 7501TIP3    H143918   1.217   6.529  13.958 -0.7070 -0.8063  0.5343
 7501TIP3    H243919   1.327   6.448  14.023  0.2642 -1.4620 -1.8170
 7502TIP3   OH243920   4.920   0.888  15.658  0.7739 -0.1096 -0.7101
 7502TIP3    H143921   4.910   0.957  15.723 -0.0495 -1.3947  0.6190
 7502TIP3    H243922   4.998   0.911  15.609 -0.7599  3.0355 -1.9809
 7503TIP3   OH243923   1.313   1.578   4.813 -0.2934 -0.3281  0.1854
 7503TIP3    H143924   1.308   1.499   4.866 -1.4862 -0.7934 -0.5869
 7503TIP3    H243925   1.307   1.548   4.722 -1.9034  0.7081 -0.0857
 7504TIP3   OH243926   2.099   3.494   0.002  0.3488  0.3755 -0.3154
 7504TIP3    H143927   2.161   3.474  -0.069 -0.1972  1.4304 -1.1297
 7504TIP3    H243928   2.044   3.417   0.008  1.5042 -0.4342  0.1729
 7505TIP3   OH243929   5.164   2.634  15.608 -0.8364 -0.3094 -0.0323
 7505TIP3    H143930   5.101   2.576  15.564 -1.4254  0.5341 -0.3217
 7505TIP3    H243931   5.247   2.617  15.563 -1.6201  1.3105 -2.3216
 7506TIP3   OH243932   2.176   5.089  12.953 -0.1876  0.7420  0.2447
 7506TIP3    H143933   2.158   5.076  12.860 -1.1233 -1.1288  0.6398
 7506TIP3    H243934   2.090   5.084  12.995  0.3870 -0.3464  1.3727
 7507TIP3   OH243935   5.538   3.283   1.193  0.2722  0.1319 -0.0734
 7507TIP3    H143936   5.499   3.363   1.229 -1.0105 -1.3890  2.2235
 7507TIP3    H243937   5.477   3.256   1.124  0.5605  0.9557 -0.6640
 7508TIP3   OH243938   3.776   3.088   2.377  0.3069  0.4838 -0.0315
 7508TIP3    H143939   3.832   3.013   2.355 -0.2784 -0.2789  0.9789
 7508TIP3    H243940   3.790   3.150   2.306  0.5725 -0.7180 -1.0636
 7509TIP3   OH243941   4.640   2.156   3.466  0.5572 -0.0227 -0.0190
 7509TIP3    H143942   4.549   2.177   3.489  1.0021  1.3955  0.5737
 7509TIP3    H243943   4.636   2.136   3.372 -0.0911  2.0843 -0.4997
 7510TIP3   OH243944   5.056   3.766   1.059 -0.4115 -0.2513 -0.0037
 7510TIP3    H143945   5.092   3.681   1.084 -0.7075 -0.3923 -0.0547
 7510TIP3    H243946   5.051   3.763   0.963 -2.1722 -0.9080  0.0668
 7511TIP3   OH243947   3.180   0.273   4.805 -0.6620 -0.4225  0.3347
 7511TIP3    H143948   3.129   0.266   4.886 -1.6091  0.4004 -0.1744
 7511TIP3    H243949   3.121   0.316   4.743  0.5688  0.3301 -0.3520
 7512TIP3   OH243950   0.688   3.928  12.884  0.5871 -0.4267 -0.4554
 7512TIP3    H143951   0.772   3.972  12.899  0.3594  0.6741 -2.1432
 7512TIP3    H243952   0.696   3.890  12.796 -0.5217 -0.7132 -0.4501
 7513TIP3   OH243953   6.683   5.742  12.244 -0.4649  0.4211 -0.5232
 7513TIP3    H143954   6.593   5.751  12.214 -1.4676 -3.3144  0.8043
 7513TIP3    H243955   6.698   5.818  12.300 -2.6386  1.2791 -1.0178
 7514TIP3   OH243956   4.944   3.148  16.789  0.8351  0.6435  0.1037
 7514TIP3    H143957   4.911   3.112  16.872  0.1987  0.4666 -0.2176
 7514TIP3    H243958   4.904   3.093  16.721  0.6003  1.3616 -0.3540
 7515TIP3   OH243959   2.458   1.285  16.128  0.3314  0.7705  0.2325
 7515TIP3    H143960   2.485   1.252  16.213  1.1953  0.9608  0.0417
 7515TIP3    H243961   2.440   1.206  16.076  0.2731  0.6448  0.4442
 7516TIP3   OH243962   5.647   3.205  13.117  0.5687 -0.7263 -0.0210
 7516TIP3    H143963   5.587   3.271  13.151  1.0340 -0.8116  1.0132
 7516TIP3    H243964   5.733   3.233  13.147  1.2084 -0.1254 -2.2308
 7517TIP3   OH243965   4.019   5.382   1.064 -0.1911  0.1993 -0.0976
 7517TIP3    H143966   3.991   5.393   1.155 -0.2461  0.1655 -0.1104
 7517TIP3    H243967   3.968   5.448   1.016 -1.5667 -1.0170 -0.3875
 7518TIP3   OH243968   2.573   2.524  14.915 -0.0774 -0.2379 -0.5413
 7518TIP3    H143969   2.565   2.537  15.010 -0.2799 -1.0146 -0.4500
 7518TIP3    H243970   2.568   2.430  14.903 -1.9138 -0.0550 -1.5020
 7519TIP3   OH243971   1.368   4.591   5.532 -0.2805  0.4451  0.2129
 7519TIP3    H143972   1.337   4.653   5.599  0.5430  0.0433  0.9879
 7519TIP3    H243973   1.405   4.518   5.583 -0.2485 -0.1786 -0.6879
 7520TIP3   OH243974   1.100   2.526   3.300  0.6944  0.0567  0.9435
 7520TIP3    H143975   1.146   2.540   3.217  1.2907 -1.9177  0.8855
 7520TIP3    H243976   1.008   2.536   3.279  0.9072  1.0199  0.3860
 7521TIP3   OH243977   4.474   1.816  15.563  0.7801  0.8611 -0.5140
 7521TIP3    H143978   4.456   1.852  15.476 -1.5064 -2.7118 -1.7386
 7521TIP3    H243979   4.412   1.861  15.621 -0.3553  0.6298 -1.5119
 7522TIP3   OH243980   6.574   5.819  17.088 -0.1278 -0.0621  0.0542
 7522TIP3    H143981   6.534   5.906  17.080  0.6336  0.1756 -1.4482
 7522TIP3    H243982   6.501   5.758  17.083 -0.4930  0.4330 -0.9214
 7523TIP3   OH243983   6.553   4.671  14.296  0.0497  0.5111 -0.3486
 7523TIP3    H143984   6.505   4.594  14.328  1.4161 -0.8848 -1.5178
 7523TIP3    H243985   6.529   4.740  14.357 -0.9897 -0.9087  0.9453
 7524TIP3   OH243986   6.385   4.067  13.362 -0.4133 -0.5294  0.7540
 7524TIP3    H143987   6.346   3.986  13.329  0.5602 -0.4316 -0.7311
 7524TIP3    H243988   6.408   4.116  13.283 -0.0656  0.7439  1.6235
 7525TIP3   OH243989   2.595   5.134  14.300 -0.1074  0.1558  0.1607
 7525TIP3    H143990   2.623   5.147  14.390 -0.4677  0.8590  0.1785
 7525TIP3    H243991   2.518   5.078  14.306  1.2662 -1.8620  0.1089
 7526TIP3   OH243992   3.763   6.681  15.971  0.1802 -0.0624  0.0100
 7526TIP3    H143993   3.834   6.744  15.960 -0.1858 -0.0160 -2.5028
 7526TIP3    H243994   3.731   6.665  15.883 -0.1826 -3.2797  0.6208
 7527TIP3   OH243995   4.776   4.019   4.052 -0.2395  0.7554  0.2380
 7527TIP3    H143996   4.853   3.978   4.013 -1.0174  0.2872 -0.8478
 7527TIP3    H243997   4.808   4.103   4.084  0.8375  0.3472  0.2940
 7528TIP3   OH243998   5.194   0.513  16.228 -0.3327 -0.0885  0.1204
 7528TIP3    H143999   5.138   0.550  16.161 -0.4431  0.0174  0.2699
 7528TIP3    H244000   5.135   0.462  16.283 -0.2345 -0.2179  0.1043
 7529TIP3   OH244001   4.553   5.479   1.310  0.6811 -0.0490 -0.0945
 7529TIP3    H144002   4.492   5.541   1.269  0.5807 -0.2048 -0.1825
 7529TIP3    H244003   4.639   5.510   1.284  0.6423  0.2096  0.0821
 7530TIP3   OH244004   0.375   4.801   3.837 -0.4013  0.1164 -0.6663
 7530TIP3    H144005   0.302   4.859   3.859  0.9360  1.2650  0.9794
 7530TIP3    H244006   0.411   4.774   3.922  0.9171 -0.6379 -1.4313
 7531TIP3   OH244007   1.829   0.953  16.763  0.7563  0.3245 -0.0672
 7531TIP3    H144008   1.870   1.039  16.749 -0.7315  1.5059  2.2109
 7531TIP3    H244009   1.834   0.939  16.857 -0.3658 -1.4227 -0.2189
 7532TIP3   OH244010   0.001   0.090  13.747  0.6964  0.2730 -0.2708
 7532TIP3    H144011  -0.012   0.183  13.734  2.1245  1.1023  3.1254
 7532TIP3    H244012   0.096   0.080  13.758  0.6364 -1.6972 -1.0383
 7533TIP3   OH244013   2.196   6.211  15.528 -0.0526  0.0899  0.2101
 7533TIP3    H144014   2.292   6.213  15.533 -0.0533 -0.2963  0.4630
 7533TIP3    H244015   2.168   6.193  15.618 -0.3498 -0.1192  0.0762
 7534TIP3   OH244016   3.939   3.676  15.821 -0.1283 -0.5498 -0.4669
 7534TIP3    H144017   4.001   3.606  15.842  0.8222 -0.0000 -1.3538
 7534TIP3    H244018   3.994   3.750  15.797 -1.1148  0.4362  0.1845
 7535TIP3   OH244019   6.628   5.683   4.193 -0.1125 -0.2515 -0.2098
 7535TIP3    H144020   6.618   5.777   4.180 -1.4610 -0.4340 -0.7266
 7535TIP3    H244021   6.560   5.644   4.138  1.8541 -1.6534 -1.8155
 7536TIP3   OH244022   5.350   5.519   5.986  0.2775 -0.0094  0.1924
 7536TIP3    H144023   5.407   5.462   5.934  0.5619  0.6776 -0.2704
 7536TIP3    H244024   5.323   5.465   6.060  1.1841 -0.4924  0.1886
 7537TIP3   OH244025   6.412   4.192  12.318 -0.1314  0.3668 -0.0057
 7537TIP3    H144026   6.493   4.242  12.317 -0.2047  0.6049  1.7981
 7537TIP3    H244027   6.344   4.255  12.299  0.0054  0.4045 -0.3723
 7538TIP3   OH244028   2.444   1.822  13.794 -0.2008 -0.1282 -0.3147
 7538TIP3    H144029   2.372   1.761  13.783  0.0275 -0.5121  0.2990
 7538TIP3    H244030   2.519   1.767  13.818 -0.1888  0.4631  1.0794
 7539TIP3   OH244031   6.431   1.070  17.210 -0.0543 -0.6632  0.3290
 7539TIP3    H144032   6.393   1.152  17.242 -1.2959 -0.5691 -1.2398
 7539TIP3    H244033   6.484   1.097  17.135  0.6702 -1.1460  0.6635
 7540TIP3   OH244034   1.307   0.731   4.744 -0.0644 -0.1957  0.3965
 7540TIP3    H144035   1.232   0.684   4.709  0.3546 -1.4667  1.1475
 7540TIP3    H244036   1.377   0.715   4.681  0.1174 -0.7124  0.7255
 7541TIP3   OH244037   4.366   5.927  13.832 -0.5247  0.3698  0.7666
 7541TIP3    H144038   4.384   5.966  13.917  0.2144  2.4139 -0.2420
 7541TIP3    H244039   4.313   5.993  13.786  1.1637  0.4501 -1.2156
 7542TIP3   OH244040   1.832   1.753  15.712  0.4096 -0.5312 -0.0806
 7542TIP3    H144041   1.838   1.688  15.642  1.7098 -1.2964  0.7017
 7542TIP3    H244042   1.853   1.836  15.669 -1.7200 -0.4942 -1.1911
 7543TIP3   OH244043   1.098   1.629  13.863  0.3932  0.5685 -0.0331
 7543TIP3    H144044   1.097   1.545  13.909  0.8793  0.8703  0.5431
 7543TIP3    H244045   1.093   1.605  13.770 -0.3108 -0.0594  0.1532
 7544TIP3   OH244046   0.965   3.071   5.503  0.2777 -0.9858 -0.0136
 7544TIP3    H144047   1.033   3.081   5.570  0.4151  0.9568 -0.3781
 7544TIP3    H244048   0.883   3.086   5.549  0.3269 -0.2951 -0.1416
 7545TIP3   OH244049   6.606   1.482  14.505 -0.0762  0.2420 -0.2417
 7545TIP3    H144050   6.697   1.461  14.522 -0.1184  1.0235  1.0749
 7545TIP3    H244051   6.610   1.565  14.456 -0.0929  0.7092  0.5382
 7546TIP3   OH244052   0.333   5.015   4.530  0.9405  0.1038  0.6191
 7546TIP3    H144053   0.347   5.106   4.554  1.1658  0.1565  0.2946
 7546TIP3    H244054   0.418   4.984   4.498  1.0755 -0.4606  1.4865
 7547TIP3   OH244055   1.216   1.266  11.505 -0.1828 -0.1759 -0.5526
 7547TIP3    H144056   1.231   1.181  11.547  2.1923  0.3053 -0.2816
 7547TIP3    H244057   1.302   1.292  11.470 -1.3029  1.1476 -2.5200
 7548TIP3   OH244058   2.594   0.183  13.327 -0.3336 -0.6188 -0.4813
 7548TIP3    H144059   2.504   0.155  13.339 -0.0085 -1.1170  0.9784
 7548TIP3    H244060   2.599   0.209  13.235 -2.0171 -0.3322 -0.5182
 7549TIP3   OH244061   2.637   4.076   3.614  0.7128  0.0337  0.2141
 7549TIP3    H144062   2.613   4.034   3.531 -1.5080  0.9046  0.3443
 7549TIP3    H244063   2.598   4.163   3.609 -1.2090 -0.5344  2.9144
 7550TIP3   OH244064   5.393   5.098   3.385 -0.3145  0.0170  0.2884
 7550TIP3    H144065   5.474   5.071   3.341  1.6118  1.8293  2.5141
 7550TIP3    H244066   5.380   5.188   3.358 -0.5254  0.3309  1.3985
 7551TIP3   OH244067   0.827   1.549  15.808 -0.0296  0.2854  0.6440
 7551TIP3    H144068   0.845   1.532  15.900 -1.4291 -0.8717  0.7352
 7551TIP3    H244069   0.878   1.484  15.761 -0.3959 -0.0422  0.6892
 7552TIP3   OH244070   6.403   2.451   3.050 -0.1319 -0.3446 -0.1720
 7552TIP3    H144071   6.401   2.380   3.114 -0.5371 -0.0070  0.1911
 7552TIP3    H244072   6.419   2.406   2.966  1.7773 -0.6609  0.3178
 7553TIP3   OH244073   6.021   0.465   2.780  0.4531 -0.4783  0.1264
 7553TIP3    H144074   5.981   0.418   2.853 -0.6891  1.7506  1.0285
 7553TIP3    H244075   6.099   0.506   2.818 -0.1066  0.6327  0.1149
 7554TIP3   OH244076   3.457   4.565  11.971  0.7531 -0.0342  0.2337
 7554TIP3    H144077   3.482   4.647  12.014 -0.9373  0.6525 -0.0191
 7554TIP3    H244078   3.525   4.551  11.906  1.1180  1.1373  0.3315
 7555TIP3   OH244079   0.567   3.355  15.758  0.1515 -0.2086 -0.2140
 7555TIP3    H144080   0.557   3.375  15.665  1.0603  2.4681  0.1698
 7555TIP3    H244081   0.477   3.344  15.791 -0.2724  0.4804 -1.1065
 7556TIP3   OH244082   0.705   1.066   0.296 -0.4805  0.4041 -0.0559
 7556TIP3    H144083   0.729   1.143   0.347 -0.7203 -0.9255  2.1557
 7556TIP3    H244084   0.610   1.071   0.288 -0.5531  0.0653  0.5632
 7557TIP3   OH244085   4.622   0.853   1.645 -0.1135 -0.8166  0.2612
 7557TIP3    H144086   4.694   0.917   1.645  0.0479 -0.9992  0.5355
 7557TIP3    H244087   4.627   0.812   1.731 -2.0385  0.8567  1.2557
 7558TIP3   OH244088   6.274   4.100  13.813 -0.0298  0.4174 -0.0621
 7558TIP3    H144089   6.183   4.075  13.800 -1.2023  3.8692  0.4789
 7558TIP3    H244090   6.307   4.115  13.724  0.3831 -1.6754 -0.3216
 7559TIP3   OH244091   2.182   6.327   3.015  0.1992  0.6619 -0.0857
 7559TIP3    H144092   2.221   6.393   2.957  0.3419  0.0776 -0.6638
 7559TIP3    H244093   2.214   6.244   2.981  0.9807  0.3447  1.3510
 7560TIP3   OH244094   2.996   5.424  14.738 -0.1214 -0.2576 -0.4270
 7560TIP3    H144095   2.936   5.395  14.807  1.1820 -0.5003  0.6293
 7560TIP3    H244096   2.945   5.414  14.658 -1.5915 -0.2022  0.4579
 7561TIP3   OH244097   6.107   0.339   3.106  0.1168  0.0881 -0.4673
 7561TIP3    H144098   6.157   0.406   3.060 -1.8318  0.4485 -2.1774
 7561TIP3    H244099   6.090   0.377   3.192 -1.3968  2.1134 -1.5597
 7562TIP3   OH244100   1.012   5.610   1.523  0.2305  0.5095 -0.0261
 7562TIP3    H144101   0.924   5.629   1.492 -0.7691  2.1338  3.3485
 7562TIP3    H244102   1.001   5.537   1.584  2.1093 -2.6120 -3.0369
 7563TIP3   OH244103   0.112   6.387  11.866 -0.0237  0.6193  0.2044
 7563TIP3    H144104   0.179   6.447  11.898  0.3410  0.6369 -0.5734
 7563TIP3    H244105   0.096   6.415  11.776  0.8394 -1.0100 -0.5047
 7564TIP3   OH244106   0.171   4.359  13.150 -0.2084  0.4664 -0.1608
 7564TIP3    H144107   0.176   4.421  13.077 -0.4580  1.4973  0.6573
 7564TIP3    H244108   0.188   4.413  13.227  0.8290 -0.7394  0.4885
 7565TIP3   OH244109   5.185   2.615  12.537  0.0181 -0.5571  0.3925
 7565TIP3    H144110   5.198   2.522  12.553 -0.6316 -0.4578  1.6285
 7565TIP3    H244111   5.272   2.648  12.513 -0.0804 -1.7960 -1.9763
 7566TIP3   OH244112   0.446   2.626  15.147  0.3535 -0.0843 -0.3098
 7566TIP3    H144113   0.366   2.665  15.183  0.6952  0.4367 -0.1125
 7566TIP3    H244114   0.451   2.540  15.189  0.0632  0.0078 -0.0846
 7567TIP3   OH244115   2.264   2.754  12.646  0.6678 -0.5330  0.3870
 7567TIP3    H144116   2.325   2.685  12.671 -1.1559 -2.0290  0.9764
 7567TIP3    H244117   2.296   2.786  12.562  0.8027 -3.1310 -0.6417
 7568TIP3   OH244118   3.116   2.806  11.622  0.1091  0.6662  0.1477
 7568TIP3    H144119   3.030   2.765  11.611 -0.0293  1.5678 -4.0760
 7568TIP3    H244120   3.174   2.734  11.647 -1.0356 -1.1815 -2.0404
 7569TIP3   OH244121   0.191   4.800   5.437 -0.3402  0.0593  0.1224
 7569TIP3    H144122   0.198   4.706   5.447 -0.3932 -0.0886 -1.0434
 7569TIP3    H244123   0.266   4.824   5.383 -0.8095  0.5443 -0.3302
 7570TIP3   OH244124   6.672   5.536   3.692  0.0143  0.0367 -0.1702
 7570TIP3    H144125   6.596   5.571   3.646 -0.8872 -0.8739  0.5801
 7570TIP3    H244126   6.678   5.445   3.664  0.3943 -0.0982  0.3305
 7571TIP3   OH244127   3.412   0.509   6.239 -0.0683 -0.1218 -0.0150
 7571TIP3    H144128   3.332   0.527   6.289  0.8995  1.5636  1.0293
 7571TIP3    H244129   3.474   0.574   6.270  0.6003  1.1068 -3.5030
 7572TIP3   OH244130   5.839   4.890   3.902 -0.4968 -0.0447 -0.0789
 7572TIP3    H144131   5.844   4.802   3.866 -0.6408  0.0649 -0.3736
 7572TIP3    H244132   5.765   4.887   3.962 -0.7777 -0.0106 -0.4193
 7573TIP3   OH244133   5.932   0.063   2.122  0.3062  0.2320  0.4089
 7573TIP3    H144134   5.836   0.055   2.117  0.1860  1.8925 -0.8864
 7573TIP3    H244135   5.963  -0.027   2.127 -1.3313 -0.3320  1.4182
 7574TIP3   OH244136   5.885   6.228  15.639 -0.8617 -0.2310  0.3271
 7574TIP3    H144137   5.807   6.254  15.591 -0.0336  0.4520 -0.6968
 7574TIP3    H244138   5.886   6.286  15.716  0.3467  2.1646 -1.3402
 7575TIP3   OH244139   4.795   3.463   2.051 -0.2661 -0.3234 -0.0414
 7575TIP3    H144140   4.735   3.485   1.980 -0.0754 -1.6522 -0.6422
 7575TIP3    H244141   4.879   3.446   2.008  0.1877  0.1426  0.6422
 7576TIP3   OH244142   2.488   6.327  13.495  0.2689 -0.2992 -0.1185
 7576TIP3    H144143   2.446   6.337  13.581  2.1288  1.7952  0.6388
 7576TIP3    H244144   2.581   6.336  13.512  0.7955 -1.0247 -2.2433
 7577TIP3   OH244145   3.738   6.600   2.143 -0.1751 -0.8091  1.0818
 7577TIP3    H144146   3.784   6.569   2.065 -1.5078 -0.8041  0.2605
 7577TIP3    H244147   3.716   6.691   2.123  1.5239 -0.0110  2.4612
 7578TIP3   OH244148   2.049   3.489  14.278 -0.0427 -0.2267  0.0889
 7578TIP3    H144149   2.056   3.564  14.337  1.0113  0.3334 -0.7091
 7578TIP3    H244150   2.001   3.524  14.202  1.3073 -0.0448 -0.7217
 7579TIP3   OH244151   1.652   2.086   1.332  0.2851  0.6555  0.0740
 7579TIP3    H144152   1.715   2.095   1.403 -1.4739  2.9684  1.5005
 7579TIP3    H244153   1.575   2.046   1.372 -0.2054  0.5787 -0.9119
 7580TIP3   OH244154   3.827   4.499   1.325  0.1098 -0.1579  0.3401
 7580TIP3    H144155   3.901   4.472   1.271 -0.7622  0.3844 -1.1932
 7580TIP3    H244156   3.852   4.475   1.414  1.9844 -0.2596 -0.1754
 7581TIP3   OH244157   0.969   6.764   2.171  0.2521  0.0117  0.5997
 7581TIP3    H144158   1.024   6.785   2.095 -0.2297  0.6090  0.4041
 7581TIP3    H244159   0.956   6.670   2.166 -1.6237  0.3124 -1.3538
 7582TIP3   OH244160   3.006   1.716  14.690  0.0585  0.1153  0.0504
 7582TIP3    H144161   2.948   1.791  14.677  0.6803  0.2908 -2.1695
 7582TIP3    H244162   3.094   1.753  14.683  0.3723 -0.9361 -2.3135
 7583TIP3   OH244163   4.895   4.760   4.982  0.3199 -0.0202  0.2587
 7583TIP3    H144164   4.966   4.731   4.924 -0.7374 -0.1407 -1.0306
 7583TIP3    H244165   4.894   4.694   5.051  0.2851 -1.0837 -0.7065
 7584TIP3   OH244166   4.941   5.613  15.050 -0.1455 -0.4040 -0.2330
 7584TIP3    H144167   4.872   5.673  15.079 -0.3353 -0.4280 -0.6358
 7584TIP3    H244168   4.898   5.553  14.990 -0.0819 -1.3104  0.6038
 7585TIP3   OH244169   6.450   5.520   5.890 -0.1157 -0.7147 -0.0335
 7585TIP3    H144170   6.484   5.582   5.824  0.7077 -0.9380  0.1725
 7585TIP3    H244171   6.473   5.434   5.856  0.1566 -0.8398  0.4568
 7586TIP3   OH244172   2.905   2.091   1.092 -0.1659 -0.0415 -0.6619
 7586TIP3    H144173   2.849   2.114   1.166  0.4790  1.1452 -0.5132
 7586TIP3    H244174   2.868   2.139   1.018 -0.4414 -0.7272 -0.9690
 7587TIP3   OH244175   3.850   2.439  13.737  0.7921  0.8426 -0.9107
 7587TIP3    H144176   3.806   2.363  13.775 -2.5269  2.0860 -1.8346
 7587TIP3    H244177   3.942   2.428  13.759  0.6397 -3.8143 -1.7075
 7588TIP3   OH244178   4.590   1.292   5.401 -0.1218  0.0002 -0.4448
 7588TIP3    H144179   4.677   1.313   5.433  0.2139 -2.2267  0.3190
 7588TIP3    H244180   4.531   1.341   5.458  0.5964 -0.0257  0.3490
 7589TIP3   OH244181   5.195   0.555   2.386  0.4714  0.3403  0.1298
 7589TIP3    H144182   5.125   0.571   2.449  1.4107 -1.0189  1.5714
 7589TIP3    H244183   5.204   0.460   2.383 -1.0396  0.0847 -3.8056
 7590TIP3   OH244184   0.028   1.371  10.711  0.1691  0.1455  0.1435
 7590TIP3    H144185  -0.043   1.311  10.732  1.7276 -2.0876 -0.6037
 7590TIP3    H244186  -0.004   1.419  10.635 -0.4414 -1.0396 -0.3800
 7591TIP3   OH244187   1.242   3.782   1.981 -0.4468 -0.2084 -0.2877
 7591TIP3    H144188   1.334   3.760   1.964 -0.5876 -1.2772  0.2720
 7591TIP3    H244189   1.222   3.850   1.917 -0.6202 -3.1846 -3.6957
 7592TIP3   OH244190   4.594   3.728   3.629 -0.2060 -0.1681 -0.3984
 7592TIP3    H144191   4.565   3.793   3.566 -0.5173 -0.9161 -1.0346
 7592TIP3    H244192   4.634   3.779   3.700 -1.3788  0.7620 -0.3913
 7593TIP3   OH244193   5.316   1.103   1.040  0.2200 -0.3703  0.4522
 7593TIP3    H144194   5.368   1.084   0.962  1.0416 -2.4316  1.4270
 7593TIP3    H244195   5.300   1.198   1.036  0.9764 -0.2912 -1.7318
 7594TIP3   OH244196   1.043   2.392   5.991 -0.3816  0.0497  0.1521
 7594TIP3    H144197   1.111   2.382   6.058 -0.7075 -1.8213  0.2727
 7594TIP3    H244198   1.079   2.349   5.914 -1.3049 -0.7908  0.1583
 7595TIP3   OH244199   2.601   2.957  12.817 -0.3329 -0.9896  0.0230
 7595TIP3    H144200   2.608   3.019  12.745  1.4587 -1.4681 -0.2520
 7595TIP3    H244201   2.514   2.917  12.806 -1.2174  0.8953 -0.2104
 7596TIP3   OH244202   0.076   4.917  10.223 -0.7245  0.1338 -0.3273
 7596TIP3    H144203   0.060   4.963  10.305  0.2360 -0.6259  0.2976
 7596TIP3    H244204   0.003   4.856  10.215 -0.1516 -0.7047  0.6327
 7597TIP3   OH244205   3.157   1.575  15.846  0.4679 -0.0973 -0.4609
 7597TIP3    H144206   3.109   1.496  15.823  0.9989 -0.4166 -0.4848
 7597TIP3    H244207   3.122   1.600  15.932 -0.7908  0.5255 -1.1359
 7598TIP3   OH244208   1.859   3.504  11.064 -0.1721  0.5682  0.9506
 7598TIP3    H144209   1.840   3.446  11.138  0.5425 -0.6924  0.1785
 7598TIP3    H244210   1.944   3.474  11.031 -0.6661  0.8207 -0.6304
 7599TIP3   OH244211   6.340   3.194  10.709 -0.6684 -0.0789 -0.1138
 7599TIP3    H144212   6.296   3.127  10.657 -1.3353  0.4173 -0.2072
 7599TIP3    H244213   6.415   3.219  10.656 -1.6649  0.8424 -1.1570
 7600TIP3   OH244214   3.662   6.580  16.456 -0.9471 -0.5245  0.8567
 7600TIP3    H144215   3.725   6.508  16.463 -0.3177  0.0539  1.1227
 7600TIP3    H244216   3.592   6.544  16.400  0.5647 -0.5183 -1.1471
 7601TIP3   OH244217   0.252   0.694  13.782 -0.3130 -0.3743 -0.1269
 7601TIP3    H144218   0.306   0.622  13.749  0.9698  0.9209 -0.9847
 7601TIP3    H244219   0.316   0.760  13.810 -1.4603  0.6814  0.0668
 7602TIP3   OH244220   3.285   0.547  11.509 -1.1323 -0.0258  0.0041
 7602TIP3    H144221   3.333   0.517  11.432  1.0359  1.4699  0.6727
 7602TIP3    H244222   3.240   0.627  11.481 -2.0184 -0.5738 -0.1985
 7603TIP3   OH244223   2.762   3.422   1.232  0.3609  0.2772 -0.4870
 7603TIP3    H144224   2.853   3.391   1.241  0.5888  0.4953 -1.8468
 7603TIP3    H244225   2.765   3.485   1.160 -0.6558  1.2348  0.2834
 7604TIP3   OH244226   0.651   3.514   4.457  0.4899 -0.0252 -0.3692
 7604TIP3    H144227   0.563   3.547   4.441  0.7752  2.2024  1.9502
 7604TIP3    H244228   0.649   3.424   4.425 -2.4059  0.1724 -1.0206
 7605TIP3   OH244229   5.698   0.888  15.899 -0.0208 -0.0209 -0.3512
 7605TIP3    H144230   5.676   0.826  15.829 -0.9179  0.6082 -0.6378
 7605TIP3    H244231   5.713   0.971  15.853 -0.4416  0.3550  0.1877
 7606TIP3   OH244232   4.974   5.820   3.474  0.0922 -0.0787 -0.0080
 7606TIP3    H144233   4.879   5.816   3.479 -0.1113  3.1772  1.2397
 7606TIP3    H244234   5.002   5.851   3.560  2.0100  1.7608 -1.1948
 7607TIP3   OH244235   0.776   3.173  15.893 -0.3202  0.1442  0.0593
 7607TIP3    H144236   0.718   3.244  15.865 -0.6996 -1.0360 -2.3664
 7607TIP3    H244237   0.864   3.209  15.881 -0.4992  0.0932 -1.5957
 7608TIP3   OH244238   1.450   0.002   3.655 -0.2874  0.1430  0.7240
 7608TIP3    H144239   1.470   0.004   3.562 -0.0025 -1.3918  0.7320
 7608TIP3    H244240   1.359   0.034   3.661 -0.7274 -0.8822 -0.2199
 7609TIP3   OH244241   6.433   1.317   3.581  0.1578 -0.2687  0.2161
 7609TIP3    H144242   6.482   1.235   3.588 -0.5897 -0.8564 -1.0754
 7609TIP3    H244243   6.359   1.296   3.524 -0.7681  0.9899  0.9076
 7610TIP3   OH244244   2.032   4.128  14.068 -0.4674  0.0219  0.3691
 7610TIP3    H144245   2.060   4.050  14.116 -0.4557 -0.0898  0.1855
 7610TIP3    H244246   1.952   4.156  14.112 -1.1956 -0.8542 -0.3426
 7611TIP3   OH244247   3.667   2.318   1.376 -0.1189  0.3214 -0.3690
 7611TIP3    H144248   3.685   2.361   1.460  0.7667 -3.3244  1.4952
 7611TIP3    H244249   3.748   2.329   1.326  0.4305  0.0014  0.4431
 7612TIP3   OH244250   5.178   6.606   1.428  0.0329  0.1321 -0.3442
 7612TIP3    H144251   5.220   6.687   1.399  1.0655 -0.4669 -0.5688
 7612TIP3    H244252   5.242   6.537   1.408  0.3384 -0.4520  2.2921
 7613TIP3   OH244253   1.205   6.260   5.315 -0.4562 -0.1250  0.1260
 7613TIP3    H144254   1.166   6.250   5.228 -1.0177 -1.5372  0.5088
 7613TIP3    H244255   1.132   6.247   5.376 -0.0937  0.9669  0.8258
 7614TIP3   OH244256   0.668   4.549  14.858 -0.3260  0.1710  0.2294
 7614TIP3    H144257   0.622   4.480  14.811 -1.5815  1.6670 -0.8342
 7614TIP3    H244258   0.621   4.559  14.940 -1.5084  1.1842 -0.5356
 7615TIP3   OH244259   1.338   0.437   2.138 -0.0785  0.6916 -0.4280
 7615TIP3    H144260   1.308   0.352   2.171 -0.5644  0.6088 -1.0534
 7615TIP3    H244261   1.266   0.467   2.083  0.8083  0.6940 -1.6293
 7616TIP3   OH244262   6.113   5.327   3.880 -0.0316 -0.0596  0.0422
 7616TIP3    H144263   6.066   5.348   3.961 -1.9448  0.5953 -1.1658
 7616TIP3    H244264   6.176   5.399   3.870 -1.8386  1.5331 -0.5250
 7617TIP3   OH244265   1.856   6.491   1.033  0.4012 -0.3831 -0.1665
 7617TIP3    H144266   1.885   6.506   1.123 -0.5591 -0.7875  0.2271
 7617TIP3    H244267   1.928   6.443   0.992  1.2489  0.6277  0.0924
 7618TIP3   OH244268   6.113   1.249   3.016  0.0043 -0.0406 -0.1852
 7618TIP3    H144269   6.193   1.205   2.988  1.6080  1.9814  0.8891
 7618TIP3    H244270   6.062   1.181   3.059  1.0521 -1.4412 -1.0682
 7619TIP3   OH244271   1.184   6.515  11.166  0.2774 -0.2261 -0.5635
 7619TIP3    H144272   1.238   6.453  11.116 -0.9404 -1.2533 -0.6377
 7619TIP3    H244273   1.220   6.511  11.255 -1.0788 -2.6825 -0.0375
 7620TIP3   OH244274   1.345   1.962  17.160  0.2941  0.1681  0.0943
 7620TIP3    H144275   1.393   1.905  17.100 -0.3733 -1.0054  0.6569
 7620TIP3    H244276   1.295   2.021  17.102  0.1286 -0.5520 -0.5097
 7621TIP3   OH244277   3.751   3.459   0.067  0.3880  0.1662  0.0935
 7621TIP3    H144278   3.722   3.529   0.125 -1.2696  0.9471 -1.5774
 7621TIP3    H244279   3.764   3.501  -0.018  3.3462 -0.8256 -0.0657
 7622TIP3   OH244280   1.532   2.319   5.564  0.2762  0.1708 -0.1963
 7622TIP3    H144281   1.609   2.267   5.586 -0.3352 -1.0993 -0.9291
 7622TIP3    H244282   1.513   2.368   5.644 -0.6916 -2.7783  1.5392
 7623TIP3   OH244283   6.713   5.471  16.209  0.3574  0.1070 -0.2269
 7623TIP3    H144284   6.766   5.417  16.149  1.9715  2.8139 -1.4604
 7623TIP3    H244285   6.635   5.493  16.158 -0.3313 -1.0566  0.2987
 7624TIP3   OH244286   6.291   0.955   1.512 -0.5308 -0.0246 -0.7140
 7624TIP3    H144287   6.349   0.993   1.578  0.4999 -0.6061 -1.2555
 7624TIP3    H244288   6.204   0.987   1.535 -0.0345  0.6709  0.2692
 7625TIP3   OH244289   4.400   4.749   2.254  0.3935 -0.5058  0.5120
 7625TIP3    H144290   4.464   4.691   2.294  3.5107  1.3222 -1.3933
 7625TIP3    H244291   4.420   4.835   2.291 -0.3336  0.2839 -0.8593
 7626TIP3   OH244292   1.346   5.698   4.182  0.6044  0.2749 -0.3602
 7626TIP3    H144293   1.313   5.609   4.191 -1.4024  1.0255  0.2129
 7626TIP3    H244294   1.287   5.740   4.119  1.4490  1.2511 -0.5410
 7627TIP3   OH244295   1.777   5.015  11.338  0.5284  0.6755  0.3109
 7627TIP3    H144296   1.786   5.013  11.434 -0.2775 -1.0888  0.3963
 7627TIP3    H244297   1.753   4.925  11.315 -4.1278  1.9689 -1.0213
 7628TIP3   OH244298   2.153   0.117   2.155  0.1697  0.6026  0.0511
 7628TIP3    H144299   2.066   0.131   2.118 -0.5502 -0.3821  1.2603
 7628TIP3    H244300   2.212   0.117   2.080 -0.8341  1.5714 -0.7641
 7629TIP3   OH244301   4.983   3.808  14.939  0.8896 -0.7756 -0.3936
 7629TIP3    H144302   4.956   3.739  15.000  1.1482 -0.4420  0.1023
 7629TIP3    H244303   5.046   3.860  14.988 -0.6185  0.8855 -0.1297
 7630TIP3   OH244304   2.304   2.576  15.892 -0.3169  0.1890  0.0036
 7630TIP3    H144305   2.324   2.661  15.854 -1.2158  0.3334 -0.1594
 7630TIP3    H244306   2.382   2.523  15.875 -0.4369  0.4477 -1.4418
 7631TIP3   OH244307   4.656   3.550  14.841 -0.1901 -0.0174  0.3592
 7631TIP3    H144308   4.718   3.590  14.780 -0.1544 -1.0333 -0.2851
 7631TIP3    H244309   4.590   3.510  14.785 -1.1105  0.5171  1.0321
 7632TIP3   OH244310   1.501   5.604   4.579  0.4489 -0.4589 -0.2542
 7632TIP3    H144311   1.469   5.559   4.657 -4.7478  3.7884  0.5855
 7632TIP3    H244312   1.577   5.653   4.609 -0.2280 -0.4809  1.6109
 7633TIP3   OH244313   5.859   0.385  13.654 -0.1187  0.0290 -0.1491
 7633TIP3    H144314   5.788   0.322  13.664 -1.6345  1.4608 -1.3206
 7633TIP3    H244315   5.918   0.344  13.590 -2.3652  0.7274 -2.8725
 7634TIP3   OH244316   5.943   1.916  13.029  0.1923  0.4602 -0.0737
 7634TIP3    H144317   6.006   1.875  13.088  1.3092  0.6625 -1.0938
 7634TIP3    H244318   5.883   1.845  13.005  1.1506 -0.1899 -0.5660
 7635TIP3   OH244319   6.472   2.488   3.934 -0.4102 -0.2976 -0.2911
 7635TIP3    H144320   6.501   2.569   3.892 -0.8585 -0.2254 -0.4689
 7635TIP3    H244321   6.440   2.434   3.861 -1.4993 -0.0439 -0.0164
 7636TIP3   OH244322   6.659   5.368  14.812  0.4087  0.0820 -0.8263
 7636TIP3    H144323   6.686   5.302  14.748 -1.2979 -1.1499 -0.3591
 7636TIP3    H244324   6.609   5.319  14.877  0.5546  1.5915  0.4918
 7637TIP3   OH244325   0.496   0.909  16.794 -0.1197 -0.0669 -0.6016
 7637TIP3    H144326   0.491   0.963  16.873 -0.7489  0.0024 -0.6799
 7637TIP3    H244327   0.488   0.819  16.825  2.2253 -0.2362 -0.3400
 7638TIP3   OH244328   1.403   3.181   4.218  0.2842 -0.0396 -0.0390
 7638TIP3    H144329   1.443   3.233   4.287  2.0830 -0.6848 -0.5452
 7638TIP3    H244330   1.318   3.156   4.253  0.6073  0.7528  1.3917
 7639TIP3   OH244331   4.295   3.545   6.329  0.3800  0.2120 -0.1170
 7639TIP3    H144332   4.295   3.640   6.317 -0.1314  0.3614  0.9499
 7639TIP3    H244333   4.243   3.531   6.408 -0.0125 -1.0043 -0.5734
 7640TIP3   OH244334   5.668   6.388   0.673 -0.1392  0.1565  0.0857
 7640TIP3    H144335   5.673   6.361   0.765  1.8786  1.0819  0.2983
 7640TIP3    H244336   5.625   6.474   0.676 -0.5120 -0.0265  0.0949
 7641TIP3   OH244337   6.257   1.691   3.363 -0.4353 -0.2370  0.5604
 7641TIP3    H144338   6.328   1.716   3.423 -0.5614 -0.0357  0.6257
 7641TIP3    H244339   6.208   1.772   3.350 -0.3760 -0.2687  0.1428
 7642TIP3   OH244340   2.990   3.306   0.264 -0.3106  0.5771 -0.3339
 7642TIP3    H144341   3.041   3.261   0.196 -2.1890 -2.0048 -0.2123
 7642TIP3    H244342   2.900   3.274   0.251 -0.8088  0.1281  3.1764
 7643TIP3   OH244343   0.851   5.255  10.915 -0.5106  0.7687  0.3509
 7643TIP3    H144344   0.933   5.292  10.948 -0.3080 -0.0261  0.7624
 7643TIP3    H244345   0.834   5.304  10.834  0.9997  0.1382 -0.3816
 7644TIP3   OH244346   2.879   0.895   0.946 -0.3980  0.2126 -0.5875
 7644TIP3    H144347   2.883   0.799   0.945  0.1237  0.2116  0.5556
 7644TIP3    H244348   2.853   0.918   1.035  0.8601  1.1617 -0.4339
 7645TIP3   OH244349   3.969   1.161  13.891  0.0784  0.1338  0.3975
 7645TIP3    H144350   4.036   1.178  13.958  0.2091 -1.3006  0.6697
 7645TIP3    H244351   3.919   1.243  13.885  0.9647  0.7562  1.2097
 7646TIP3   OH244352   4.667   0.549  11.463 -0.0096 -0.0603 -0.2152
 7646TIP3    H144353   4.575   0.544  11.438  0.3066  0.6436 -1.5990
 7646TIP3    H244354   4.695   0.457  11.466 -1.0204 -0.3613  1.4020
 7647TIP3   OH244355   2.507   3.612  16.720  0.0657  0.0113 -0.1972
 7647TIP3    H144356   2.583   3.669  16.731  0.7569 -1.0368  0.6845
 7647TIP3    H244357   2.460   3.648  16.645  0.5325  1.6620  0.2605
 7648TIP3   OH244358   6.212   5.995   5.439 -0.6627 -0.2902 -0.0647
 7648TIP3    H144359   6.170   6.039   5.512  0.7769 -0.5214  0.9559
 7648TIP3    H244360   6.300   6.033   5.435 -0.1638 -1.4362 -0.6185
 7649TIP3   OH244361   3.338   1.802  16.202 -0.8442  0.1760  0.0348
 7649TIP3    H144362   3.329   1.749  16.281 -0.8430 -0.0814 -0.1368
 7649TIP3    H244363   3.249   1.823  16.177 -0.8741 -0.3120 -0.2776
 7650TIP3   OH244364   6.156   4.759   6.199  0.7609 -0.8043 -0.2306
 7650TIP3    H144365   6.094   4.755   6.127  1.1530 -0.7915 -0.5696
 7650TIP3    H244366   6.223   4.821   6.171  1.0775 -1.0278  0.0162
 7651TIP3   OH244367   3.357   0.214   1.860 -0.0642  0.7365  0.0987
 7651TIP3    H144368   3.378   0.306   1.879 -0.9803  1.1684 -0.8786
 7651TIP3    H244369   3.285   0.219   1.797  1.0049 -0.6350 -1.3040
 7652TIP3   OH244370   5.714   6.456   4.596 -0.4057 -0.2635  0.3936
 7652TIP3    H144371   5.682   6.381   4.645 -0.6290 -1.2318 -1.1602
 7652TIP3    H244372   5.729   6.422   4.508  0.9480  1.1575  0.0352
 7653TIP3   OH244373   4.282   5.546  13.458  0.0625 -0.2349 -0.4363
 7653TIP3    H144374   4.319   5.512  13.540 -1.0487 -0.5415 -0.0475
 7653TIP3    H244375   4.248   5.632  13.482 -1.0381 -0.6815 -0.3527
 7654TIP3   OH244376   6.176   6.750   2.645 -0.0164  0.1462  0.4458
 7654TIP3    H144377   6.109   6.809   2.678 -0.3069  0.5578 -0.8021
 7654TIP3    H244378   6.133   6.664   2.642 -0.2143  0.2448  0.4473
 7655TIP3   OH244379   1.847   3.323   3.830  0.5780 -0.1955 -0.0236
 7655TIP3    H144380   1.771   3.282   3.790  1.6629 -2.3252 -0.0810
 7655TIP3    H244381   1.896   3.362   3.758  1.3290 -1.9754 -0.5297
 7656TIP3   OH244382   6.473   3.457  12.170  0.6338 -0.9265  0.2260
 7656TIP3    H144383   6.498   3.447  12.262  1.0196  2.6026  0.6621
 7656TIP3    H244384   6.383   3.489  12.172  1.6001  2.1596 -0.3047
 7657TIP3   OH244385   6.202   5.092   4.074 -0.2999 -0.7444  0.3510
 7657TIP3    H144386   6.208   5.186   4.094  2.8303 -0.7788  0.1253
 7657TIP3    H244387   6.141   5.058   4.139 -0.6588  1.2667  1.1546
 7658TIP3   OH244388   2.643   3.463   2.533  0.7485  0.3712 -0.1522
 7658TIP3    H144389   2.569   3.474   2.472  2.3931  1.0032 -2.1607
 7658TIP3    H244390   2.615   3.392   2.591 -1.7944  1.2084 -0.2075
 7659TIP3   OH244391   1.880   4.489   0.482  0.6187 -0.0760  0.3227
 7659TIP3    H144392   1.961   4.469   0.530  1.1513  2.1576  0.5045
 7659TIP3    H244393   1.897   4.458   0.393  1.5415  0.0153  0.4529
 7660TIP3   OH244394   2.837   3.365   5.662 -0.4567 -0.3617 -0.2938
 7660TIP3    H144395   2.749   3.331   5.645  0.4144 -2.5973 -0.7009
 7660TIP3    H244396   2.825   3.429   5.732 -2.2420 -1.5205  0.5366
 7661TIP3   OH244397   6.326   2.446   3.468  0.2043  0.1994 -0.4088
 7661TIP3    H144398   6.372   2.363   3.454  1.5950  1.0199 -0.8995
 7661TIP3    H244399   6.266   2.454   3.394 -0.2963 -0.5819 -0.1005
 7662TIP3   OH244400   6.327   6.418  15.692  0.0600 -0.5597 -0.3080
 7662TIP3    H144401   6.395   6.475  15.655  1.9731 -2.1257  0.6032
 7662TIP3    H244402   6.277   6.388  15.616  0.5906  0.3621 -1.0423
 7663TIP3   OH244403   4.793   6.397   2.359 -0.2654  0.4740 -0.2867
 7663TIP3    H144404   4.714   6.378   2.410  0.7914  0.0531  1.2859
 7663TIP3    H244405   4.763   6.452   2.287 -1.8453  1.0865  0.7859
 7664TIP3   OH244406   2.854   2.734  16.030 -0.2766 -0.2608 -0.1514
 7664TIP3    H144407   2.873   2.698  16.116  1.1069  1.3020  0.2559
 7664TIP3    H244408   2.873   2.828  16.039  0.5374 -0.1614 -2.3180
 7665TIP3   OH244409   2.086   5.921   2.535  0.3787  0.2781  0.1752
 7665TIP3    H144410   2.073   5.978   2.460  0.0819 -0.7783 -0.6062
 7665TIP3    H244411   2.008   5.934   2.589  0.4662  0.8360  0.1716
 7666TIP3   OH244412   1.626   1.389  13.658 -0.2492 -0.4126 -0.1274
 7666TIP3    H144413   1.559   1.377  13.726 -0.8425 -1.3307 -0.8318
 7666TIP3    H244414   1.590   1.342  13.582  1.4276 -1.3470 -0.3735
 7667TIP3   OH244415   4.165   2.774   0.942 -0.1948  0.3769 -0.1110
 7667TIP3    H144416   4.196   2.865   0.940  1.8252 -0.2640 -0.1364
 7667TIP3    H244417   4.245   2.722   0.941 -1.2699 -1.4025  1.1526
 7668TIP3   OH244418   0.054   4.659   0.318 -0.2165  0.2760  0.1759
 7668TIP3    H144419   0.019   4.708   0.243  0.3901 -1.5765 -1.4079
 7668TIP3    H244420   0.131   4.708   0.344 -0.2890  0.8203 -0.5843
 7669TIP3   OH244421   5.201   2.412   2.706  0.1279  0.3539 -0.0594
 7669TIP3    H144422   5.271   2.430   2.770  0.4003 -0.6831 -0.0452
 7669TIP3    H244423   5.133   2.368   2.757 -0.6297  1.5098 -0.0377
 7670TIP3   OH244424   1.728   2.744  16.571 -0.5263  0.3628 -0.3731
 7670TIP3    H144425   1.708   2.796  16.493  2.6714  0.0844 -1.5315
 7670TIP3    H244426   1.796   2.684  16.542 -0.7129 -1.1954  2.1652
 7671TIP3   OH244427   3.110   0.432  13.399 -0.0813 -0.2133 -0.1389
 7671TIP3    H144428   3.073   0.519  13.417 -0.1515 -0.3954  0.6530
 7671TIP3    H244429   3.201   0.449  13.375  0.1705  0.0258  0.9326
 7672TIP3   OH244430   6.258   5.052   1.302  0.0757  0.3262  0.6591
 7672TIP3    H144431   6.292   4.964   1.284 -1.3208 -0.2121  0.5217
 7672TIP3    H244432   6.291   5.074   1.389  0.0865 -0.5134  0.8688
 7673TIP3   OH244433   1.310   1.282   4.895  0.0075 -0.8081 -0.3192
 7673TIP3    H144434   1.295   1.269   4.989 -0.7483 -0.2038 -0.3503
 7673TIP3    H244435   1.253   1.218   4.852 -3.0797  1.8208 -0.4503
 7674TIP3   OH244436   6.712   6.719  10.453 -0.1472  0.2163  0.0643
 7674TIP3    H144437   6.787   6.760  10.497  1.1832 -0.9563 -1.0182
 7674TIP3    H244438   6.691   6.643  10.507 -1.9700  1.6287  1.5123
 7675TIP3   OH244439   0.799   3.570   1.495 -0.0430 -0.1643 -0.2327
 7675TIP3    H144440   0.806   3.591   1.588 -2.6404  0.4550 -0.1126
 7675TIP3    H244441   0.837   3.482   1.488 -0.9826 -0.7912  1.6863
 7676TIP3   OH244442   0.713   3.304   6.169 -0.6366 -0.2730  0.0913
 7676TIP3    H144443   0.804   3.288   6.197 -0.2590  0.5331 -0.6273
 7676TIP3    H244444   0.684   3.377   6.224 -0.1258  0.8542 -1.0800
 7677TIP3   OH244445   0.524   1.559   2.770 -0.9211  0.4409  0.0508
 7677TIP3    H144446   0.503   1.487   2.830 -1.5734  2.7155  2.7699
 7677TIP3    H244447   0.455   1.555   2.703 -1.5991 -0.7393  0.7786
 7678TIP3   OH244448   3.869   1.074   0.801 -0.6690  0.2158 -0.2724
 7678TIP3    H144449   3.888   1.055   0.893 -1.3190  0.7569 -0.0206
 7678TIP3    H244450   3.782   1.039   0.787 -0.4797 -0.0647 -0.7472
 7679TIP3   OH244451   1.465   2.524   4.413 -0.1013 -0.0408 -0.4533
 7679TIP3    H144452   1.482   2.563   4.327 -1.4630  1.0694 -0.2476
 7679TIP3    H244453   1.414   2.445   4.394  0.3561 -0.2766 -0.7122
 7680TIP3   OH244454   3.666   1.595   5.046 -0.0657 -0.1692  0.3719
 7680TIP3    H144455   3.605   1.666   5.068  0.9606  0.6796  0.6119
 7680TIP3    H244456   3.658   1.533   5.119  0.3312  0.6172  1.1147
 7681TIP3   OH244457   3.419   1.091   1.374 -0.5788  0.6754  0.0895
 7681TIP3    H144458   3.450   1.088   1.464 -0.6564  0.2374  0.1020
 7681TIP3    H244459   3.363   1.014   1.365 -0.2210  0.4776 -0.4613
 7682TIP3   OH244460   6.538   4.574  17.002  0.2422  0.1430 -0.2559
 7682TIP3    H144461   6.582   4.634  17.061  2.2156 -1.2182 -0.2497
 7682TIP3    H244462   6.495   4.510  17.060 -2.1525  1.6280 -0.2482
 7683TIP3   OH244463   3.072   5.916   3.307  0.2883  0.0638  0.0987
 7683TIP3    H144464   3.075   5.826   3.273 -2.1437  0.0015 -0.1830
 7683TIP3    H244465   3.143   5.921   3.370  0.0911 -2.2874  0.5829
 7684TIP3   OH244466   6.749   5.822  12.511  0.2944 -0.0319 -0.7869
 7684TIP3    H144467   6.697   5.742  12.513 -0.3875  0.4183 -0.3178
 7684TIP3    H244468   6.814   5.810  12.580  1.5950 -1.0889 -2.1202
 7685TIP3   OH244469   0.348   4.424   4.053 -0.9597  0.5063 -0.2383
 7685TIP3    H144470   0.264   4.439   4.010 -0.7054  1.2562 -0.4780
 7685TIP3    H244471   0.356   4.495   4.116 -0.2160  0.8191 -0.6720
 7686TIP3   OH244472   5.992   0.357   1.161 -0.7543 -0.6747 -0.0380
 7686TIP3    H144473   5.952   0.437   1.127  0.3971 -0.4323 -0.8350
 7686TIP3    H244474   5.992   0.370   1.256 -0.4225  0.3484 -0.1641
 7687TIP3   OH244475   5.197   3.914  13.638 -0.2169 -0.0160  0.0629
 7687TIP3    H144476   5.145   3.965  13.575 -0.9193 -1.3045 -0.4414
 7687TIP3    H244477   5.139   3.906  13.714 -0.3504 -0.5570 -0.0921
 7688TIP3   OH244478   0.254   3.221   5.028 -0.4916  0.2428  0.0436
 7688TIP3    H144479   0.315   3.161   4.984 -0.4654  0.6369 -0.4687
 7688TIP3    H244480   0.170   3.175   5.027  0.1537 -1.1449  2.4568
 7689TIP3   OH244481   2.744   1.658   0.475 -0.0559  0.7180 -0.6471
 7689TIP3    H144482   2.678   1.636   0.541 -0.8103 -1.6422 -2.0476
 7689TIP3    H244483   2.819   1.690   0.525 -0.5894 -0.9704  1.3569
 7690TIP3   OH244484   4.824   2.321  10.777  0.3461 -0.3352 -0.6635
 7690TIP3    H144485   4.823   2.290  10.867 -0.5984 -0.0317 -0.5554
 7690TIP3    H244486   4.808   2.416  10.784  1.9240 -0.0119 -1.0576
 7691TIP3   OH244487   4.530   3.280   2.519  0.2428 -0.5941 -0.1252
 7691TIP3    H144488   4.504   3.347   2.456 -2.1965  1.0234  2.3748
 7691TIP3    H244489   4.625   3.288   2.525  0.2716  0.8581 -1.7364
 7692TIP3   OH244490   6.715   1.550   4.294 -0.4650  0.0444 -0.0743
 7692TIP3    H144491   6.636   1.498   4.277 -0.3614 -0.5219  1.0900
 7692TIP3    H244492   6.749   1.570   4.207 -0.4961 -1.8562 -0.5694
 7693TIP3   OH244493   5.243   5.616  14.173 -0.2913  0.4492  0.2489
 7693TIP3    H144494   5.246   5.711  14.182  1.0558  0.2860  2.2547
 7693TIP3    H244495   5.224   5.584  14.261 -0.2005 -1.1580 -0.2717
 7694TIP3   OH244496   1.943   5.032  12.126 -0.0068 -0.1806 -0.4118
 7694TIP3    H144497   1.932   4.958  12.187  0.3937  2.2111  2.8104
 7694TIP3    H244498   2.032   5.021  12.092  0.2104 -0.9710  0.3541
 7695TIP3   OH244499   2.852   2.093  13.109  0.4872  0.1152  0.1869
 7695TIP3    H144500   2.857   2.138  13.193  1.0870 -0.6401  0.5666
 7695TIP3    H244501   2.788   2.024  13.122 -0.6336  1.0014 -0.4772
 7696TIP3   OH244502   2.175   4.656  14.539  0.7186  0.1790  0.1066
 7696TIP3    H144503   2.193   4.727  14.477 -0.4464 -0.8833 -1.5055
 7696TIP3    H244504   2.085   4.630  14.521  1.3298 -2.1738  0.1450
 7697TIP3   OH244505   5.838   4.769  16.166 -0.3460  0.1527 -0.3276
 7697TIP3    H144506   5.759   4.761  16.112 -1.1169 -0.7503  0.8791
 7697TIP3    H244507   5.834   4.857  16.202  0.6320  1.1101 -2.3377
 7698TIP3   OH244508   1.895   4.778   2.394  0.4661  0.2154  0.1282
 7698TIP3    H144509   1.801   4.791   2.377  0.1772 -0.7280  0.9541
 7698TIP3    H244510   1.926   4.864   2.422  0.6158  1.4703 -3.3399
 7699TIP3   OH244511   4.385   2.403   3.702  0.4086 -1.0410  0.0741
 7699TIP3    H144512   4.433   2.431   3.780  1.2712 -1.1924 -0.3968
 7699TIP3    H244513   4.301   2.371   3.736  0.7483 -1.0451  0.9329
 7700TIP3   OH244514   0.753   6.172   4.820  0.3572 -0.2844 -0.5803
 7700TIP3    H144515   0.732   6.079   4.832  0.3459 -0.2812 -0.5748
 7700TIP3    H244516   0.671   6.217   4.838  0.8339 -0.1208  1.3941
 7701TIP3   OH244517   6.421   4.151   2.756  0.3361 -0.9994  0.5547
 7701TIP3    H144518   6.430   4.213   2.828  0.2813  1.0040 -1.0720
 7701TIP3    H244519   6.509   4.142   2.720  0.3372 -1.8609  0.7549
 7702TIP3   OH244520   0.556   5.364  12.469  0.5616 -0.5005 -0.4920
 7702TIP3    H144521   0.503   5.289  12.440  0.9037 -0.5858 -0.9070
 7702TIP3    H244522   0.543   5.430  12.400 -1.8488  0.8695  1.1069
 7703TIP3   OH244523   2.821   6.560  16.070  0.1262 -0.1623 -0.2640
 7703TIP3    H144524   2.729   6.570  16.095 -0.4225  2.3952 -2.8630
 7703TIP3    H244525   2.867   6.548  16.154 -2.1242  2.4852  1.5268
 7704TIP3   OH244526   2.226   1.184   5.111  0.0169 -0.6260 -0.3582
 7704TIP3    H144527   2.240   1.092   5.135 -2.2455 -1.5310 -2.0752
 7704TIP3    H244528   2.314   1.220   5.100  0.9913 -2.1207  1.8423
 7705TIP3   OH244529   5.602   4.654  17.020 -0.8677 -0.5046 -0.0373
 7705TIP3    H144530   5.638   4.683  17.104  1.8409 -1.5077 -0.7505
 7705TIP3    H244531   5.524   4.604  17.044  0.8954 -2.4643  2.1436
 7706TIP3   OH244532   1.854   6.375  12.449  0.2414 -0.2069 -0.7937
 7706TIP3    H144533   1.839   6.281  12.454  1.6648 -0.5446 -1.9714
 7706TIP3    H244534   1.769   6.411  12.423 -0.6574 -0.9888  0.9214
 7707TIP3   OH244535   3.360   5.785   4.605 -0.0846 -0.6780 -0.4240
 7707TIP3    H144536   3.447   5.748   4.619  0.3760  0.4346 -0.2496
 7707TIP3    H244537   3.301   5.710   4.607  0.9480 -1.5390 -1.2524
 7708TIP3   OH244538   0.036   1.376  13.191  0.1750 -0.2786 -0.0361
 7708TIP3    H144539   0.038   1.405  13.100 -0.0813 -0.5977 -0.1485
 7708TIP3    H244540   0.068   1.450  13.241 -2.6570  1.1177 -0.0799
 7709TIP3   OH244541   5.435   4.052   1.835 -0.4452 -0.0776 -0.1947
 7709TIP3    H144542   5.412   3.969   1.877  1.0595  0.3723  1.6784
 7709TIP3    H244543   5.521   4.073   1.870 -1.4101  3.0556  0.5859
 7710TIP3   OH244544   6.114   4.777  13.092  0.0390  0.8047 -0.8140
 7710TIP3    H144545   6.088   4.838  13.023 -1.3752 -0.5123 -1.5052
 7710TIP3    H244546   6.161   4.707  13.045  0.0348  0.4427 -0.2877
 7711TIP3   OH244547   0.137   1.039   5.702 -0.2870 -0.2205 -0.5112
 7711TIP3    H144548   0.212   0.984   5.724 -0.7458 -0.4191  0.6349
 7711TIP3    H244549   0.165   1.090   5.626  1.3340  0.3895  0.4676
 7712TIP3   OH244550   2.455   4.012  15.660 -0.1728 -0.2825 -0.1435
 7712TIP3    H144551   2.549   4.012  15.680 -0.3668 -0.7189  0.7840
 7712TIP3    H244552   2.421   3.933  15.702 -1.2313  0.6785  0.8508
 7713TIP3   OH244553   4.731   6.424  13.209 -0.4894  0.0072 -0.2247
 7713TIP3    H144554   4.657   6.406  13.151  0.4805  0.3477 -1.6137
 7713TIP3    H244555   4.809   6.402  13.157  0.4094  0.1022  1.0323
 7714TIP3   OH244556   5.429   3.454   3.697  0.4021 -0.3865 -0.1859
 7714TIP3    H144557   5.410   3.516   3.767  2.2131 -0.6148  0.5845
 7714TIP3    H244558   5.463   3.507   3.625 -0.6355 -0.2396 -0.5824
 7715TIP3   OH244559   5.559   2.368  16.850  0.1554  0.5601 -0.4207
 7715TIP3    H144560   5.654   2.364  16.856  0.2734  1.2235 -1.5270
 7715TIP3    H244561   5.530   2.277  16.847  0.6514  0.3344  1.1209
 7716TIP3   OH244562   6.536   0.893  16.291  0.0581 -0.3371 -0.5621
 7716TIP3    H144563   6.530   0.983  16.258 -1.0246 -0.1174  0.1762
 7716TIP3    H244564   6.507   0.899  16.382 -1.1493 -1.6089 -0.8285
 7717TIP3   OH244565   5.047   4.482  15.899 -0.6861 -0.6740 -0.4214
 7717TIP3    H144566   5.137   4.506  15.921 -0.8126 -0.3525 -0.2448
 7717TIP3    H244567   4.995   4.511  15.974 -1.1441  0.5644 -1.1849
 7718TIP3   OH244568   1.497   0.683  13.248 -0.3374 -0.1715  0.0701
 7718TIP3    H144569   1.409   0.687  13.212 -0.1745  0.6144 -0.2719
 7718TIP3    H244570   1.553   0.660  13.174  0.0507  1.8739 -0.3349
 7719TIP3   OH244571   5.819   0.768   4.206 -0.5254 -0.1058 -0.3128
 7719TIP3    H144572   5.762   0.746   4.279  0.8683 -1.9608  0.3142
 7719TIP3    H244573   5.805   0.697   4.143 -1.3899  1.2386 -1.7076
 7720TIP3   OH244574   0.651   1.615  15.074 -0.2755 -0.5079 -0.3140
 7720TIP3    H144575   0.588   1.639  15.006  1.3809  1.7691 -1.1348
 7720TIP3    H244576   0.724   1.575  15.027 -0.9150 -2.9730  0.6157
 7721TIP3   OH244577   2.521   0.341   5.464 -0.0928 -0.3917 -0.1501
 7721TIP3    H144578   2.606   0.338   5.508  0.7398  0.4828 -1.6231
 7721TIP3    H244579   2.530   0.280   5.390 -0.7827 -0.3765 -0.2559
 7722TIP3   OH244580   5.839   2.669  13.048  0.2530 -0.7994 -0.4625
 7722TIP3    H144581   5.922   2.630  13.017  0.9139 -1.5458  2.0245
 7722TIP3    H244582   5.838   2.756  13.009  1.0421 -1.5789 -2.4041
 7723TIP3   OH244583   0.881   4.571  16.269  0.5783 -0.2337  0.0802
 7723TIP3    H144584   0.788   4.547  16.276  0.1007  0.8889 -1.7226
 7723TIP3    H244585   0.913   4.517  16.196  1.1429 -0.0319  0.1773
 7724TIP3   OH244586   5.599   4.523  13.579 -0.4652  0.0627  0.2044
 7724TIP3    H144587   5.556   4.437  13.583 -0.0831 -0.1099  0.7209
 7724TIP3    H244588   5.543   4.575  13.522 -1.6207 -0.0137  1.2194
 7725TIP3   OH244589   6.734   1.828  11.956  0.2715  0.3948  0.3712
 7725TIP3    H144590   6.747   1.748  11.905  0.0391  0.0342  0.8624
 7725TIP3    H244591   6.728   1.797  12.047 -3.4066  0.5185  0.3169
 7726TIP3   OH244592   4.976   1.243   1.046  0.0678 -0.2229  0.2722
 7726TIP3    H144593   4.906   1.253   1.110  1.7359  0.5157  2.0794
 7726TIP3    H244594   4.980   1.327   1.001 -0.0004 -0.1549  0.3939
 7727TIP3   OH244595   5.108   0.223   4.032 -0.0490 -0.1792 -0.2532
 7727TIP3    H144596   5.017   0.219   4.062  0.1830 -1.1860  0.3592
 7727TIP3    H244597   5.123   0.316   4.014 -0.5953  0.3080  1.5519
 7728TIP3   OH244598   1.563   1.506   0.221 -0.2579  0.0341  0.6635
 7728TIP3    H144599   1.522   1.425   0.252  0.3156  0.1522  1.7873
 7728TIP3    H244600   1.633   1.477   0.163 -1.5116 -0.1850 -0.7879
 7729TIP3   OH244601   6.554   1.955   3.363 -0.3319 -0.6538  0.2463
 7729TIP3    H144602   6.561   1.940   3.269  2.0589 -1.1645  0.4466
 7729TIP3    H244603   6.641   1.985   3.390 -1.2393  0.4793  2.1499
 7730TIP3   OH244604   3.762   4.771  15.523 -0.1177  0.2671  0.0278
 7730TIP3    H144605   3.801   4.788  15.437  0.5152 -1.8148 -0.1689
 7730TIP3    H244606   3.670   4.795  15.514  0.3834  2.0991 -0.5458
 7731TIP3   OH244607   3.421   0.337   6.038 -0.1324  0.4894  0.2200
 7731TIP3    H144608   3.514   0.326   6.020 -0.0402  1.7793 -0.2135
 7731TIP3    H244609   3.417   0.392   6.116 -0.5270  0.2770  0.3521
 7732TIP3   OH244610   1.981   6.378   3.715  0.0166  0.3067  0.2233
 7732TIP3    H144611   1.923   6.361   3.640  0.0423  0.2815  0.2091
 7732TIP3    H244612   1.922   6.384   3.790  0.0916 -0.8202  0.3836
 7733TIP3   OH244613   3.196   2.472   5.576  0.3909 -0.2561 -0.0790
 7733TIP3    H144614   3.230   2.491   5.663  0.2475  0.6517 -0.2092
 7733TIP3    H244615   3.117   2.421   5.591 -0.5854  1.3172  0.4171
 7734TIP3   OH244616   3.343   4.594   1.214  0.8880 -0.2273 -0.8275
 7734TIP3    H144617   3.414   4.578   1.275 -0.3124  0.5151  0.8295
 7734TIP3    H244618   3.265   4.600   1.268 -0.4689 -0.9757 -2.5844
 7735TIP3   OH244619   4.623   6.124  12.412  0.6904 -0.6437  1.1336
 7735TIP3    H144620   4.676   6.055  12.451 -0.7131 -1.3449  1.9119
 7735TIP3    H244621   4.585   6.170  12.487 -0.5710 -0.7997  0.6207
 7736TIP3   OH244622   3.530   0.046   2.130 -0.2861  0.4814 -0.7513
 7736TIP3    H144623   3.519   0.034   2.225  0.6735  0.8729 -0.5759
 7736TIP3    H244624   3.447   0.017   2.093 -0.3117 -0.6524  0.1255
 7737TIP3   OH244625   4.300   5.850  13.228  0.4944  0.0280  0.4230
 7737TIP3    H144626   4.284   5.764  13.190  2.3913 -0.4166  0.5034
 7737TIP3    H244627   4.280   5.840  13.321  1.3250 -0.5471  0.5561
 7738TIP3   OH244628   1.063   3.290  16.427 -0.1976  0.3113  0.1124
 7738TIP3    H144629   0.998   3.251  16.368  0.5611 -0.0460 -0.5014
 7738TIP3    H244630   1.105   3.358  16.374 -1.4716  2.0119  1.1496
 7739TIP3   OH244631   1.464   3.608  11.775  0.1797  0.0111  0.0190
 7739TIP3    H144632   1.376   3.596  11.739  0.0474  1.5263 -0.2264
 7739TIP3    H244633   1.467   3.549  11.851 -1.1624  0.1662  0.2210
 7740TIP3   OH244634   3.243   4.927  12.921  0.3195 -0.4562 -0.3638
 7740TIP3    H144635   3.281   4.850  12.877  0.2664 -0.6159 -0.1306
 7740TIP3    H244636   3.224   4.897  13.010 -0.2458 -0.3409 -0.4431
 7741TIP3   OH244637   4.333   4.124  11.239  1.3327  0.0545  0.0039
 7741TIP3    H144638   4.347   4.176  11.319 -1.1556  0.4824  0.2467
 7741TIP3    H244639   4.286   4.183  11.181  1.3405 -0.9052 -1.0000
 7742TIP3   OH244640   4.187   0.560   2.952 -0.3065  0.1177  0.0459
 7742TIP3    H144641   4.102   0.521   2.934  0.3388 -1.0797 -0.5142
 7742TIP3    H244642   4.205   0.616   2.877 -0.3617 -0.0524 -0.0939
 7743TIP3   OH244643   2.101   1.948   3.572 -0.0209  0.0232 -0.0607
 7743TIP3    H144644   2.140   1.886   3.633  0.4195  0.2871 -0.0630
 7743TIP3    H244645   2.157   1.941   3.494 -1.5365 -1.5237 -1.0855
 7744TIP3   OH244646   3.565   3.859  14.305  0.1198 -0.0252 -0.3773
 7744TIP3    H144647   3.577   3.942  14.350 -0.0997 -0.1188 -0.1450
 7744TIP3    H244648   3.608   3.872  14.220 -2.7422  1.5137 -1.7337
 7745TIP3   OH244649   2.629   4.532  17.148  0.3436  0.3795 -0.4615
 7745TIP3    H144650   2.669   4.617  17.131 -0.6253  0.9345 -0.0094
 7745TIP3    H244651   2.702   4.477  17.177  0.6468  1.6053  1.2094
 7746TIP3   OH244652   4.432   6.222   3.038 -0.3068  0.2564  0.1630
 7746TIP3    H144653   4.448   6.160   2.966 -1.1461 -0.6903  0.7710
 7746TIP3    H244654   4.458   6.307   3.002  3.7754 -0.7493  0.2748
 7747TIP3   OH244655   0.627   2.401   5.013 -0.1884 -0.1936 -0.3189
 7747TIP3    H144656   0.655   2.466   4.949 -1.2073  0.3263 -0.2574
 7747TIP3    H244657   0.709   2.367   5.051  0.3907  0.0749 -1.3065
 7748TIP3   OH244658   3.401   2.535   3.405  0.1781  0.1775  0.0516
 7748TIP3    H144659   3.481   2.481   3.402 -0.5155 -1.2480  3.3297
 7748TIP3    H244660   3.431   2.623   3.383  2.2543 -0.6483 -0.7606
 7749TIP3   OH244661   1.328   1.349   0.302 -0.3202 -0.2393  0.1948
 7749TIP3    H144662   1.238   1.318   0.311 -0.1696 -1.0251 -0.8283
 7749TIP3    H244663   1.377   1.301   0.369 -0.4923 -0.5610  0.0935
 7750TIP3   OH244664   3.218   1.703  11.226  0.1381  0.0082 -0.0646
 7750TIP3    H144665   3.251   1.775  11.280  0.4146 -0.6681  0.6975
 7750TIP3    H244666   3.249   1.723  11.138  0.8501  0.4351  0.2728
 7751TIP3   OH244667   1.436   3.865  16.297 -0.4530  0.2990 -0.2982
 7751TIP3    H144668   1.501   3.874  16.366 -0.7169  0.0147 -0.0106
 7751TIP3    H244669   1.383   3.945  16.304 -1.3364 -0.3529  0.7355
 7752TIP3   OH244670   5.678   1.229  14.916 -0.0485  0.0102  0.2623
 7752TIP3    H144671   5.683   1.202  14.824 -0.1819 -0.3950  0.3736
 7752TIP3    H244672   5.692   1.324  14.913  2.4235 -0.2853  0.0427
 7753TIP3   OH244673   2.721   4.463   4.924  0.3343 -0.0779 -0.0482
 7753TIP3    H144674   2.755   4.419   5.002  2.7810  1.6760  0.0172
 7753TIP3    H244675   2.755   4.410   4.851 -0.6157 -0.8206  0.0265
 7754TIP3   OH244676   0.316   3.152   4.711  0.8044  0.7273  0.2647
 7754TIP3    H144677   0.396   3.171   4.663  0.7084  1.3414  0.3387
 7754TIP3    H244678   0.343   3.092   4.781  0.9684 -0.0584 -0.4563
 7755TIP3   OH244679   1.365   3.148   1.847  0.0283  0.2769 -0.0072
 7755TIP3    H144680   1.429   3.214   1.876 -0.0990  0.2126  0.4205
 7755TIP3    H244681   1.332   3.110   1.927  0.8909 -1.0882 -0.2632
 7756TIP3   OH244682   3.526   2.253  11.597  0.0800  0.0073  0.4006
 7756TIP3    H144683   3.466   2.246  11.522 -1.2638  2.9638  1.0529
 7756TIP3    H244684   3.594   2.314  11.568  0.0170  0.5116  1.2824
 7757TIP3   OH244685   5.070   1.022  16.617 -0.2333 -0.0972 -0.0009
 7757TIP3    H144686   5.024   0.942  16.591  1.2312 -0.7612 -0.6593
 7757TIP3    H244687   5.158   0.992  16.642  0.4450  1.3296 -0.5697
 7758TIP3   OH244688   3.628   3.633  14.050 -0.1597  1.2151 -0.3128
 7758TIP3    H144689   3.696   3.583  14.003  1.2264  2.1782  0.6069
 7758TIP3    H244690   3.596   3.572  14.116  0.3494  0.9917 -0.2646
 7759TIP3   OH244691   2.936   6.273  14.791 -0.8666  0.1289  0.2413
 7759TIP3    H144692   2.854   6.224  14.798 -1.1735  0.8431  2.0432
 7759TIP3    H244693   2.924   6.329  14.714 -1.6495 -0.5068 -0.1161
 7760TIP3   OH244694   6.353   0.032  16.267  0.3658 -0.0258  0.4930
 7760TIP3    H144695   6.273   0.083  16.271 -0.0763 -0.5536 -1.0600
 7760TIP3    H244696   6.377   0.018  16.359 -2.0166 -0.9281  1.0458
 7761TIP3   OH244697   6.014   1.380  12.510 -0.1073 -0.2948 -0.1355
 7761TIP3    H144698   5.994   1.425  12.592  0.1303 -0.0088 -0.2339
 7761TIP3    H244699   6.104   1.350  12.521 -0.2142 -0.6180 -0.1297
 7762TIP3   OH244700   1.863   0.091  13.862  0.0799 -0.4035  0.3173
 7762TIP3    H144701   1.836   0.118  13.950  0.8490 -1.3379  0.8584
 7762TIP3    H244702   1.846  -0.003  13.859  1.1092 -0.5909 -0.1247
 7763TIP3   OH244703   1.519   1.643  14.898 -0.0266  0.1136 -0.4889
 7763TIP3    H144704   1.590   1.707  14.906  1.2704 -1.1837 -1.1713
 7763TIP3    H244705   1.520   1.617  14.806 -0.8449 -0.5652 -0.3227
 7764TIP3   OH244706   1.531   5.202   3.032 -0.1997 -0.3840 -0.1051
 7764TIP3    H144707   1.545   5.170   2.943 -0.0091  2.3599 -1.1384
 7764TIP3    H244708   1.563   5.292   3.031 -1.5576  0.2179  2.3614
 7765TIP3   OH244709   2.077   1.749   0.506  0.2182  0.5294 -0.0062
 7765TIP3    H144710   1.985   1.772   0.515  0.5510  1.5403  1.0399
 7765TIP3    H244711   2.124   1.832   0.508  1.3206 -0.0679  2.0519
 7766TIP3   OH244712   5.481   4.981   4.131  0.6227 -0.4475  0.0800
 7766TIP3    H144713   5.559   4.925   4.134  0.9849  0.0626  0.2747
 7766TIP3    H244714   5.413   4.929   4.173  1.0865 -0.5353  0.7350
 7767TIP3   OH244715   4.157   1.666   1.468  0.6712 -0.3462 -0.2254
 7767TIP3    H144716   4.223   1.735   1.461  2.6462 -2.2846 -2.4484
 7767TIP3    H244717   4.107   1.673   1.387 -1.3474  0.5169  1.0380
 7768TIP3   OH244718   1.693   5.606   5.216  0.4807  0.1525 -0.3952
 7768TIP3    H144719   1.693   5.616   5.311 -0.4990  0.2096 -0.3960
 7768TIP3    H244720   1.754   5.533   5.200  0.5701  0.0703  0.2770
 7769TIP3   OH244721   2.372   1.712   5.415 -0.1802  0.2092  0.4802
 7769TIP3    H144722   2.323   1.631   5.433  1.2912 -0.7262  0.4903
 7769TIP3    H244723   2.343   1.737   5.327  0.6323 -1.3546 -0.2799
 7770TIP3   OH244724   6.544   3.794  16.453 -0.9504  0.2951 -0.2433
 7770TIP3    H144725   6.491   3.806  16.532 -1.5563  0.3336 -0.6482
 7770TIP3    H244726   6.503   3.719  16.409 -0.0789 -0.2959 -0.0876
 7771TIP3   OH244727   3.365   1.373  15.919 -1.1138  0.6089 -0.8870
 7771TIP3    H144728   3.421   1.450  15.918  0.6936 -0.5547  1.5488
 7771TIP3    H244729   3.341   1.360  15.827  0.3927  2.7157 -1.6577
 7772TIP3   OH244730   5.925   6.155   6.447  0.3548 -0.2925 -0.3722
 7772TIP3    H144731   5.899   6.066   6.421 -0.5789  0.0152 -0.5191
 7772TIP3    H244732   6.004   6.172   6.394  0.0431 -0.7065 -0.9919
 7773TIP3   OH244733   1.588   2.863  15.995 -1.1666 -0.3015 -0.0709
 7773TIP3    H144734   1.679   2.891  16.007 -0.9425  0.0474 -2.2417
 7773TIP3    H244735   1.564   2.895  15.908 -3.6387  0.2954  0.7430
 7774TIP3   OH244736   0.769   4.236   2.834  0.5723  0.6999  0.4008
 7774TIP3    H144737   0.783   4.321   2.792 -2.1122  0.8072 -0.5175
 7774TIP3    H244738   0.755   4.257   2.926  0.0894  1.2760  0.2052
 7775TIP3   OH244739   4.253   6.239  11.105  0.0155 -0.0544 -0.0843
 7775TIP3    H144740   4.276   6.318  11.153 -0.1785  0.5101 -0.9044
 7775TIP3    H244741   4.195   6.269  11.035  0.5401 -0.8081 -0.8622
 7776TIP3   OH244742   1.105   4.370   5.139  0.7660  0.0839 -0.2526
 7776TIP3    H144743   1.131   4.369   5.046 -0.7883 -4.5312 -0.8991
 7776TIP3    H244744   1.178   4.328   5.184  1.4790  2.2364  0.7250
 7777TIP3   OH244745   6.580   3.878   1.137 -0.5897 -0.0018 -0.0543
 7777TIP3    H144746   6.654   3.840   1.184 -1.0237  0.7351  1.2526
 7777TIP3    H244747   6.584   3.972   1.155 -0.7221  0.3343 -1.5713
 7778TIP3   OH244748   0.533   1.180  13.287  0.4615  0.4516 -0.0612
 7778TIP3    H144749   0.525   1.192  13.192  1.2671 -0.4010 -0.2639
 7778TIP3    H244750   0.550   1.267  13.321  3.1067  0.4301 -1.0786
 7779TIP3   OH244751   2.600   6.354  14.480 -0.7665 -0.1053  0.1234
 7779TIP3    H144752   2.677   6.305  14.452 -3.3433 -2.6980 -3.3842
 7779TIP3    H244753   2.595   6.339  14.575  2.5232 -0.4501  0.3475
 7780TIP3   OH244754   4.381   4.687   1.359  0.0433 -0.1634 -0.1808
 7780TIP3    H144755   4.417   4.775   1.345  1.3261 -0.6773 -0.2233
 7780TIP3    H244756   4.290   4.693   1.328  0.4057  0.8891 -1.0969
 7781TIP3   OH244757   0.747   3.697  12.313 -0.3414  0.3703 -0.2433
 7781TIP3    H144758   0.665   3.735  12.283 -0.5458  0.0622 -0.0872
 7781TIP3    H244759   0.720   3.619  12.363  0.0454  0.2533 -0.2145
 7782TIP3   OH244760   6.748   6.636  11.235 -0.3810 -0.3256 -0.0150
 7782TIP3    H144761   6.826   6.641  11.291  0.7596 -2.2679 -1.3125
 7782TIP3    H244762   6.712   6.549  11.252 -1.3852 -0.0337 -0.5676
 7783TIP3   OH244763   5.402   6.379   3.342 -0.0368  0.1542  0.1915
 7783TIP3    H144764   5.337   6.379   3.272  0.6699 -0.9636 -0.4946
 7783TIP3    H244765   5.367   6.317   3.407 -0.0744  0.2117  0.2256
 7784TIP3   OH244766   0.351   6.120   5.403 -0.2374 -0.6882  0.3728
 7784TIP3    H144767   0.344   6.064   5.480  1.9787 -1.1171  0.3376
 7784TIP3    H244768   0.348   6.209   5.438 -1.9066 -0.8184  0.6292
 7785TIP3   OH244769   6.539   0.343  10.714 -0.0709  0.3668  0.1497
 7785TIP3    H144770   6.559   0.252  10.732  0.3501  0.4791  0.2645
 7785TIP3    H244771   6.613   0.374  10.661 -2.3960 -0.6701 -4.2418
 7786TIP3   OH244772   6.580   4.142  14.812 -0.1582  0.4142  0.3706
 7786TIP3    H144773   6.553   4.166  14.901 -1.9245  0.6945 -0.2067
 7786TIP3    H244774   6.547   4.213  14.757 -1.4104 -1.0033 -0.8058
 7787TIP3   OH244775   0.407   0.511   2.702  0.1192 -0.1106  0.2638
 7787TIP3    H144776   0.414   0.419   2.726 -0.5331  0.0393  1.0931
 7787TIP3    H244777   0.319   0.521   2.666  0.1224  0.2191  0.3380
 7788TIP3   OH244778   2.313   5.279  12.013 -0.1472  0.1598  0.5609
 7788TIP3    H144779   2.228   5.311  12.041 -1.4552 -2.1483 -0.5320
 7788TIP3    H244780   2.311   5.185  12.027  1.4245 -0.2574 -1.3890
 7789TIP3   OH244781   6.019   5.139  12.303  0.2318 -0.6660  0.0180
 7789TIP3    H144782   6.046   5.231  12.305  0.2257 -0.6776  1.5844
 7789TIP3    H244783   6.094   5.093  12.265  1.0091 -0.2374  0.9839
 7790TIP3   OH244784   0.816   0.694   3.720 -0.5312  0.1293  0.2369
 7790TIP3    H144785   0.782   0.725   3.636 -1.0359  0.3878  0.5284
 7790TIP3    H244786   0.809   0.770   3.778  0.2769  0.0979  0.3875
 7791TIP3   OH244787   2.289   0.910  14.262 -0.6578 -0.1870  0.1579
 7791TIP3    H144788   2.247   0.840  14.211  0.9309 -1.2115  0.1945
 7791TIP3    H244789   2.306   0.870  14.347  1.9122 -0.4212 -0.3853
 7792TIP3   OH244790   3.266   4.882   2.248  0.3082 -0.3839  0.3626
 7792TIP3    H144791   3.243   4.933   2.326 -1.7852  0.8633 -0.9787
 7792TIP3    H244792   3.183   4.858   2.209  1.0891  2.0340 -3.3370
 7793TIP3   OH244793   3.255   2.021  13.832 -0.1948 -0.0306 -0.2771
 7793TIP3    H144794   3.263   1.958  13.903 -0.8268 -0.7973 -0.8635
 7793TIP3    H244795   3.233   1.968  13.755 -1.9432  1.0098 -0.5500
 7794TIP3   OH244796   0.890   1.007  12.230  0.1409 -0.0590 -0.2773
 7794TIP3    H144797   0.925   1.077  12.174  2.3556 -1.4149 -0.7174
 7794TIP3    H244798   0.903   1.040  12.320 -1.4213  1.1995 -0.4573
 7795TIP3   OH244799   5.513   4.309  10.471 -0.1704  0.6485 -0.0469
 7795TIP3    H144800   5.458   4.231  10.464  1.0904 -0.2203 -0.6920
 7795TIP3    H244801   5.543   4.326  10.382  2.6128 -0.4491  0.5640
 7796TIP3   OH244802   0.675   0.022   5.474 -0.4600  0.2707 -0.3509
 7796TIP3    H144803   0.621  -0.057   5.472 -0.3271  0.1870 -0.7216
 7796TIP3    H244804   0.629   0.083   5.415 -1.0690  0.8080  0.6444
 7797TIP3   OH244805   2.066   0.625   6.078 -0.6959  0.1205 -0.0745
 7797TIP3    H144806   2.148   0.672   6.065 -1.1052  1.0849  0.6454
 7797TIP3    H244807   2.028   0.666   6.156 -1.3202 -1.0743  0.2691
 7798TIP3   OH244808   0.754   1.277   3.545  0.9757 -0.4007 -0.1550
 7798TIP3    H144809   0.672   1.241   3.581  1.9954 -1.9156  0.7562
 7798TIP3    H244810   0.774   1.351   3.602  2.6466 -2.8571  2.7476
 7799TIP3   OH244811   5.373   0.354  17.248  0.2522 -0.1114  0.4800
 7799TIP3    H144812   5.383   0.275  17.194  1.8203  0.2511  0.1990
 7799TIP3    H244813   5.333   0.418  17.189 -0.4579 -0.4955  0.5320
 7800TIP3   OH244814   0.644   2.828   0.224  0.9306 -0.0492 -0.4777
 7800TIP3    H144815   0.599   2.839   0.307  2.0244  0.6288  0.0413
 7800TIP3    H244816   0.711   2.895   0.223  0.9937 -0.0939 -1.8855
 7801TIP3   OH244817   0.854   6.100   1.155 -0.7689  0.5669 -0.0730
 7801TIP3    H144818   0.771   6.073   1.195 -0.4662 -0.2215  0.0214
 7801TIP3    H244819   0.902   6.019   1.142  0.2735  1.0761  0.5010
 7802TIP3   OH244820   3.203   0.241   1.635 -0.4854  0.0393 -0.1254
 7802TIP3    H144821   3.247   0.194   1.565 -1.3737 -1.7707  0.4777
 7802TIP3    H244822   3.111   0.243   1.609 -0.8191 -0.6212  0.9391
 7803TIP3   OH244823   3.560   0.601  14.277 -0.4619 -0.8421 -0.1080
 7803TIP3    H144824   3.592   0.645  14.199  1.7363 -0.4877  0.9208
 7803TIP3    H244825   3.493   0.660  14.312  1.0865  0.8197  0.1945
 7804TIP3   OH244826   1.938   3.413  11.582 -0.6351  0.0826  0.1098
 7804TIP3    H144827   1.964   3.439  11.493 -0.7993 -0.0339  0.0264
 7804TIP3    H244828   1.842   3.409  11.578 -0.6058 -0.7763  0.0570
 7805TIP3   OH244829   2.577   1.492  15.558  0.3891  0.0010 -0.1910
 7805TIP3    H144830   2.647   1.448  15.512  1.2685  1.8377 -0.6883
 7805TIP3    H244831   2.514   1.517  15.490  0.5538  0.6749 -0.1025
 7806TIP3   OH244832   3.726   0.026  11.392  0.0211 -0.2528  0.3364
 7806TIP3    H144833   3.801   0.019  11.451 -0.1036  1.1171  0.6869
 7806TIP3    H244834   3.650   0.033  11.450 -0.3355 -1.0957 -0.0151
 7807TIP3   OH244835   6.702   4.131  12.055 -0.3979  0.6920  0.4108
 7807TIP3    H144836   6.717   4.049  12.102  1.5737 -0.2538 -1.6893
 7807TIP3    H244837   6.762   4.194  12.097  1.8798 -0.3253 -1.0956
 7808TIP3   OH244838   1.273   5.638   3.779 -0.2582  0.1214  0.2677
 7808TIP3    H144839   1.315   5.717   3.815 -0.0006 -0.6228  1.6983
 7808TIP3    H244840   1.211   5.671   3.715  1.8840  1.3247 -1.3317
 7809TIP3   OH244841   1.125   2.410  11.666 -0.3081 -0.5051 -0.5934
 7809TIP3    H144842   1.109   2.489  11.614  2.2903  0.0377 -0.7113
 7809TIP3    H244843   1.076   2.423  11.747 -2.5787 -0.3316 -1.9057
 7810TIP3   OH244844   5.921   0.005  11.388  0.1972  0.1799  0.3797
 7810TIP3    H144845   5.861   0.013  11.462 -1.4008 -0.1433 -0.8243
 7810TIP3    H244846   5.874   0.044  11.314  1.9126  0.8726 -0.4016
 7811TIP3   OH244847   5.205   2.471   0.356  0.0044 -0.1037 -0.1639
 7811TIP3    H144848   5.298   2.470   0.332  0.3120  1.5245  0.7793
 7811TIP3    H244849   5.202   2.426   0.441  0.0056  0.2086  0.0037
 7812TIP3   OH244850   0.484   5.095  12.400 -0.1826 -0.2668  0.1498
 7812TIP3    H144851   0.556   5.056  12.350 -1.5397 -0.3985 -1.7985
 7812TIP3    H244852   0.508   5.079  12.491  2.4277  0.0153 -0.3830
 7813TIP3   OH244853   5.379   2.378  13.481  0.4521 -0.0660  0.1466
 7813TIP3    H144854   5.385   2.393  13.575 -1.8220  2.9169 -0.0621
 7813TIP3    H244855   5.468   2.392  13.449  0.9464  0.3936  1.6501
 7814TIP3   OH244856   4.126   2.875  13.499  0.2433 -0.3402 -0.1441
 7814TIP3    H144857   4.060   2.808  13.518 -0.6192  0.6559  0.5471
 7814TIP3    H244858   4.209   2.829  13.503 -0.4626 -2.0744 -2.9869
 7815TIP3   OH244859   5.103   3.075   3.586 -0.1723 -0.3350  0.1014
 7815TIP3    H144860   5.164   3.072   3.659  0.5524 -2.1229 -0.5331
 7815TIP3    H244861   5.017   3.057   3.626 -0.1085  0.7771  0.7811
 7816TIP3   OH244862   2.077   2.295  16.612 -0.4539 -0.1160 -0.4027
 7816TIP3    H144863   2.159   2.294  16.661 -0.2640 -0.1469 -0.7131
 7816TIP3    H244864   2.017   2.347  16.665 -0.1475  0.1399 -0.3071
 7817TIP3   OH244865   6.039   3.519   3.753  0.3697  0.6293 -0.2858
 7817TIP3    H144866   6.016   3.430   3.726 -2.1892  1.0931  0.1167
 7817TIP3    H244867   6.123   3.510   3.797  0.2693 -1.5427 -0.4389
 7818TIP3   OH244868   4.268   3.272   5.292  0.4786  0.3860  0.1405
 7818TIP3    H144869   4.272   3.367   5.295 -1.2363  0.5764 -1.3686
 7818TIP3    H244870   4.251   3.252   5.200  0.7304 -1.3741  0.4425
 7819TIP3   OH244871   0.528   5.333  12.923 -0.4886 -0.1928 -0.4498
 7819TIP3    H144872   0.594   5.267  12.900 -0.6523 -0.2190 -0.8719
 7819TIP3    H244873   0.559   5.371  13.005 -0.9126 -1.5010  0.3323
 7820TIP3   OH244874   3.445   1.810  14.744  0.3184  0.1734  0.0298
 7820TIP3    H144875   3.382   1.739  14.726 -0.2725 -0.0203  2.5035
 7820TIP3    H244876   3.529   1.766  14.751  0.7906  0.3806 -2.8774
 7821TIP3   OH244877   0.479   4.414  12.561 -0.0375  0.5713  0.1525
 7821TIP3    H144878   0.514   4.326  12.566 -0.3602  0.4637  0.5223
 7821TIP3    H244879   0.542   4.468  12.609  0.9195  0.7859 -1.2788
 7822TIP3   OH244880   5.556   0.299   4.560  0.1154  0.0639 -0.0886
 7822TIP3    H144881   5.583   0.221   4.512  0.7898  0.5393 -0.4920
 7822TIP3    H244882   5.499   0.266   4.629 -2.5310 -0.4865 -2.3533
 7823TIP3   OH244883   3.912   4.019  14.144 -0.0212  0.7380 -0.0138
 7823TIP3    H144884   3.842   3.968  14.103  1.9340 -1.8892 -0.3234
 7823TIP3    H244885   3.970   4.042  14.072  0.8231  0.5408  0.5969
 7824TIP3   OH244886   3.223   2.507  11.177 -0.0918 -0.1087  0.2524
 7824TIP3    H144887   3.266   2.542  11.255 -0.5136  0.5057  0.2170
 7824TIP3    H244888   3.277   2.539  11.104  0.2777 -0.6470  0.2837
 7825TIP3   OH244889   1.872   4.958  10.985 -0.0970  0.4566 -0.5188
 7825TIP3    H144890   1.913   4.956  10.899 -1.8112 -1.5243 -1.3571
 7825TIP3    H244891   1.800   5.020  10.976  0.2194  0.8711 -0.2441
 7826TIP3   OH244892   6.609   5.603  11.537 -0.1470 -0.5510  0.4772
 7826TIP3    H144893   6.574   5.693  11.536  1.3537  0.1345 -2.1607
 7826TIP3    H244894   6.703   5.615  11.522  0.1275 -2.5682  0.4300
 7827TIP3   OH244895   0.512   3.491   6.246  0.2081 -0.6259  0.5315
 7827TIP3    H144896   0.490   3.519   6.335 -3.0363  0.9623 -0.6302
 7827TIP3    H244897   0.450   3.421   6.227  1.1935 -1.2887 -0.3350
 7828TIP3   OH244898   6.119   4.320   6.268 -1.0454  0.1539 -0.1253
 7828TIP3    H144899   6.183   4.390   6.252 -0.4624 -0.1159  0.8882
 7828TIP3    H244900   6.040   4.366   6.296 -0.8764  0.4479 -0.1196
 7829TIP3   OH244901   1.570   6.748  16.083  0.0949 -0.3482 -0.6525
 7829TIP3    H144902   1.544   6.794  16.163 -1.6253  0.0925 -1.4087
 7829TIP3    H244903   1.617   6.813  16.032 -0.2681 -0.1266 -0.7081
 7830TIP3   OH244904   6.686   3.988   5.635  0.0563 -0.5045 -0.1028
 7830TIP3    H144905   6.761   3.935   5.663  0.5691  0.5250  0.4998
 7830TIP3    H244906   6.670   3.960   5.544  1.4492 -0.4241 -0.3998
 7831TIP3   OH244907   1.409   6.665  15.712  0.6049 -0.3735 -0.6218
 7831TIP3    H144908   1.410   6.714  15.794 -0.9153 -0.9024 -0.2444
 7831TIP3    H244909   1.341   6.708  15.659 -1.1461 -2.2864 -0.0770
 7832TIP3   OH244910   0.873   1.282   0.865 -0.1460  0.1612  0.2641
 7832TIP3    H144911   0.825   1.277   0.948  0.6248 -1.7325  0.6536
 7832TIP3    H244912   0.956   1.323   0.888  0.1375 -0.5226  0.4770
 7833TIP3   OH244913   5.084   5.097  15.898  0.5691 -0.1613 -0.9036
 7833TIP3    H144914   5.086   5.002  15.884 -0.1996 -0.4165  0.5122
 7833TIP3    H244915   5.001   5.112  15.944  0.5825  1.2343 -1.3154
 7834TIP3   OH244916   6.164   6.484   5.007  0.4197  0.0288  0.1612
 7834TIP3    H144917   6.072   6.510   5.004 -0.0040 -1.4209 -0.3956
 7834TIP3    H244918   6.171   6.430   5.085  1.0851  1.0758  0.8410
 7835TIP3   OH244919   1.310   1.964   4.638 -0.2932  0.0437 -0.2693
 7835TIP3    H144920   1.292   1.888   4.693  0.4608 -0.6974 -1.0192
 7835TIP3    H244921   1.405   1.960   4.622 -0.4717  0.3458 -1.4826
 7836TIP3   OH244922   4.334   2.418   0.975 -0.0156 -0.2851 -0.0159
 7836TIP3    H144923   4.273   2.414   0.901  0.7574  2.8478 -1.0021
 7836TIP3    H244924   4.421   2.420   0.935  0.4650  0.3907  1.0030
 7837TIP3   OH244925   1.159   6.372   2.610  0.2028  0.4373 -0.1280
 7837TIP3    H144926   1.128   6.410   2.528  1.1519  1.8092  0.1123
 7837TIP3    H244927   1.195   6.446   2.658 -2.9249  0.3190  2.8215
 7838TIP3   OH244928   6.697   3.280   0.665 -0.5321 -0.1618  0.7228
 7838TIP3    H144929   6.730   3.272   0.576  0.9933  1.7026  1.0551
 7838TIP3    H244930   6.603   3.297   0.655 -0.5107 -0.6410 -0.4608
 7839TIP3   OH244931   5.677   0.072  15.752 -0.2504  0.5864  0.2306
 7839TIP3    H144932   5.769   0.078  15.727  0.2779 -0.7099  1.6738
 7839TIP3    H244933   5.635   0.145  15.707  1.3874  0.9374 -0.8233
 7840TIP3   OH244934   0.861   6.615  16.272 -0.5526 -0.4267  0.0202
 7840TIP3    H144935   0.804   6.673  16.321 -1.2143 -0.3933 -0.7728
 7840TIP3    H244936   0.882   6.663  16.192  3.2506  0.9581  1.6312
 7841TIP3   OH244937   3.891   5.381  11.581  0.0818 -0.1051  0.0115
 7841TIP3    H144938   3.940   5.452  11.540  0.5747 -1.1315 -1.2683
 7841TIP3    H244939   3.944   5.303  11.564 -0.2753 -0.7584  1.6558
 7842TIP3   OH244940   3.913   3.370  16.469  0.1493  0.0604  0.6411
 7842TIP3    H144941   3.964   3.327  16.400  1.4331 -1.3438  2.3842
 7842TIP3    H244942   3.866   3.299  16.513 -3.1132  1.2536 -0.6008
 7843TIP3   OH244943   6.563   4.875  14.460  0.3562  0.5904  0.0435
 7843TIP3    H144944   6.577   4.830  14.544  0.4185 -1.0496 -0.8030
 7843TIP3    H244945   6.483   4.925  14.473 -0.0017 -0.1702  0.8832
 7844TIP3   OH244946   4.148   5.928   4.964  0.2469  0.5704 -0.5352
 7844TIP3    H144947   4.088   5.976   5.021 -0.2636  1.6652 -1.9355
 7844TIP3    H244948   4.222   5.987   4.952  0.6596  0.0695 -0.4587
 7845TIP3   OH244949   3.988   4.540   5.873 -0.1138 -0.3192  0.1688
 7845TIP3    H144950   3.952   4.453   5.886  1.3346 -0.9164  0.4561
 7845TIP3    H244951   4.072   4.525   5.829 -0.3280  1.0095 -0.7568
 7846TIP3   OH244952   1.942   6.180   3.907 -0.0871 -0.2752  0.2120
 7846TIP3    H144953   1.987   6.096   3.901  2.2227  0.8570  0.5295
 7846TIP3    H244954   1.940   6.212   3.817 -0.5197 -0.4244  0.1641
 7847TIP3   OH244955   1.199   4.111   2.691 -0.4209 -0.1727  0.1077
 7847TIP3    H144956   1.204   4.053   2.767  0.6292  0.4942  0.5593
 7847TIP3    H244957   1.119   4.083   2.645  1.1062 -3.4225 -0.8831
 7848TIP3   OH244958   1.439   5.484  12.177 -0.2707  0.7775 -0.0020
 7848TIP3    H144959   1.534   5.473  12.170 -0.3679 -1.3693  1.2514
 7848TIP3    H244960   1.404   5.431  12.105 -0.5415 -1.1742  1.4749
 7849TIP3   OH244961   3.382   0.210  13.789 -0.2081 -0.3910  0.3357
 7849TIP3    H144962   3.298   0.219  13.744 -0.1893 -2.2709 -0.1615
 7849TIP3    H244963   3.362   0.227  13.881 -1.1877 -0.9823  0.2469
 7850TIP3   OH244964   2.621   6.243   2.844  0.1400 -0.2154 -0.6574
 7850TIP3    H144965   2.605   6.266   2.752  1.5550  2.2028 -0.3852
 7850TIP3    H244966   2.707   6.200   2.842  0.1068 -0.2870 -0.4896
 7851TIP3   OH244967   4.220   4.320   5.329  0.0482  0.7338  0.5645
 7851TIP3    H144968   4.222   4.369   5.246 -1.0526  0.4159  0.3415
 7851TIP3    H244969   4.310   4.325   5.361  0.6271  0.3787 -0.9332
 7852TIP3   OH244970   4.489   4.475   5.709  0.8503  0.5038  0.3503
 7852TIP3    H144971   4.510   4.556   5.663 -0.8215  0.3077 -0.8493
 7852TIP3    H244972   4.562   4.461   5.769 -0.1824  4.5200  2.9133
 7853TIP3   OH244973   0.621   5.795  11.757  0.0869  1.2707  0.0690
 7853TIP3    H144974   0.565   5.821  11.830  2.2473  1.0653  1.8989
 7853TIP3    H244975   0.578   5.717  11.721  0.0357  0.0820  2.5269
 7854TIP3   OH244976   2.325   6.485   2.839  0.7015 -0.2124  0.4116
 7854TIP3    H144977   2.360   6.490   2.751 -0.3525 -0.3972 -0.0406
 7854TIP3    H244978   2.383   6.538   2.893  1.4207 -0.2060 -0.3711
 7855TIP3   OH244979   0.051   0.015   1.818  0.4820 -0.2947  0.6948
 7855TIP3    H144980   0.064  -0.005   1.911 -2.5088 -1.0337  1.0687
 7855TIP3    H244981   0.029   0.108   1.816  0.6616 -0.2521  0.7168
 7856TIP3   OH244982   6.305   3.832   5.649 -0.4199  0.0953 -0.6400
 7856TIP3    H144983   6.279   3.913   5.693  0.2542  0.0784 -0.1932
 7856TIP3    H244984   6.343   3.861   5.566  0.4250  0.2998 -0.1998
 7857TIP3   OH244985   0.645   0.937   1.289 -0.3806 -0.3204  0.2272
 7857TIP3    H144986   0.640   0.885   1.208  2.7047  0.9449 -0.9304
 7857TIP3    H244987   0.603   0.882   1.355 -1.1336 -2.3499 -1.7936
 7858TIP3   OH244988   0.966   3.334   0.688  0.0999  0.0036 -0.3291
 7858TIP3    H144989   1.004   3.249   0.663  0.6325 -0.3108  1.4635
 7858TIP3    H244990   1.023   3.398   0.646  0.1173 -0.5079 -1.1111
 7859TIP3   OH244991   3.679   1.856   1.950  0.1596  0.3249 -0.1029
 7859TIP3    H144992   3.653   1.778   1.900  0.8658  0.3727 -0.5637
 7859TIP3    H244993   3.602   1.879   2.001 -1.0026  0.9501 -2.0297
 7860TIP3   OH244994   5.730   0.853  14.119 -0.0328  0.2472 -0.1166
 7860TIP3    H144995   5.825   0.850  14.120 -0.0141 -3.3512  1.3488
 7860TIP3    H244996   5.708   0.933  14.166  2.3253 -0.1493  1.8609
 7861TIP3   OH244997   2.776   1.466   3.777  0.0010  0.4756 -0.1520
 7861TIP3    H144998   2.733   1.519   3.710 -1.5950 -1.1655 -0.4892
 7861TIP3    H244999   2.849   1.424   3.730 -0.4216  0.2148 -0.5853
 7862TIP3   OH245000   2.879   2.538   0.918  0.1846 -0.4660  0.1904
 7862TIP3    H145001   2.851   2.451   0.945  1.2874 -1.7367 -2.4997
 7862TIP3    H245002   2.810   2.569   0.860  0.2845  0.0456  0.3384
 7863TIP3   OH245003   3.841   5.200   3.878  0.0570 -0.2944  0.1184
 7863TIP3    H145004   3.792   5.236   3.951  0.3377 -0.5363  0.4308
 7863TIP3    H245005   3.781   5.139   3.835  0.3958 -1.3852  1.1186
 7864TIP3   OH245006   6.173   1.132  16.144  0.4340  0.3887 -0.6828
 7864TIP3    H145007   6.195   1.132  16.051  1.4158 -0.1733 -0.4666
 7864TIP3    H245008   6.253   1.163  16.187  0.1169  0.2696  0.0034
 7865TIP3   OH245009   0.766   5.591   1.379  0.0050  0.3167  0.7005
 7865TIP3    H145010   0.710   5.522   1.415 -0.7775  0.9306  0.6894
 7865TIP3    H245011   0.722   5.672   1.403  0.0673  0.7738 -0.6586
 7866TIP3   OH245012   3.725   5.133  14.152  1.1606 -0.1734 -0.0227
 7866TIP3    H145013   3.787   5.153  14.222  0.9608 -0.0063  0.1052
 7866TIP3    H245014   3.651   5.191  14.167  0.0323 -1.8174  1.0429
 7867TIP3   OH245015   5.682   4.797  14.921 -0.0516 -0.7293 -0.3163
 7867TIP3    H145016   5.597   4.824  14.957 -0.9473 -2.2498 -1.1710
 7867TIP3    H245017   5.722   4.746  14.992 -0.2683 -0.7845 -0.2315
 7868TIP3   OH245018   2.815   6.501   4.500 -0.0938  0.0472 -0.1474
 7868TIP3    H145019   2.772   6.416   4.491 -2.6717  1.1406  0.7153
 7868TIP3    H245020   2.857   6.516   4.415 -0.3939 -1.6564 -0.6222
 7869TIP3   OH245021   1.348   2.764   2.887  0.0872  0.3216  0.3455
 7869TIP3    H145022   1.343   2.853   2.921 -0.8365  0.3704  0.1062
 7869TIP3    H245023   1.276   2.758   2.825  2.4765  0.6548 -2.6940
 7870TIP3   OH245024   2.950   2.686   4.359 -0.5093 -0.5725 -0.0852
 7870TIP3    H145025   2.874   2.702   4.415  1.8743  2.2315  2.7051
 7870TIP3    H245026   2.937   2.744   4.284 -0.9379  0.1731  0.5521
 7871TIP3   OH245027   6.675   1.790   5.037  0.2492 -0.1635  0.1568
 7871TIP3    H145028   6.581   1.775   5.030  0.0003  0.7847  1.1720
 7871TIP3    H245029   6.700   1.750   5.121  0.4274  0.9564  0.6663
 7872TIP3   OH245030   4.573   6.203  13.533 -0.1959 -0.2538 -0.0265
 7872TIP3    H145031   4.578   6.179  13.625 -0.3866 -3.8616 -0.7965
 7872TIP3    H245032   4.663   6.200  13.501  0.1427  2.8706  0.3060
 7873TIP3   OH245033   3.818   0.642   2.414 -0.6331 -0.5887  0.8226
 7873TIP3    H145034   3.757   0.603   2.476  0.8458  0.1686  2.8443
 7873TIP3    H245035   3.878   0.571   2.390 -0.7574 -0.6953  0.8271
 7874TIP3   OH245036   0.174   6.108   0.503  0.3581 -0.3187  0.3129
 7874TIP3    H145037   0.131   6.079   0.584  0.0393 -2.0122 -0.4127
 7874TIP3    H245038   0.102   6.123   0.442  0.6868 -1.8090 -0.4891
 7875TIP3   OH245039   0.890   4.056   4.719  0.0623  0.5965  0.2357
 7875TIP3    H145040   0.860   4.008   4.642 -1.9843  2.6772 -0.3599
 7875TIP3    H245041   0.965   4.106   4.688 -1.0102  1.7471 -0.5665
 7876TIP3   OH245042   2.844   2.855  12.762 -0.4174 -0.0817 -0.4897
 7876TIP3    H145043   2.898   2.830  12.838 -0.9858 -0.5044 -0.2136
 7876TIP3    H245044   2.754   2.852  12.795 -0.6393  0.1946 -1.0603
 7877TIP3   OH245045   6.129   5.519   5.032 -0.4729  0.4957 -0.4397
 7877TIP3    H145046   6.190   5.527   5.105  0.0478  0.0849 -0.8207
 7877TIP3    H245047   6.045   5.498   5.073  0.2304 -1.9137 -0.0348
 7878TIP3   OH245048   0.821   5.644  14.990 -0.1399 -0.2311  0.5621
 7878TIP3    H145049   0.813   5.560  15.034  0.7963 -0.5288  0.2052
 7878TIP3    H245050   0.915   5.652  14.970 -0.2727  0.7038  0.2204
 7879TIP3   OH245051   5.360   1.462   4.715  0.6515  0.2477 -0.0123
 7879TIP3    H145052   5.346   1.433   4.805 -0.9400  1.5157  0.2020
 7879TIP3    H245053   5.344   1.556   4.718 -0.2547  0.1817 -1.7645
 7880TIP3   OH245054   3.169   0.564   0.726 -0.0375 -0.0926 -0.2001
 7880TIP3    H145055   3.195   0.475   0.702 -0.0614 -0.0339 -0.4485
 7880TIP3    H245056   3.214   0.581   0.809 -0.3160 -0.4661  0.0287
 7881TIP3   OH245057   3.739   1.218  16.523  0.6344  0.2680  0.3165
 7881TIP3    H145058   3.823   1.177  16.502 -0.7842 -3.2426  0.7194
 7881TIP3    H245059   3.715   1.183  16.609 -0.7009  2.1543  0.7821
 7882TIP3   OH245060   0.228   0.317  14.812 -0.0871 -0.2219 -0.2000
 7882TIP3    H145061   0.323   0.315  14.815 -0.0995 -1.2940  0.0956
 7882TIP3    H245062   0.203   0.374  14.884  0.3203 -0.8126  0.4220
 7883TIP3   OH245063   5.682   6.088   1.105 -0.3387 -0.0547 -0.3953
 7883TIP3    H145064   5.666   6.179   1.078 -1.0132 -0.4466 -1.3623
 7883TIP3    H245065   5.736   6.052   1.035 -0.0760 -0.4044 -0.0136
 7884TIP3   OH245066   4.829   1.815  15.697 -0.0324 -0.2047 -0.3638
 7884TIP3    H145067   4.876   1.757  15.638 -0.3747 -1.6778  0.7385
 7884TIP3    H245068   4.746   1.769  15.715 -0.0351  0.2918  1.0522
 7885TIP3   OH245069   5.408   4.462   1.302 -0.3688 -0.1527  0.2186
 7885TIP3    H145070   5.325   4.465   1.254 -0.0841  0.4420 -0.2490
 7885TIP3    H245071   5.382   4.469   1.394 -0.7167  2.8947 -0.0155
 7886TIP3   OH245072   4.654   0.988   5.361 -0.4467  0.1259  0.1671
 7886TIP3    H145073   4.661   0.962   5.269  1.1956  1.6979 -0.2033
 7886TIP3    H245074   4.688   1.077   5.364 -0.3839  0.0872  2.3289
 7887TIP3   OH245075   2.764   6.662   0.361 -0.3313 -0.4762 -0.2914
 7887TIP3    H145076   2.730   6.664   0.272  1.0366 -1.2612 -0.8635
 7887TIP3    H245077   2.768   6.568   0.382 -1.8607 -0.2732  1.1081
 7888TIP3   OH245078   2.441   0.506  12.111  0.2828 -0.0934  0.1747
 7888TIP3    H145079   2.477   0.420  12.133  2.3084  0.6150 -0.1641
 7888TIP3    H245080   2.516   0.556  12.081 -0.9601  1.6354 -0.1797
 7889TIP3   OH245081   4.078   5.430  15.356 -0.1988 -0.3640  0.0990
 7889TIP3    H145082   4.000   5.412  15.304 -0.3298 -1.1016  0.5438
 7889TIP3    H245083   4.150   5.388  15.307  0.4639  2.7387 -1.8785
 7890TIP3   OH245084   4.766   6.439  11.324  0.3930 -0.0250 -0.8602
 7890TIP3    H145085   4.777   6.406  11.235 -1.5040  0.2788 -1.2389
 7890TIP3    H245086   4.855   6.439  11.361  1.2149 -0.1098 -2.7498
 7891TIP3   OH245087   1.675   4.089   2.827 -0.6742  0.5998 -0.1338
 7891TIP3    H145088   1.650   4.097   2.735 -0.3382  0.8882 -0.2018
 7891TIP3    H245089   1.732   4.013   2.830 -1.0034  0.3512 -0.0944
 7892TIP3   OH245090   6.721   0.764   0.999  0.4439  0.1136  0.0593
 7892TIP3    H145091   6.764   0.827   1.058 -2.1348 -0.6510  3.0655
 7892TIP3    H245092   6.758   0.679   1.023 -0.5256 -0.1883  0.5443
 7893TIP3   OH245093   4.425   0.762  16.834 -0.3155  0.4557 -0.4583
 7893TIP3    H145094   4.492   0.740  16.899  0.3957  2.7203 -0.3352
 7893TIP3    H245095   4.353   0.702  16.853  1.5863 -1.9958 -0.5269
 7894TIP3   OH245096   5.318   3.806   4.558 -0.1992 -0.7604  0.1013
 7894TIP3    H145097   5.244   3.861   4.581 -0.1100 -0.0726 -1.1594
 7894TIP3    H245098   5.357   3.782   4.642 -0.0374  1.4050  0.7130
 7895TIP3   OH245099   2.980   4.490   4.519  0.0351  0.1781 -0.3441
 7895TIP3    H145100   2.901   4.516   4.566  0.9373  2.3041  0.0794
 7895TIP3    H245101   2.958   4.405   4.481 -3.0233  1.3928 -1.5878
 7896TIP3   OH245102   4.489   1.453   4.282 -0.0935  0.5024  0.4748
 7896TIP3    H145103   4.552   1.520   4.308  1.4863  0.0064 -1.7890
 7896TIP3    H245104   4.531   1.407   4.209 -2.3536 -1.0286  0.0250
 7897TIP3   OH245105   1.371   2.404   1.898  0.8121  1.1724 -0.2008
 7897TIP3    H145106   1.348   2.313   1.881 -2.4317  2.2507 -2.5183
 7897TIP3    H245107   1.462   2.400   1.928  0.3920 -2.8830  1.1757
 7898TIP3   OH245108   1.797   5.863  16.356 -0.1545  0.0378 -0.2697
 7898TIP3    H145109   1.812   5.848  16.263 -1.0861  1.0334 -0.6029
 7898TIP3    H245110   1.750   5.784  16.386  0.9045 -0.6697 -0.4223
 7899TIP3   OH245111   4.485   2.799  14.873 -0.2590 -0.0301  0.1235
 7899TIP3    H145112   4.569   2.755  14.867  0.0682  0.6486 -0.3457
 7899TIP3    H245113   4.499   2.869  14.937  0.0978  1.3113 -1.3787
 7900TIP3   OH245114   4.534   2.166  10.947  0.6144 -0.1206  0.0531
 7900TIP3    H145115   4.543   2.261  10.940  3.9321 -0.2715  0.5370
 7900TIP3    H245116   4.568   2.133  10.863  1.7636 -0.9124  0.8105
 7901TIP3   OH245117   4.396   2.709   2.560 -0.0063 -0.2421 -0.4524
 7901TIP3    H145118   4.358   2.658   2.631  1.1071 -0.2649  0.1514
 7901TIP3    H245119   4.395   2.799   2.592  1.7467 -0.4175  0.1963
 7902TIP3   OH245120   3.641   6.294   1.222  1.0251  0.1845 -0.3282
 7902TIP3    H145121   3.721   6.279   1.171  0.0523 -1.2074 -1.5064
 7902TIP3    H245122   3.584   6.343   1.163  0.5188  0.0485  0.0409
 7903TIP3   OH245123   0.249   3.694  13.609 -0.0524  0.2683  1.0838
 7903TIP3    H145124   0.261   3.753  13.535 -2.4506 -0.1188  0.3216
 7903TIP3    H245125   0.288   3.612  13.580 -2.5915 -0.4517 -0.6066
 7904TIP3   OH245126   0.488   0.570  15.246  0.3058 -0.4566 -0.1251
 7904TIP3    H145127   0.506   0.628  15.320 -0.9854  0.0816 -0.2140
 7904TIP3    H245128   0.524   0.486  15.273  0.7521 -0.0239  0.6854
 7905TIP3   OH245129   5.137   5.285  14.041 -0.5225 -0.8019 -0.0252
 7905TIP3    H145130   5.115   5.319  14.127  0.5718  0.0923 -0.0766
 7905TIP3    H245131   5.079   5.331  13.981  1.4125  1.6920 -0.1841
 7906TIP3   OH245132   6.080   0.126  14.426 -0.4849 -0.3390 -0.5123
 7906TIP3    H145133   6.017   0.096  14.491 -0.6196  0.2904 -0.3459
 7906TIP3    H245134   6.160   0.141  14.476 -0.1696 -1.2326 -0.7399
 7907TIP3   OH245135   6.467   0.950   4.594 -0.0549  0.0301  0.2059
 7907TIP3    H145136   6.461   0.858   4.620 -1.6120 -0.3362 -1.2285
 7907TIP3    H245137   6.376   0.980   4.590  0.3911  1.4794  0.1007
 7908TIP3   OH245138   1.488   3.755  15.165 -0.4740 -0.3454 -0.0475
 7908TIP3    H145139   1.546   3.832  15.163 -0.6819 -0.1909 -0.0988
 7908TIP3    H245140   1.532   3.695  15.225 -0.6696  0.1013  0.5498
 7909TIP3   OH245141   1.216   5.677  14.023  0.3206  0.0011  0.2625
 7909TIP3    H145142   1.271   5.599  14.024  0.4216  0.0622 -0.1603
 7909TIP3    H245143   1.126   5.643  14.029  0.3523 -0.1641 -0.1420
 7910TIP3   OH245144   5.300   0.123   3.856  0.3901 -0.4516  0.0995
 7910TIP3    H145145   5.297   0.155   3.765  2.4245  2.0553  0.7977
 7910TIP3    H245146   5.232   0.173   3.901 -0.6243 -1.7012 -0.0193
 7911TIP3   OH245147   5.822   2.184  15.263  0.1453 -0.0156  0.1353
 7911TIP3    H145148   5.843   2.245  15.334 -2.0642  1.2860 -0.2386
 7911TIP3    H245149   5.904   2.176  15.213  0.6743  2.1961  0.5342
 7912TIP3   OH245150   6.321   3.166   5.539 -0.6867 -0.3036  0.0330
 7912TIP3    H145151   6.233   3.142   5.568 -0.9011 -1.4757 -1.4698
 7912TIP3    H245152   6.318   3.157   5.443  0.8586  0.3653 -0.1080
 7913TIP3   OH245153   6.135   2.636   6.549  0.0246  0.4873  0.0374
 7913TIP3    H145154   6.181   2.636   6.465  0.3662  0.0143  0.2199
 7913TIP3    H245155   6.200   2.604   6.612  0.5056  2.9113  0.8822
 7914TIP3   OH245156   3.057   5.575  13.483 -0.4299 -0.5744  0.6877
 7914TIP3    H145157   3.033   5.492  13.442  0.5445 -0.7149  0.3844
 7914TIP3    H245158   2.983   5.633  13.464 -0.2436 -0.7842 -0.8436
 7915TIP3   OH245159   0.011   2.277   5.707  0.0664 -0.4195 -0.1856
 7915TIP3    H145160   0.055   2.349   5.663  1.0106 -0.0274  1.3135
 7915TIP3    H245161   0.045   2.280   5.797 -1.2264 -1.6174  0.3768
 7916TIP3   OH245162   5.173   4.199   1.158  0.1185 -0.0426  0.0016
 7916TIP3    H145163   5.082   4.177   1.177 -0.2597  1.3580 -0.0456
 7916TIP3    H245164   5.168   4.252   1.078  0.8092  1.2387  0.7747
 7917TIP3   OH245165   6.261   3.507  13.801 -0.6338  0.3850  0.3757
 7917TIP3    H145166   6.267   3.447  13.727 -2.8528  0.9991 -0.4016
 7917TIP3    H245167   6.345   3.500  13.845  0.6606 -0.2287 -2.0328
 7918TIP3   OH245168   4.183   0.756  11.553 -0.2749  0.4007 -0.0018
 7918TIP3    H145169   4.160   0.831  11.609 -0.2480  1.0101 -0.7918
 7918TIP3    H245170   4.240   0.793  11.486 -0.0214 -0.3941 -0.2294
 7919TIP3   OH245171   2.847   1.424  16.220 -0.3949 -0.3006  0.2922
 7919TIP3    H145172   2.906   1.429  16.145 -0.0430  2.4474  0.6183
 7919TIP3    H245173   2.903   1.396  16.293  0.1594  0.6825  0.2620
 7920TIP3   OH245174   6.319   0.698  11.881  0.5190 -0.6431 -0.0999
 7920TIP3    H145175   6.281   0.786  11.884  1.5550 -0.1824  1.2456
 7920TIP3    H245176   6.246   0.640  11.859 -0.3517  0.4698 -0.2364
 7921TIP3   OH245177   4.585   5.162  11.009  0.1210  0.2078  0.7996
 7921TIP3    H145178   4.613   5.143  11.099  1.6136  0.5645  0.4515
 7921TIP3    H245179   4.534   5.243  11.017  2.2568  1.6121  1.0966
 7922TIP3   OH245180   6.672   5.228   2.552 -0.3836 -0.0580 -0.3987
 7922TIP3    H145181   6.689   5.297   2.487  0.0920  0.2938  0.0898
 7922TIP3    H245182   6.754   5.221   2.601 -0.4104 -1.0227 -0.4865
 7923TIP3   OH245183   4.431   5.543   5.540  0.5475 -0.0359 -0.3224
 7923TIP3    H145184   4.409   5.468   5.595  0.9178 -0.1040 -0.2633
 7923TIP3    H245185   4.455   5.505   5.455 -2.4429  0.1909 -1.3868
 7924TIP3   OH245186   5.192   2.406   2.188  0.4270  0.0238  0.1254
 7924TIP3    H145187   5.257   2.418   2.120 -1.9179 -0.6167 -2.4131
 7924TIP3    H245188   5.155   2.493   2.202 -0.5876 -0.1779 -1.1148
 7925TIP3   OH245189   1.609   0.801  16.689  0.2430 -0.1434 -0.1011
 7925TIP3    H145190   1.542   0.869  16.685 -0.7443 -1.0175  1.2183
 7925TIP3    H245191   1.690   0.850  16.706 -0.4724  0.6991  1.0185
 7926TIP3   OH245192   3.611   3.595  14.842 -0.5774 -0.1733  0.7893
 7926TIP3    H145193   3.698   3.613  14.808 -1.8450  1.4889 -1.9097
 7926TIP3    H245194   3.590   3.507  14.810 -0.8309  0.4449 -0.8345
 7927TIP3   OH245195   5.623   4.738  14.060 -0.0316 -0.0497  0.2202
 7927TIP3    H145196   5.624   4.651  14.098  2.9110 -0.1520  0.1375
 7927TIP3    H245197   5.633   4.723  13.966 -1.2488  0.3842 -0.0064
 7928TIP3   OH245198   0.356   3.214   2.281  0.5426  0.1575  0.0058
 7928TIP3    H145199   0.317   3.292   2.242 -0.6831 -0.5581 -0.2279
 7928TIP3    H245200   0.432   3.196   2.225  0.7340  1.0508 -0.0530
 7929TIP3   OH245201   1.740   4.922  14.388 -0.4298 -0.1057 -0.1635
 7929TIP3    H145202   1.762   5.014  14.402 -3.6619  0.7956  0.0129
 7929TIP3    H245203   1.787   4.898  14.308 -0.7562  2.2682 -1.1671
 7930TIP3   OH245204   5.131   1.101  15.113  0.2176  0.6507 -0.3647
 7930TIP3    H145205   5.052   1.146  15.143 -0.7039  0.5476 -2.4242
 7930TIP3    H245206   5.204   1.154  15.145 -0.7630  2.0111 -0.3199
 7931TIP3   OH245207   6.597   1.243  14.330 -0.5891 -0.0607 -0.2430
 7931TIP3    H145208   6.580   1.317  14.389  1.6749  0.4567 -0.1409
 7931TIP3    H245209   6.551   1.266  14.249 -2.9340 -0.3147  0.9163
 7932TIP3   OH245210   2.320   5.602  13.185  0.3860  0.5298 -0.7869
 7932TIP3    H145211   2.397   5.556  13.153  0.1398 -0.5442  0.1034
 7932TIP3    H245212   2.246   5.549  13.156  0.0069  1.1844 -1.0494
 7933TIP3   OH245213   4.528   5.868   0.520  0.3056  0.0603  0.0379
 7933TIP3    H145214   4.572   5.859   0.436  0.9330  1.6393  0.1551
 7933TIP3    H245215   4.541   5.960   0.544  0.0222 -0.3212  1.7870
 7934TIP3   OH245216   2.343   3.879  16.675  0.8045 -0.6583 -0.4708
 7934TIP3    H145217   2.333   3.870  16.770  1.8953  0.2886 -0.2419
 7934TIP3    H245218   2.345   3.789  16.642  2.1973 -1.0589  0.6168
 7935TIP3   OH245219   0.594   5.495   0.508  0.1991 -0.0319  0.4788
 7935TIP3    H145220   0.532   5.427   0.482  0.2000  0.2071 -0.1868
 7935TIP3    H245221   0.627   5.529   0.425  0.1169  0.8521  0.7961
 7936TIP3   OH245222   2.137   4.586   0.039  0.0102 -0.0292 -0.5520
 7936TIP3    H145223   2.209   4.551   0.091 -0.5659 -0.3411  0.0529
 7936TIP3    H245224   2.161   4.566  -0.051  0.4925 -0.4900 -0.3292
 7937TIP3   OH245225   4.414   0.175   2.887  0.8717  0.1367  0.2407
 7937TIP3    H145226   4.416   0.255   2.940  1.2541 -0.3147  0.9273
 7937TIP3    H245227   4.369   0.200   2.807  0.1101  0.7944  0.8574
 7938TIP3   OH245228   4.510   1.549   0.399  0.1748 -0.1036 -0.3174
 7938TIP3    H145229   4.501   1.535   0.493 -0.7271  1.0740 -0.1983
 7938TIP3    H245230   4.604   1.548   0.383  0.4005  0.8570  0.8051
 7939TIP3   OH245231   0.611   4.038   2.723  0.3273  0.1584  0.0689
 7939TIP3    H145232   0.644   4.085   2.800  0.2474  0.3970 -0.0394
 7939TIP3    H245233   0.664   4.072   2.651  0.4755 -0.1438  0.0328
 7940TIP3   OH245234   0.926   1.925  14.274 -0.3546  0.4656  0.2765
 7940TIP3    H145235   0.913   2.012  14.311  0.7453  0.3882  0.8960
 7940TIP3    H245236   1.011   1.931  14.229  1.3918 -1.0987  3.0334
 7941TIP3   OH245237   3.883   6.029   4.554  0.4771 -0.1095 -0.0919
 7941TIP3    H145238   3.871   5.939   4.522 -1.3986 -0.2957  1.0039
 7941TIP3    H245239   3.818   6.080   4.507  0.6848  0.4415  0.2103
 7942TIP3   OH245240   5.300   3.154   0.097 -0.1286  0.4949  0.5184
 7942TIP3    H145241   5.219   3.104   0.103  1.3308 -1.9305  1.0637
 7942TIP3    H245242   5.361   3.096   0.052  1.6538  1.8023  1.1406
 7943TIP3   OH245243   6.330   3.667   4.643 -0.3853  0.2919  0.0825
 7943TIP3    H145244   6.411   3.687   4.690  0.0036  0.3389 -0.5956
 7943TIP3    H245245   6.355   3.600   4.580 -0.8275  0.4744 -0.2908
 7944TIP3   OH245246   3.960   6.553   0.683 -0.2440  0.1401  0.0060
 7944TIP3    H145247   4.053   6.575   0.671 -0.4935  1.4851  0.3648
 7944TIP3    H245248   3.923   6.630   0.727 -1.2323 -0.9663  1.1591
 7945TIP3   OH245249   4.812   5.474  17.020  0.2690  0.5282  0.3866
 7945TIP3    H145250   4.839   5.527  16.944  0.6441 -1.1562 -0.7128
 7945TIP3    H245251   4.895   5.450  17.062  0.0741  1.2286  1.1902
 7946TIP3   OH245252   5.146   1.312  14.455  0.0836  0.1883  0.2533
 7946TIP3    H145253   5.100   1.357  14.384  0.4577  1.8263  1.0138
 7946TIP3    H245254   5.238   1.335  14.442  0.3050 -0.5086  0.5654
 7947TIP3   OH245255   5.206   2.729   3.001 -0.1164 -0.4748 -0.9704
 7947TIP3    H145256   5.264   2.655   2.981  1.1669 -0.4829  2.2256
 7947TIP3    H245257   5.160   2.702   3.080 -1.3986  1.2363 -1.0816
 7948TIP3   OH245258   3.481   3.819  16.759 -0.0321  0.6159 -0.9221
 7948TIP3    H145259   3.532   3.880  16.706  1.3679 -1.4979 -2.1640
 7948TIP3    H245260   3.426   3.773  16.696 -0.0081 -0.3876 -0.2241
 7949TIP3   OH245261   1.956   6.038  16.076 -0.7275 -0.0862 -0.1116
 7949TIP3    H145262   2.002   6.043  15.993 -2.4495  1.5598 -1.0543
 7949TIP3    H245263   1.909   6.121  16.082 -0.4034  0.0074  2.6927
 7950TIP3   OH245264   3.655   5.388  12.648  0.1104 -0.3189 -0.1837
 7950TIP3    H145265   3.709   5.458  12.612  1.9741  0.2731  3.2695
 7950TIP3    H245266   3.707   5.309  12.636  0.6790 -0.1390  0.9172
 7951TIP3   OH245267   3.404   3.534   4.885 -0.0412  0.3505  0.1102
 7951TIP3    H145268   3.371   3.624   4.882  0.9121  0.6881 -0.6163
 7951TIP3    H245269   3.346   3.486   4.825  0.5121  0.8530 -0.8451
 7952TIP3   OH245270   2.763   4.620   5.451 -0.0528 -0.4071 -0.2257
 7952TIP3    H145271   2.746   4.670   5.372  1.1368  0.8857  0.2979
 7952TIP3    H245272   2.735   4.678   5.522  1.3514 -0.4562  0.3936
 7953TIP3   OH245273   5.099   3.812  10.475  0.1555 -0.2337 -1.0365
 7953TIP3    H145274   5.155   3.792  10.401  0.6707 -0.9385 -0.4722
 7953TIP3    H245275   5.055   3.894  10.451  1.4397  0.3469 -1.4723
 7954TIP3   OH245276   5.953   3.556   0.330 -0.0571 -0.1073 -0.6054
 7954TIP3    H145277   6.046   3.573   0.316 -0.0107  0.3212  0.1798
 7954TIP3    H245278   5.939   3.467   0.296  0.4111  0.2237 -1.6854
 7955TIP3   OH245279   2.136   6.250  13.480 -0.0393 -0.0541  0.3355
 7955TIP3    H145280   2.224   6.289  13.480  0.3478 -0.8593 -1.3508
 7955TIP3    H245281   2.152   6.156  13.485 -0.9371 -0.1554  3.0458
 7956TIP3   OH245282   2.321   3.133  16.744 -0.0463  0.6675 -0.2946
 7956TIP3    H145283   2.415   3.116  16.756  0.2002  1.8073 -0.4916
 7956TIP3    H245284   2.306   3.118  16.651  0.0436  0.9372 -0.3536
 7957TIP3   OH245285   1.206   4.410  13.292  0.0279 -0.2437 -0.4959
 7957TIP3    H145286   1.175   4.403  13.382  0.1494  0.0494 -0.4308
 7957TIP3    H245287   1.266   4.484  13.293  2.0911 -1.8076 -0.2422
 7958TIP3   OH245288   1.491   5.048  14.390  0.0007 -0.0452  0.6259
 7958TIP3    H145289   1.501   5.109  14.318  0.0830  0.0384  0.7082
 7958TIP3    H245290   1.564   4.987  14.381 -0.4068 -0.4771  0.2063
 7959TIP3   OH245291   4.222   5.709   5.608 -0.3674  0.7507 -0.2831
 7959TIP3    H145292   4.220   5.780   5.545  1.8983  0.7722 -0.3932
 7959TIP3    H245293   4.302   5.660   5.588 -1.5941 -1.5739  0.0869
 7960TIP3   OH245294   2.410   6.182  16.406 -0.4086  0.0756  0.7828
 7960TIP3    H145295   2.474   6.236  16.359 -0.7375 -0.2491 -0.0624
 7960TIP3    H245296   2.327   6.199  16.363 -0.4232 -1.5422  0.0705
 7961TIP3   OH245297   6.532   6.738  12.854 -0.0459  0.2528  0.0067
 7961TIP3    H145298   6.593   6.737  12.780 -0.0037  0.7197  0.0343
 7961TIP3    H245299   6.531   6.829  12.884  0.4752 -0.0639  1.0246
 7962TIP3   OH245300   3.890   0.940  15.455 -0.4642  0.8973 -0.1156
 7962TIP3    H145301   3.981   0.916  15.438  0.1292  1.8921  1.5381
 7962TIP3    H245302   3.874   0.913  15.545 -1.6156  1.3355 -0.1712
 7963TIP3   OH245303   2.286   6.605  11.087 -0.2455  0.2971  0.3622
 7963TIP3    H145304   2.194   6.616  11.060 -0.4490 -0.6877  0.5947
 7963TIP3    H245305   2.333   6.588  11.005 -0.1939  1.2129  0.1945
 7964TIP3   OH245306   0.382   2.625  11.691 -0.2449 -0.2410 -0.5095
 7964TIP3    H145307   0.367   2.673  11.773  0.2608  0.9744 -1.1007
 7964TIP3    H245308   0.338   2.541  11.704 -3.8060  1.4184 -0.4869
 7965TIP3   OH245309   0.884   2.668   3.549  0.3356 -0.2776  0.4796
 7965TIP3    H145310   0.816   2.735   3.546  0.7083  0.0763 -0.3448
 7965TIP3    H245311   0.965   2.717   3.567  1.3171  0.1468 -3.8910
 7966TIP3   OH245312   4.828   5.934   2.871 -0.1467 -0.4887  0.5295
 7966TIP3    H145313   4.779   5.964   2.947 -0.1344  1.5127 -0.1747
 7966TIP3    H245314   4.786   5.852   2.845  0.1441 -1.4649  2.9110
 7967TIP3   OH245315   3.221   2.480  15.998 -0.6983  0.2104 -0.1467
 7967TIP3    H145316   3.291   2.537  15.965 -1.6709  2.2233  1.0918
 7967TIP3    H245317   3.248   2.459  16.087 -2.0065  1.7177  0.6554
 7968TIP3   OH245318   4.563   4.986  16.078  0.1530 -0.1892 -0.4467
 7968TIP3    H145319   4.597   5.067  16.039  1.7826 -0.9578 -0.7131
 7968TIP3    H245320   4.487   5.014  16.129  1.3750  1.7063  0.4618
 7969TIP3   OH245321   0.337   3.470   3.617 -0.0760 -0.2931  0.2126
 7969TIP3    H145322   0.251   3.440   3.586  0.1777  0.0028 -0.7942
 7969TIP3    H245323   0.320   3.558   3.652  0.1387  0.5512 -1.7164
 7970TIP3   OH245324   4.953   2.248  12.738  0.0803 -0.2213 -0.1659
 7970TIP3    H145325   4.862   2.271  12.756 -0.1720  0.3306 -1.9543
 7970TIP3    H245326   4.954   2.223  12.646  1.9600  1.1005 -0.5620
 7971TIP3   OH245327   6.492   5.440   4.595 -0.3903  0.8603  0.1467
 7971TIP3    H145328   6.429   5.372   4.620 -0.5987  0.2837 -1.8004
 7971TIP3    H245329   6.570   5.420   4.646 -0.4226 -0.9122 -0.4072
 7972TIP3   OH245330   1.033   5.418  12.453  0.0786  0.4959 -0.3061
 7972TIP3    H145331   0.985   5.404  12.535 -0.5462 -0.4538 -0.8123
 7972TIP3    H245332   1.123   5.390  12.473 -0.4715 -1.5470 -0.4307
 7973TIP3   OH245333   2.719   1.440  11.432 -0.1675  0.2131 -0.3178
 7973TIP3    H145334   2.648   1.389  11.471 -0.5932  0.7675 -0.3605
 7973TIP3    H245335   2.763   1.480  11.507  1.0330 -1.2847 -0.1598
 7974TIP3   OH245336   0.452   3.755  11.947  0.2420  0.0573 -0.1644
 7974TIP3    H145337   0.433   3.663  11.928  0.6284  0.0255 -0.4154
 7974TIP3    H245338   0.522   3.778  11.886 -1.0733  1.0487 -1.3535
 7975TIP3   OH245339   5.388   5.272   4.663  0.1046 -0.0558 -0.3953
 7975TIP3    H145340   5.473   5.299   4.698 -0.9332  1.6271  1.0419
 7975TIP3    H245341   5.339   5.240   4.739 -1.0530  0.4711 -0.8796
 7976TIP3   OH245342   5.675   0.113   6.100 -0.0760  0.4316  0.6187
 7976TIP3    H145343   5.593   0.106   6.149 -1.7797  1.7480 -1.8234
 7976TIP3    H245344   5.739   0.144   6.165 -2.2578  2.4040  1.9882
 7977TIP3   OH245345   0.388   3.970  12.861 -0.1085  0.1276 -0.0185
 7977TIP3    H145346   0.481   3.977  12.840 -0.6958 -0.2546 -3.3202
 7977TIP3    H245347   0.350   4.051  12.826 -1.1503 -0.0625  0.6195
 7978TIP3   OH245348   0.986   1.769   6.180  0.2435  0.2081 -0.1127
 7978TIP3    H145349   0.961   1.752   6.089  0.0770  1.2026 -0.2692
 7978TIP3    H245350   0.958   1.691   6.228  4.6203 -2.5915 -1.5596
 7979TIP3   OH245351   2.831   5.241   2.464 -0.1884  0.1142 -0.3188
 7979TIP3    H145352   2.867   5.203   2.543 -0.0619 -0.3028 -0.5751
 7979TIP3    H245353   2.875   5.195   2.392 -1.5795 -0.7733 -0.6451
 7980TIP3   OH245354   2.965   5.631  11.948 -0.7514 -0.1624 -0.0996
 7980TIP3    H145355   2.925   5.545  11.944 -3.0723  0.4731  4.0550
 7980TIP3    H245356   3.053   5.615  11.984 -1.8243 -0.7833  2.4223
 7981TIP3   OH245357   2.184   6.433  10.786 -0.1194 -0.3787 -0.3122
 7981TIP3    H145358   2.216   6.523  10.777 -2.0112  0.2230 -1.5300
 7981TIP3    H245359   2.249   6.380  10.741 -0.7205  0.8144 -2.7854
 7982TIP3   OH245360   3.409   4.170  11.036 -0.1326 -0.1091 -0.0691
 7982TIP3    H145361   3.463   4.243  11.009 -2.1423  1.1535 -0.9078
 7982TIP3    H245362   3.402   4.115  10.958  1.0949 -1.0758  0.4628
 7983TIP3   OH245363   6.054   0.277   3.578 -0.2452 -0.5984  0.3720
 7983TIP3    H145364   6.004   0.326   3.644  0.4109  1.4049 -0.5118
 7983TIP3    H245365   6.134   0.250   3.623 -0.5509 -0.7343  0.8408
 7984TIP3   OH245366   2.198   6.510  16.096  0.5906 -0.3867  0.6606
 7984TIP3    H145367   2.244   6.567  16.159  1.6752  0.7120 -1.0485
 7984TIP3    H245368   2.108   6.542  16.097  0.8378  0.3321  0.8867
 7985TIP3   OH245369   1.253   4.894   1.295 -0.3193  0.3188 -0.2580
 7985TIP3    H145370   1.254   4.895   1.199  0.2192  1.0377 -0.2490
 7985TIP3    H245371   1.302   4.972   1.321 -0.3151  0.0409  0.6057
 7986TIP3   OH245372   1.536   3.580   5.890 -0.0620  0.1813  0.3590
 7986TIP3    H145373   1.555   3.486   5.903  0.7245  0.4919  1.7303
 7986TIP3    H245374   1.622   3.622   5.893 -0.4548  1.0037  0.2653
 7987TIP3   OH245375   5.820   1.717  17.080  0.0709  0.4318  0.4152
 7987TIP3    H145376   5.812   1.667  16.999  0.0710 -2.2367  1.9440
 7987TIP3    H245377   5.749   1.781  17.076 -1.7565 -1.5341 -0.4515
 7988TIP3   OH245378   6.696   0.174   2.495 -0.6881  0.3685  0.3846
 7988TIP3    H145379   6.674   0.135   2.579 -0.0226  0.6351  0.6900
 7988TIP3    H245380   6.630   0.243   2.483 -2.8861 -1.7908 -0.9116
 7989TIP3   OH245381   1.372   1.509  15.809 -0.4439 -0.3003  0.1007
 7989TIP3    H145382   1.341   1.426  15.772 -0.4418 -0.3676  0.2486
 7989TIP3    H245383   1.292   1.556  15.833 -0.4755  0.0981 -0.7476
 7990TIP3   OH245384   4.550   1.232   2.588 -0.2794  0.3396 -0.0423
 7990TIP3    H145385   4.506   1.150   2.568  1.2401 -0.1611 -1.6557
 7990TIP3    H245386   4.611   1.210   2.659  2.2188 -0.8111 -2.3375
 7991TIP3   OH245387   3.089   2.675   2.787 -0.3087 -0.4413 -0.3397
 7991TIP3    H145388   3.073   2.588   2.822 -0.1568 -1.5137 -2.7497
 7991TIP3    H245389   3.168   2.666   2.734  0.4706  1.5063  0.4000
 7992TIP3   OH245390   2.871   4.688  15.910  0.2416 -0.1974  0.1037
 7992TIP3    H145391   2.947   4.648  15.952  0.0513 -0.3430  0.3165
 7992TIP3    H245392   2.902   4.773  15.879  0.5058 -0.2823  0.1333
 7993TIP3   OH245393   2.467   1.718   0.163 -0.3805  0.3551  0.4024
 7993TIP3    H145394   2.418   1.776   0.221  0.6621 -0.0668  1.7439
 7993TIP3    H245395   2.445   1.630   0.192  1.9015  0.1497  1.7472
 7994TIP3   OH245396   3.959   1.956   1.340 -0.7860  0.0411  0.1375
 7994TIP3    H145397   3.874   1.979   1.304 -1.1774 -0.6950  0.5629
 7994TIP3    H245398   3.973   1.865   1.314 -1.1634 -0.5759  1.9186
 7995TIP3   OH245399   0.706   0.335   2.644 -0.3609  0.5853  0.2997
 7995TIP3    H145400   0.797   0.305   2.641 -0.7122 -0.9709  2.5285
 7995TIP3    H245401   0.710   0.427   2.619  1.8213  0.5490  0.3479
 7996TIP3   OH245402   0.465   2.344  15.503 -0.0367 -0.1140  0.2507
 7996TIP3    H145403   0.503   2.319  15.587  1.2655  0.8257 -0.0084
 7996TIP3    H245404   0.378   2.305  15.503 -0.2486  0.2232  2.2217
 7997TIP3   OH245405   0.013   3.482  16.454 -0.2000 -0.0479  0.1665
 7997TIP3    H145406  -0.046   3.530  16.512  0.2228  2.3136 -1.2295
 7997TIP3    H245407   0.101   3.501  16.487 -0.0057  0.5503 -0.6511
 7998TIP3   OH245408   1.270   5.703   0.652  0.5002 -0.2044  0.5157
 7998TIP3    H145409   1.298   5.765   0.585 -0.8645 -0.0721  0.0451
 7998TIP3    H245410   1.352   5.673   0.692  1.2678  0.6516 -0.3564
 7999TIP3   OH245411   2.569   3.625   5.460  0.0795 -0.4806 -0.1529
 7999TIP3    H145412   2.617   3.658   5.384 -0.9525 -1.0724 -1.1005
 7999TIP3    H245413   2.498   3.687   5.472  1.3716  0.7444  1.6379
 8000TIP3   OH245414   6.751   3.039   4.047  0.0821  0.3218  0.1121
 8000TIP3    H145415   6.698   3.089   4.110 -1.3358 -0.2671 -0.5476
 8000TIP3    H245416   6.764   2.954   4.089  2.7238  1.2356  1.3511
 8001TIP3   OH245417   0.582   5.530   0.233 -0.3047  0.0057  0.1817
 8001TIP3    H145418   0.613   5.526   0.143 -0.1210  0.8545  0.1996
 8001TIP3    H245419   0.526   5.453   0.243  0.2808 -0.5109 -0.4216
 8002TIP3   OH245420   5.467   0.075   2.265  0.0382  0.5305 -0.4872
 8002TIP3    H145421   5.436   0.150   2.315 -0.1310 -0.1658  0.4820
 8002TIP3    H245422   5.424  -0.001   2.306  1.5019 -0.2659 -0.3635
 8003TIP3   OH245423   2.389   4.573  13.139  0.4475 -0.2390 -0.0491
 8003TIP3    H145424   2.327   4.555  13.068 -0.6023  0.0579  0.7508
 8003TIP3    H245425   2.413   4.665  13.127 -0.8936  0.2588  0.7987
 8004TIP3   OH245426   5.181   4.610   4.146  0.4419 -0.2203  0.8126
 8004TIP3    H145427   5.246   4.543   4.122  1.5288  0.7744  0.8954
 8004TIP3    H245428   5.148   4.642   4.062  0.5766 -0.2343  0.7535
 8005TIP3   OH245429   5.737   4.622  15.546  0.7614  0.0518  0.1639
 8005TIP3    H145430   5.717   4.577  15.465 -0.8643  1.9619 -0.5971
 8005TIP3    H245431   5.729   4.555  15.614 -0.0557 -1.1003 -1.0276
 8006TIP3   OH245432   6.032   0.763   3.360 -0.2986  0.5311 -0.3048
 8006TIP3    H145433   6.090   0.736   3.431  0.6114  0.0202 -1.2102
 8006TIP3    H245434   6.062   0.851   3.337  0.3601  0.1513 -0.9748
 8007TIP3   OH245435   3.877   6.725   5.501  1.1876  0.7915  0.1351
 8007TIP3    H145436   3.855   6.677   5.421  1.6300  0.1359  0.3913
 8007TIP3    H245437   3.968   6.699   5.520  0.5436 -0.4535  1.8023
 8008TIP3   OH245438   3.220   3.038  15.171  0.8153  0.0822 -0.4924
 8008TIP3    H145439   3.313   3.015  15.167  0.8469 -1.2741  3.5282
 8008TIP3    H245440   3.173   2.957  15.153  0.6267 -0.3849  1.7752
 8009TIP3   OH245441   2.023   1.343   0.652 -0.2185  0.5102 -0.8703
 8009TIP3    H145442   1.974   1.278   0.702  0.5058 -0.5306 -1.4739
 8009TIP3    H245443   2.061   1.400   0.718 -0.2361 -0.1402 -0.2850
 8010TIP3   OH245444   1.680   3.055   3.631  0.0990  0.3463  0.9747
 8010TIP3    H145445   1.589   3.072   3.610  0.0700  1.5752  1.9483
 8010TIP3    H245446   1.677   3.013   3.717  0.4616  1.1040  1.3725
 8011TIP3   OH245447   4.238   6.634   2.891 -0.1306  0.1275 -0.5071
 8011TIP3    H145448   4.198   6.658   2.808 -0.9279 -2.6635 -1.0386
 8011TIP3    H245449   4.164   6.623   2.951  0.2633  0.0938 -0.0193
 8012TIP3   OH245450   5.707   0.816  12.684  0.4829 -1.0784  0.3357
 8012TIP3    H145451   5.791   0.774  12.664  0.2485 -0.8840 -1.1782
 8012TIP3    H245452   5.646   0.779  12.620 -0.6922 -1.5157  1.6719
 8013TIP3   OH245453   0.691   5.680  16.233  0.4103  0.2032 -0.3540
 8013TIP3    H145454   0.706   5.657  16.325 -0.9242 -1.7905 -0.5807
 8013TIP3    H245455   0.601   5.654  16.216  1.0575 -0.8187 -2.6169
 8014TIP3   OH245456   2.021   2.642   2.067 -0.1260  0.4761  0.1028
 8014TIP3    H145457   2.029   2.730   2.030  0.0674  1.0543  1.4555
 8014TIP3    H245458   1.927   2.627   2.073 -0.1841 -0.1686 -1.7912
 8015TIP3   OH245459   2.669   1.121  15.527 -0.7176  0.2266 -0.0808
 8015TIP3    H145460   2.685   1.120  15.622 -2.6034  0.0210  0.2828
 8015TIP3    H245461   2.715   1.198  15.495  1.2177 -0.5300  0.7293
 8016TIP3   OH245462   4.621   5.734   1.835 -1.4517  0.0409  0.3879
 8016TIP3    H145463   4.661   5.674   1.898  0.9573 -0.9285 -1.8888
 8016TIP3    H245464   4.588   5.677   1.766 -2.7126  1.1552  0.0446
 8017TIP3   OH245465   6.599   3.740   0.379 -0.2998  0.7681  0.4766
 8017TIP3    H145466   6.693   3.726   0.392  0.3541  3.6335 -0.3947
 8017TIP3    H245467   6.557   3.667   0.425  2.3443 -1.2630 -0.1071
 8018TIP3   OH245468   0.878   0.038  13.664 -0.2430 -0.5349  0.0675
 8018TIP3    H145469   0.958   0.001  13.627 -0.3814  0.2410 -1.0669
 8018TIP3    H245470   0.823   0.057  13.588 -0.8377  0.4507  0.7233
 8019TIP3   OH245471   0.714   5.458  15.401  0.0869 -0.4934 -0.0540
 8019TIP3    H145472   0.741   5.434  15.312 -1.0176  2.5228 -1.3556
 8019TIP3    H245473   0.780   5.522  15.428 -0.4161 -0.2856  0.6924
 8020TIP3   OH245474   1.285   5.632  12.683 -0.3002 -0.5903  0.3135
 8020TIP3    H145475   1.356   5.669  12.631 -1.0386  0.0357 -0.2804
 8020TIP3    H245476   1.309   5.541  12.697  0.6690 -0.3551  0.2215
 8021TIP3   OH245477   0.190   5.840  14.417 -0.2724 -0.3024  0.2124
 8021TIP3    H145478   0.102   5.854  14.382 -1.1748 -0.8400  2.1345
 8021TIP3    H245479   0.210   5.748  14.397 -0.0119 -0.1027 -0.4735
 8022TIP3   OH245480   0.859   0.879  15.158 -0.2045  0.2768  0.2243
 8022TIP3    H145481   0.843   0.915  15.245 -0.0750 -0.2567  0.4765
 8022TIP3    H245482   0.891   0.790  15.175  0.2936  0.3364 -0.3502
 8023TIP3   OH245483   6.450   1.591   6.618  0.0092  0.2114  0.3296
 8023TIP3    H145484   6.387   1.562   6.684  0.2480 -2.1393 -0.3908
 8023TIP3    H245485   6.533   1.553   6.645  0.2188 -0.3518 -1.0141
 8024TIP3   OH245486   2.331   3.623  12.349 -0.3590 -0.1784  0.0410
 8024TIP3    H145487   2.293   3.645  12.264 -0.7429 -1.8827 -0.2750
 8024TIP3    H245488   2.425   3.624  12.334 -0.4059  0.1912 -0.2294
 8025TIP3   OH245489   3.497   1.344  12.510 -0.6104 -0.1877 -0.6626
 8025TIP3    H145490   3.438   1.308  12.577 -1.8013  0.2088 -1.4616
 8025TIP3    H245491   3.557   1.273  12.489 -0.3148 -0.3722  0.7006
 8026TIP3   OH245492   3.735   6.023   3.391  0.1752 -0.2937  0.2030
 8026TIP3    H145493   3.773   5.941   3.359  0.8528 -0.2001  0.7402
 8026TIP3    H245494   3.641   6.013   3.377  0.2384 -1.2270  0.4041
 8027TIP3   OH245495   1.219   0.184  12.278  0.1252 -0.8265 -0.9689
 8027TIP3    H145496   1.223   0.183  12.183  1.5262 -1.3083 -0.9357
 8027TIP3    H245497   1.247   0.273  12.302  0.2886 -0.8675 -1.0035
 8028TIP3   OH245498   2.727   1.660  12.969  0.8920  0.4794  0.2587
 8028TIP3    H145499   2.765   1.594  13.027  0.9591 -0.2423 -0.5711
 8028TIP3    H245500   2.720   1.739  13.022  0.4490 -0.3044  1.3970
 8029TIP3   OH245501   2.606   5.470   1.343 -0.2080 -0.6023 -0.2597
 8029TIP3    H145502   2.575   5.470   1.252 -0.8301  3.4623 -0.2147
 8029TIP3    H245503   2.693   5.429   1.338  0.6228  1.1906 -3.1093
 8030TIP3   OH245504   1.264   3.545  14.014 -0.3495 -0.1633 -0.0273
 8030TIP3    H145505   1.319   3.599  14.071  0.6706 -2.5501  1.4152
 8030TIP3    H245506   1.264   3.591  13.930  3.3249  0.3744  0.1069
 8031TIP3   OH245507   5.802   3.442   0.544  0.2274 -0.2599  0.4810
 8031TIP3    H145508   5.864   3.427   0.473 -0.8204  0.0970 -0.5262
 8031TIP3    H245509   5.819   3.370   0.605 -0.7574 -2.2716 -1.4850
 8032TIP3   OH245510   1.957   0.631   6.434 -0.9375 -0.1865  0.7205
 8032TIP3    H145511   1.958   0.709   6.489  0.4981  0.9796 -0.8634
 8032TIP3    H245512   1.869   0.595   6.445 -1.4324  1.3073  1.9591
 8033TIP3   OH245513   3.678   5.019  12.845  0.0222  0.4434  0.3744
 8033TIP3    H145514   3.648   5.108  12.866 -1.6596 -0.1015  0.4331
 8033TIP3    H245515   3.643   5.002  12.758 -1.0156 -0.7123  0.9937
 8034TIP3   OH245516   2.824   3.668   1.166 -0.0119  0.7719 -0.4645
 8034TIP3    H145517   2.816   3.713   1.250  1.4503 -1.3330  0.9359
 8034TIP3    H245518   2.918   3.673   1.145 -0.2977  0.9413 -1.7919
 8035TIP3   OH245519   4.046   1.144  11.469  0.3315 -0.2742 -0.1128
 8035TIP3    H145520   4.124   1.104  11.432  0.5505  0.2300 -0.2006
 8035TIP3    H245521   4.074   1.181  11.553  0.5829  1.2994 -0.8574
 8036TIP3   OH245522   1.827   6.441   0.125 -0.5491  0.4730 -0.3743
 8036TIP3    H145523   1.849   6.463   0.034 -0.2710  1.6048 -0.0485
 8036TIP3    H245524   1.746   6.490   0.142  0.0440  1.2054  0.3544
 8037TIP3   OH245525   0.512   5.879  11.981  0.1810 -1.0865 -0.0001
 8037TIP3    H145526   0.552   5.905  12.065 -0.2876 -1.6234  0.3964
 8037TIP3    H245527   0.446   5.815  12.005 -1.2481  0.1113 -0.6069
 8038TIP3   OH245528   4.312   2.604  11.422 -0.1354  0.0098 -0.7564
 8038TIP3    H145529   4.320   2.594  11.517 -0.1604  1.8105 -0.5329
 8038TIP3    H245530   4.254   2.679  11.411 -0.2600 -0.2735 -2.2109
 8039TIP3   OH245531   5.243   2.272  17.223  0.3947 -0.5243  0.5181
 8039TIP3    H145532   5.173   2.287  17.286  0.3187 -1.3558  0.6396
 8039TIP3    H245533   5.248   2.354  17.173 -1.4274 -0.8477 -0.2500
 8040TIP3   OH245534   4.422   6.604   0.462 -0.3682  0.8779  0.1064
 8040TIP3    H145535   4.391   6.655   0.537 -2.2002  1.8350 -1.2204
 8040TIP3    H245536   4.361   6.531   0.456  0.3946  0.2173  0.1279
 8041TIP3   OH245537   5.782   0.712   4.761  0.1979 -0.2375  0.0737
 8041TIP3    H145538   5.829   0.795   4.761  0.1155 -0.1587 -1.6926
 8041TIP3    H245539   5.849   0.647   4.738  1.0916 -1.2789  4.5938
 8042TIP3   OH245540   1.676   0.021  13.396  0.2667  0.2763  0.3450
 8042TIP3    H145541   1.698   0.094  13.453  1.9311  0.0076  0.1131
 8042TIP3    H245542   1.675   0.059  13.308  0.1127  0.2129  0.3180
 8043TIP3   OH245543   3.041   1.754  13.788  0.1239  0.1358 -0.0908
 8043TIP3    H145544   3.021   1.706  13.868 -1.1551 -0.0591 -0.4982
 8043TIP3    H245545   2.974   1.725  13.725  0.7258  0.7404 -1.0405
 8044TIP3   OH245546   1.946   0.539  16.582 -0.0133 -0.5595 -0.5550
 8044TIP3    H145547   1.852   0.550  16.564  0.1032 -0.8690 -1.3742
 8044TIP3    H245548   1.957   0.574  16.671 -0.4928  1.5230 -1.2673
 8045TIP3   OH245549   4.432   5.602  14.258  0.1859  0.4341  0.1917
 8045TIP3    H145550   4.397   5.654  14.186 -1.4214  0.5403  0.9848
 8045TIP3    H245551   4.423   5.659  14.335  1.5938  0.2190  0.5485
 8046TIP3   OH245552   0.020   5.807   0.815 -0.2730  0.8306  0.3495
 8046TIP3    H145553  -0.044   5.829   0.747 -3.1538  0.1941  2.6620
 8046TIP3    H245554   0.036   5.713   0.802  0.7714  1.1117 -0.6074
 8047TIP3   OH245555   3.535   6.777   1.336 -0.1342  0.0330  0.9084
 8047TIP3    H145556   3.487   6.842   1.387  0.1101 -0.6516  2.0304
 8047TIP3    H245557   3.470   6.709   1.317 -0.0048 -0.1354  1.0673
 8048TIP3   OH245558   5.201   4.992  14.170  0.3370 -0.3248  0.1251
 8048TIP3    H145559   5.262   4.939  14.118  0.0728 -0.7079  0.1973
 8048TIP3    H245560   5.116   4.948  14.160 -0.2859  1.1169 -1.2926
 8049TIP3   OH245561   3.493   0.522  17.009  0.2542  0.7180  0.1837
 8049TIP3    H145562   3.409   0.516  17.055  0.6242  0.8674  0.8896
 8049TIP3    H245563   3.554   0.556  17.074  1.3295 -1.2728  0.2995
 8050TIP3   OH245564   6.696   5.087  14.975 -0.3970 -0.0622 -0.6574
 8050TIP3    H145565   6.605   5.095  15.007 -0.0396  0.7495  0.2321
 8050TIP3    H245566   6.749   5.100  15.054  0.5134  1.1735 -1.4390
 8051TIP3   OH245567   3.501   6.366  15.977 -0.5858 -0.0109 -0.0146
 8051TIP3    H145568   3.477   6.332  15.890 -2.3438  0.6392  0.1798
 8051TIP3    H245569   3.585   6.325  15.996 -1.0878 -1.6910 -1.1902
 8052TIP3   OH245570   4.240   6.359  14.455 -0.3281  0.5774  0.0269
 8052TIP3    H145571   4.265   6.445  14.489  1.3031 -0.4752  1.6401
 8052TIP3    H245572   4.147   6.351  14.476 -0.1707  1.4065  1.0835
 8053TIP3   OH245573   6.141   3.019  14.341  0.0093 -0.2558  0.0724
 8053TIP3    H145574   6.189   3.074  14.278  0.2472  2.3698  2.3336
 8053TIP3    H245575   6.049   3.033  14.320  0.0708 -2.2273 -1.8233
 8054TIP3   OH245576   1.064   1.168  15.503  0.0400 -0.9634  0.0768
 8054TIP3    H145577   1.032   1.164  15.412  1.9864  2.2000 -0.9211
 8054TIP3    H245578   1.153   1.134  15.498  1.4670  2.4218 -0.1003
 8055TIP3   OH245579   5.713   6.276   3.973  0.3367 -0.0937  0.1412
 8055TIP3    H145580   5.805   6.251   3.980  1.1152  2.4153 -0.3682
 8055TIP3    H245581   5.705   6.355   4.026 -0.9539  1.0636 -1.6718
 8056TIP3   OH245582   3.292   6.600  16.566 -0.0876  0.0787 -0.2347
 8056TIP3    H145583   3.359   6.662  16.596 -0.5929  0.8143 -0.6031
 8056TIP3    H245584   3.291   6.531  16.633  2.1904 -0.8251 -1.0297
 8057TIP3   OH245585   5.248   0.981  13.425  0.1377  0.4975 -0.4522
 8057TIP3    H145586   5.236   0.931  13.506 -2.0378 -0.1838 -1.1112
 8057TIP3    H245587   5.254   1.072  13.453  1.3885  0.1156  0.5889
 8058TIP3   OH245588   1.921   5.923  12.745  0.3435 -0.7981  0.0289
 8058TIP3    H145589   1.848   5.863  12.738  0.9211 -1.3191 -2.3222
 8058TIP3    H245590   1.891   6.004  12.703  0.5325 -0.3782  0.6664
 8059TIP3   OH245591   5.732   1.488  13.137  0.6131  0.2255 -0.4914
 8059TIP3    H145592   5.733   1.395  13.159 -1.8839  0.1630 -0.3989
 8059TIP3    H245593   5.740   1.532  13.221  0.0467  0.0667 -0.3500
 8060TIP3   OH245594   6.441   4.818   4.752  0.5851  0.1732 -0.7529
 8060TIP3    H145595   6.361   4.868   4.764  0.6824  0.4353 -1.1746
 8060TIP3    H245596   6.439   4.792   4.660  0.5845 -0.5178 -0.5702
 8061TIP3   OH245597   5.985   4.479  12.310 -0.0041 -0.4536  0.3987
 8061TIP3    H145598   6.011   4.514  12.395 -0.8588 -1.0128  0.8983
 8061TIP3    H245599   5.959   4.556  12.259 -1.1416 -0.2654  1.2300
 8062TIP3   OH245600   3.522   4.729   3.788 -0.2247  0.0405  0.5268
 8062TIP3    H145601   3.431   4.754   3.775 -0.1244 -0.3250 -1.0568
 8062TIP3    H245602   3.520   4.661   3.856 -0.9687  0.9427  1.4444
 8063TIP3   OH245603   5.932   4.573  12.032 -0.4264  0.2513 -0.0706
 8063TIP3    H145604   5.867   4.521  11.983  0.5144 -0.4170 -0.6472
 8063TIP3    H245605   5.904   4.664  12.020 -1.2409 -0.0248 -0.3316
 8064TIP3   OH245606   6.127   1.764  13.134 -0.1572  0.0112  0.0810
 8064TIP3    H145607   6.067   1.694  13.161 -0.0977 -0.0806 -0.0233
 8064TIP3    H245608   6.183   1.778  13.210  1.4183 -1.7264 -0.6799
 8065TIP3   OH245609   1.488   1.816   0.349 -0.1613 -0.3595 -0.4580
 8065TIP3    H145610   1.517   1.748   0.410 -1.7536  0.0979  0.8984
 8065TIP3    H245611   1.392   1.811   0.352 -0.2912  0.4124 -2.1289
 8066TIP3   OH245612   4.350   2.437  14.068  0.4947  0.1505  0.2272
 8066TIP3    H145613   4.303   2.499  14.012 -0.1383 -2.1331 -1.9906
 8066TIP3    H245614   4.282   2.375  14.096  1.2830 -0.1835  1.4818
 8067TIP3   OH245615   0.369   2.592   4.123  0.4716 -1.0145 -0.0924
 8067TIP3    H145616   0.372   2.618   4.215 -0.3034 -0.0971 -0.3089
 8067TIP3    H245617   0.439   2.643   4.081 -0.3820 -0.0147 -0.3326
 8068TIP3   OH245618   2.153   5.724  17.141 -0.1704  0.9560  0.2656
 8068TIP3    H145619   2.103   5.657  17.189 -1.8853  3.4089  2.1737
 8068TIP3    H245620   2.107   5.734  17.058  0.1677 -0.2318 -0.0907
 8069TIP3   OH245621   0.925   2.367   4.987  0.4160  0.1448  0.5644
 8069TIP3    H145622   0.920   2.459   5.014 -0.7558  0.8233 -1.7207
 8069TIP3    H245623   0.928   2.370   4.891  2.6865 -2.1531  0.4421
 8070TIP3   OH245624   2.150   4.700  12.006 -0.2105 -0.0034 -0.0062
 8070TIP3    H145625   2.170   4.753  12.084  1.0825 -0.8884  0.2771
 8070TIP3    H245626   2.233   4.660  11.982 -0.5706  0.3261 -1.9307
 8071TIP3   OH245627   2.762   2.473   1.825 -0.1400 -0.3666  0.0612
 8071TIP3    H145628   2.722   2.561   1.823  0.1523 -0.2475 -0.4977
 8071TIP3    H245629   2.786   2.461   1.917 -0.9941 -0.2306  0.3170
 8072TIP3   OH245630   5.494   1.618   5.037 -0.4785  0.1796  0.1770
 8072TIP3    H145631   5.559   1.636   5.104 -1.1988  1.9485  0.4576
 8072TIP3    H245632   5.518   1.673   4.963  0.5680 -2.0807 -1.2750
 8073TIP3   OH245633   3.398   1.281  15.199  0.2173 -0.2813 -0.2445
 8073TIP3    H145634   3.449   1.241  15.128  0.0539  0.0683 -0.5634
 8073TIP3    H245635   3.463   1.310  15.263  0.3586 -0.7126 -0.1918
 8074TIP3   OH245636   3.844   5.927   1.223 -0.1926  0.1383  0.3416
 8074TIP3    H145637   3.832   5.902   1.314 -2.2160 -1.8675 -0.3867
 8074TIP3    H245638   3.881   5.849   1.181  0.9143  1.0988 -0.5577
 8075TIP3   OH245639   0.253   3.545   3.909 -0.2626  0.0239 -0.2086
 8075TIP3    H145640   0.193   3.483   3.866  1.7518 -1.5950 -0.8524
 8075TIP3    H245641   0.292   3.495   3.980 -0.4214  1.3907  0.8784
 8076TIP3   OH245642   5.801   0.562   1.381  0.6943  0.5840 -0.2027
 8076TIP3    H145643   5.864   0.594   1.446  3.4575 -0.5819 -2.0929
 8076TIP3    H245644   5.751   0.640   1.355  0.3573  1.2935  2.3445
 8077TIP3   OH245645   2.693   1.028   1.735 -0.0180 -0.2631  0.3626
 8077TIP3    H145646   2.760   0.960   1.726  1.1971  1.0534 -1.1846
 8077TIP3    H245647   2.612   0.980   1.753  1.1388 -1.9637  1.3652
 8078TIP3   OH245648   3.738   0.019  13.763 -0.1432 -0.3483  0.3127
 8078TIP3    H145649   3.733   0.065  13.847  1.2232 -0.2867  0.3838
 8078TIP3    H245650   3.832   0.008  13.748 -0.2689  1.0550 -1.9743
 8079TIP3   OH245651   3.753   2.943   1.449 -0.2550  0.2338  0.1357
 8079TIP3    H145652   3.830   2.889   1.466  0.1257  0.7114 -0.0704
 8079TIP3    H245653   3.751   2.955   1.354  0.7019  2.0801  0.3097
 8080TIP3   OH245654   4.611   5.192   0.891 -0.1047  0.4728  0.1793
 8080TIP3    H145655   4.668   5.269   0.893  1.0375 -0.3525  0.1633
 8080TIP3    H245656   4.533   5.222   0.844 -0.8649  2.3665  2.4131
 8081TIP3   OH245657   3.795   5.578  11.059  0.5994 -0.0955  0.1417
 8081TIP3    H145658   3.887   5.572  11.031  1.0749  0.3809  1.5234
 8081TIP3    H245659   3.770   5.667  11.037 -0.2415 -0.8241 -2.1746
 8082TIP3   OH245660   6.758   0.899  11.580  0.1665  0.4633 -0.2188
 8082TIP3    H145661   6.674   0.873  11.618  0.2120  0.3629 -0.1839
 8082TIP3    H245662   6.747   0.990  11.555  0.1878  0.5798  0.1852
 8083TIP3   OH245663   1.202   3.030   3.950 -0.5208  0.5327  0.2425
 8083TIP3    H145664   1.140   3.057   4.017  1.6398  1.7010  1.8941
 8083TIP3    H245665   1.267   3.100   3.948  0.0853 -0.0013 -2.3302
 8084TIP3   OH245666   4.621   3.530  13.926 -0.5748  0.1509  0.2725
 8084TIP3    H145667   4.700   3.500  13.970 -0.6973 -0.2217  0.2416
 8084TIP3    H245668   4.654   3.578  13.849 -0.3589 -2.0218 -1.0930
 8085TIP3   OH245669   2.900   6.435  11.056 -0.7708  0.0634  0.3885
 8085TIP3    H145670   2.879   6.435  11.150  0.7543  0.5327  0.7568
 8085TIP3    H245671   2.916   6.526  11.034  1.4972 -0.2677  0.3474
 8086TIP3   OH245672   2.099   0.527   5.179 -0.2301 -0.4780 -0.0812
 8086TIP3    H145673   2.077   0.484   5.096  0.6919  0.3488 -0.7813
 8086TIP3    H245674   2.027   0.505   5.237 -1.4495 -0.2021 -1.4229
 8087TIP3   OH245675   4.621   3.857   0.027  0.2964 -0.2045  0.1470
 8087TIP3    H145676   4.663   3.943   0.023 -0.0382  0.1437  2.5329
 8087TIP3    H245677   4.547   3.864  -0.033  0.5752  1.0020 -0.0894
 8088TIP3   OH245678   5.083   0.377   5.474 -0.6763  0.4979  0.0955
 8088TIP3    H145679   5.150   0.336   5.529 -0.2949 -0.6135 -1.1527
 8088TIP3    H245680   5.071   0.465   5.511 -1.2752 -0.5856  2.6514
 8089TIP3   OH245681   4.551   0.644   5.963  0.7010  0.0970  0.0465
 8089TIP3    H145682   4.512   0.591   5.893  0.9800  0.9379 -0.7536
 8089TIP3    H245683   4.608   0.706   5.918  3.2795 -1.2757  1.1762
 8090TIP3   OH245684   1.575   4.217  16.008 -0.2987  0.2798 -0.1812
 8090TIP3    H145685   1.628   4.294  16.030  0.5828 -0.6197  0.9960
 8090TIP3    H245686   1.638   4.144  16.009 -1.1419 -0.4867 -1.1100
 8091TIP3   OH245687   5.563   6.758  13.966 -0.6532  0.1804  0.2979
 8091TIP3    H145688   5.477   6.798  13.981 -1.3694 -0.4757 -1.7182
 8091TIP3    H245689   5.584   6.715  14.049 -2.8338 -0.6490  0.4916
 8092TIP3   OH245690   2.351   1.126   6.310  0.1647  0.0834 -0.2701
 8092TIP3    H145691   2.297   1.197   6.347  0.6579  0.5144 -0.3684
 8092TIP3    H245692   2.308   1.104   6.228  0.3523  0.7078 -0.5484
 8093TIP3   OH245693   4.929   5.899  12.092 -0.0119 -0.0400  0.0193
 8093TIP3    H145694   5.022   5.892  12.070  0.0661 -0.1250  0.3630
 8093TIP3    H245695   4.910   5.992  12.089 -0.5945 -0.1662 -2.7557
 8094TIP3   OH245696   3.232   0.291   0.583  0.1216  0.3416  0.0970
 8094TIP3    H145697   3.239   0.207   0.630  2.1679 -0.3910 -1.3798
 8094TIP3    H245698   3.139   0.298   0.561 -0.3002 -0.9222  1.3391
 8095TIP3   OH245699   0.064   2.519  11.315  0.1137  0.1360 -0.2734
 8095TIP3    H145700   0.040   2.428  11.332 -1.1021  0.8596  2.6431
 8095TIP3    H245701  -0.015   2.559  11.281  0.3861  0.2897 -0.7307
 8096TIP3   OH245702   4.828   5.454   4.947  0.1822 -0.2291  1.0995
 8096TIP3    H145703   4.824   5.439   4.853  0.6931 -0.4591  1.1128
 8096TIP3    H245704   4.877   5.379   4.981 -1.5241 -1.0897  1.7739
 8097TIP3   OH245705   2.205   5.848  13.753 -0.3127 -0.2885  0.0016
 8097TIP3    H145706   2.197   5.759  13.789 -0.8110  0.2929  1.3966
 8097TIP3    H245707   2.295   5.874  13.775 -0.0288 -0.5894 -0.7752
 8098TIP3   OH245708   5.691   1.143   2.810  0.4659  0.0567  0.1671
 8098TIP3    H145709   5.704   1.112   2.899  0.7275 -0.4867 -0.0521
 8098TIP3    H245710   5.774   1.125   2.766 -0.2090 -1.2483 -0.6264
 8099TIP3   OH245711   6.337   5.373   2.067  0.4216  0.2213  0.3316
 8099TIP3    H145712   6.422   5.334   2.088  0.2373 -1.1166 -1.1882
 8099TIP3    H245713   6.275   5.328   2.126  0.6069  0.3356  0.6149
 8100TIP3   OH245714   2.105   5.696  12.598  0.5254  0.1800 -0.3373
 8100TIP3    H145715   2.145   5.783  12.598  0.4544  0.2386  0.9618
 8100TIP3    H245716   2.058   5.692  12.682  0.1510 -0.9407 -0.5916
 8101TIP3   OH245717   6.480   3.603   1.468 -0.4772  0.1662 -0.6506
 8101TIP3    H145718   6.428   3.528   1.495 -2.2414  1.5795  0.0981
 8101TIP3    H245719   6.495   3.590   1.374 -1.5056 -0.6835 -0.7093
 8102TIP3   OH245720   0.367   2.292   0.195 -0.6017 -0.7877  0.2255
 8102TIP3    H145721   0.326   2.241   0.125 -0.5080 -1.1627  0.4383
 8102TIP3    H245722   0.440   2.337   0.153 -1.1917 -0.1695 -0.1426
 8103TIP3   OH245723   4.697   4.360   0.435 -0.4056 -0.9409  0.6154
 8103TIP3    H145724   4.792   4.374   0.429 -0.7561  0.9786 -1.6362
 8103TIP3    H245725   4.675   4.308   0.358 -1.6632  2.2600 -1.3577
 8104TIP3   OH245726   1.782   3.064  17.027  0.0903  0.1633  0.6262
 8104TIP3    H145727   1.727   3.135  16.994  0.3545  0.6475  1.2137
 8104TIP3    H245728   1.793   3.006  16.952 -0.0441  0.7937  0.1078
 8105TIP3   OH245729   3.609   3.299   3.083 -0.1120  0.0521 -0.0938
 8105TIP3    H145730   3.693   3.271   3.047 -0.1158 -0.9622  0.6335
 8105TIP3    H245731   3.622   3.295   3.178 -0.2694  2.1056  0.0669
 8106TIP3   OH245732   2.708   5.540  13.260 -0.2339 -0.0006  0.5438
 8106TIP3    H145733   2.666   5.549  13.175 -0.4088  1.8120  0.7919
 8106TIP3    H245734   2.801   5.525  13.239  0.1631  2.6928 -0.0456
 8107TIP3   OH245735   2.965   3.049  14.175  0.4672 -0.1482  0.2207
 8107TIP3    H145736   2.887   3.001  14.148 -0.0125  0.8902 -0.2919
 8107TIP3    H245737   3.024   3.043  14.100  0.1905  0.4958 -0.0588
 8108TIP3   OH245738   6.576   0.079   1.932  0.3225  0.4784  0.0173
 8108TIP3    H145739   6.561   0.142   1.862  0.1195  2.0535  1.4299
 8108TIP3    H245740   6.563   0.128   2.013  0.3175 -1.3380  1.1877
 8109TIP3   OH245741   2.930   4.786  14.805 -0.1276  0.9306 -0.1756
 8109TIP3    H145742   2.873   4.863  14.804 -1.8988 -0.2843  0.5186
 8109TIP3    H245743   2.937   4.763  14.898  0.0411  0.0378 -0.3994
 8110TIP3   OH245744   6.555   0.160  14.294  0.0254  0.4014  0.4699
 8110TIP3    H145745   6.645   0.137  14.271 -0.1395 -0.2863  0.5025
 8110TIP3    H245746   6.512   0.077  14.311  0.0200  0.8224  2.8629
 8111TIP3   OH245747   0.193   0.620   1.697  0.0673 -0.3350 -0.2448
 8111TIP3    H145748   0.126   0.621   1.765  0.8081  0.2390  0.4821
 8111TIP3    H245749   0.174   0.698   1.644  0.1354 -0.1985 -0.0676
 8112TIP3   OH245750   2.556   1.438   5.766  0.1014 -0.2805 -0.1991
 8112TIP3    H145751   2.627   1.447   5.829  0.3595  0.1406 -0.5456
 8112TIP3    H245752   2.527   1.528   5.749  0.5356 -0.3284 -1.2470
 8113TIP3   OH245753   4.165   3.960  15.300  0.0618  0.6495  0.1162
 8113TIP3    H145754   4.186   3.885  15.244 -0.2055  0.4784  0.2408
 8113TIP3    H245755   4.069   3.960  15.303  0.0769  0.6698  0.5558
 8114TIP3   OH245756   5.162   0.845   2.193  0.1290 -0.1350  0.0954
 8114TIP3    H145757   5.106   0.814   2.122  0.2600 -0.0491 -0.0467
 8114TIP3    H245758   5.233   0.892   2.149 -0.0504  0.3385  0.3076
 8115TIP3   OH245759   0.658   5.612   2.448 -0.2213 -0.2122 -0.3814
 8115TIP3    H145760   0.583   5.600   2.507 -1.0955  0.2592 -1.3613
 8115TIP3    H245761   0.733   5.582   2.499 -0.6096  2.1557  1.8040
 8116TIP3   OH245762   0.383   3.364  12.699  0.3177  0.8797 -0.3803
 8116TIP3    H145763   0.453   3.319  12.745  0.0894  1.7637  0.8951
 8116TIP3    H245764   0.314   3.298  12.689  0.3768  0.6566  0.5704
 8117TIP3   OH245765   0.800   3.201   5.066 -0.6402  0.2217  0.0777
 8117TIP3    H145766   0.878   3.188   5.120 -0.8574 -1.1478  0.0969
 8117TIP3    H245767   0.753   3.118   5.071 -2.3044  1.1276  0.3701
 8118TIP3   OH245768   3.613   6.127   4.846  0.0955  0.2739  0.0703
 8118TIP3    H145769   3.570   6.094   4.767  1.9607  1.3896 -1.4848
 8118TIP3    H245770   3.690   6.072   4.857 -0.0557  0.2351  1.0343
 8119TIP3   OH245771   4.240   5.242   1.828 -0.3846  0.0266  0.1048
 8119TIP3    H145772   4.161   5.296   1.834  0.4289  1.4588 -1.4585
 8119TIP3    H245773   4.240   5.209   1.738 -0.2041 -1.6115  0.6669
 8120TIP3   OH245774   2.078   4.861   0.060  0.1507 -0.0526  1.0614
 8120TIP3    H145775   2.100   4.770   0.042 -1.0461 -0.2781  0.6382
 8120TIP3    H245776   1.982   4.864   0.055  0.0568  0.8842  2.7100
 8121TIP3   OH245777   4.757   3.551  12.079  0.0236  0.0525  0.0157
 8121TIP3    H145778   4.683   3.609  12.063  0.2426  0.0389 -1.1611
 8121TIP3    H245779   4.777   3.513  11.993  2.1613  1.0032  0.0158
 8122TIP3   OH245780   6.092   4.360   5.292 -0.0669 -0.6808 -0.6097
 8122TIP3    H145781   6.173   4.364   5.241  1.3927 -0.6099  1.5595
 8122TIP3    H245782   6.065   4.452   5.302 -0.6730 -0.7270 -1.6517
 8123TIP3   OH245783   4.653   5.123  11.404  0.4390  0.3488  0.4906
 8123TIP3    H145784   4.699   5.090  11.327  1.3344 -1.1231  1.6270
 8123TIP3    H245785   4.677   5.064  11.474 -3.2510 -0.5875  1.1713
 8124TIP3   OH245786   0.078   5.669  12.730  0.1081 -0.0411  0.0594
 8124TIP3    H145787   0.166   5.674  12.766 -0.9876 -0.1775  3.0209
 8124TIP3    H245788   0.047   5.581  12.753 -1.2746  0.4742  0.2642
 8125TIP3   OH245789   5.760   3.450  10.406 -0.0873 -0.2848 -0.0330
 8125TIP3    H145790   5.689   3.515  10.404 -0.4230 -0.6084  0.9115
 8125TIP3    H245791   5.818   3.477  10.335 -0.5388  0.6885 -0.0589
 8126TIP3   OH245792   4.623   2.546   2.552  0.0238  0.0082 -0.1295
 8126TIP3    H145793   4.534   2.582   2.546 -0.4239 -1.0202  0.2374
 8126TIP3    H245794   4.658   2.583   2.634 -1.1209 -1.8180  1.2648
 8127TIP3   OH245795   5.270   1.534  15.870 -0.2336  0.2475  0.3101
 8127TIP3    H145796   5.273   1.489  15.955  1.1905  1.6900  1.0753
 8127TIP3    H245797   5.179   1.563  15.862 -0.3640  0.1903  1.3999
 8128TIP3   OH245798   3.787   1.331   2.708  0.4693 -0.5157  0.2815
 8128TIP3    H145799   3.699   1.305   2.736  0.0070 -0.9164 -1.4537
 8128TIP3    H245800   3.818   1.258   2.655  1.8965 -0.4017  0.9197
 8129TIP3   OH245801   3.183   5.913  13.521  0.1255  0.4455  0.4987
 8129TIP3    H145802   3.114   5.884  13.461 -0.8671 -1.2955  2.3346
 8129TIP3    H245803   3.262   5.916  13.468 -0.5609 -1.7214 -0.7742
 8130TIP3   OH245804   4.108   1.721   2.646  0.0438 -0.2538 -0.5891
 8130TIP3    H145805   4.139   1.633   2.623 -0.1320 -0.1175 -1.3775
 8130TIP3    H245806   4.157   1.742   2.725 -0.6237 -1.4402  0.1672
 8131TIP3   OH245807   3.636   1.632  14.785 -0.7301  0.3947 -0.2756
 8131TIP3    H145808   3.670   1.550  14.750  1.8260  1.4454 -0.4785
 8131TIP3    H245809   3.615   1.613  14.877 -0.5247 -0.5450 -0.4155
 8132TIP3   OH245810   0.198   2.843  12.719  0.5535  0.0420  0.5598
 8132TIP3    H145811   0.276   2.796  12.748  0.7663  0.6543  1.0013
 8132TIP3    H245812   0.136   2.833  12.791  0.2830 -0.2952  0.2846
 8133TIP3   OH245813   0.567   4.776  15.989  0.5019 -0.4477 -0.3685
 8133TIP3    H145814   0.642   4.796  16.044 -0.3786  2.5266 -0.0863
 8133TIP3    H245815   0.506   4.730  16.047 -0.0931  1.9722  1.0284
 8134TIP3   OH245816   4.180   6.049  10.816 -0.0706  0.3066  0.1782
 8134TIP3    H145817   4.156   5.996  10.892  1.9820 -1.3853 -0.2288
 8134TIP3    H245818   4.164   5.991  10.741  0.5257  0.9082 -0.4258
 8135TIP3   OH245819   1.277   0.820  12.112 -0.0281  0.0801 -0.0207
 8135TIP3    H145820   1.339   0.883  12.146  0.0246 -0.6050  1.2121
 8135TIP3    H245821   1.311   0.735  12.140 -0.2624 -0.4778 -1.3727
 8136TIP3   OH245822   3.344   3.500  12.824 -0.4997  0.0893  0.6316
 8136TIP3    H145823   3.271   3.560  12.842 -0.3815  0.0088  1.4245
 8136TIP3    H245824   3.304   3.424  12.783 -0.5788  0.9553 -1.0019
 8137TIP3   OH245825   0.404   2.994   4.183  0.2457 -0.4540  0.2518
 8137TIP3    H145826   0.362   3.077   4.159  0.5465 -0.4672 -0.3313
 8137TIP3    H245827   0.333   2.941   4.220  0.0522  0.0635  0.6427
 8138TIP3   OH245828   1.955   0.337  12.012  0.0618  0.2567  0.2346
 8138TIP3    H145829   2.043   0.323  12.045 -0.3393 -1.8237  0.5991
 8138TIP3    H245830   1.906   0.260  12.041 -0.7280 -1.0566 -3.8637
 8139TIP3   OH245831   3.351   3.224   3.378 -0.5397  0.4202  0.5466
 8139TIP3    H145832   3.364   3.318   3.365 -1.1501  0.3234 -0.8990
 8139TIP3    H245833   3.265   3.218   3.421 -1.2213  0.4654 -0.7703
 8140TIP3   OH245834   0.773   0.916  15.942  0.1723  0.4159  0.6815
 8140TIP3    H145835   0.792   0.931  15.850 -1.6891  1.1867  0.3706
 8140TIP3    H245836   0.801   0.825  15.958  1.5305  0.6290 -0.3210
 8141TIP3   OH245837   2.341   6.313   3.837  0.2957 -0.0158 -0.2648
 8141TIP3    H145838   2.323   6.290   3.928  0.3560  0.2246 -0.1901
 8141TIP3    H245839   2.388   6.237   3.801  0.4978 -0.0066 -0.0212
 8142TIP3   OH245840   5.859   2.841  11.882  0.5539  0.2436  0.4153
 8142TIP3    H145841   5.932   2.848  11.944  0.9619  2.0305 -0.1883
 8142TIP3    H245842   5.899   2.857  11.796 -0.3468 -0.0635 -0.0760
 8143TIP3   OH245843   3.066   5.617  15.436 -0.1725 -0.4041 -0.1579
 8143TIP3    H145844   3.082   5.603  15.530  1.1707 -0.0173 -0.3037
 8143TIP3    H245845   3.134   5.679  15.410  0.4314 -1.6650 -1.7295
 8144TIP3   OH245846   5.660   6.102  11.428  0.0190  0.9364 -0.0570
 8144TIP3    H145847   5.650   6.007  11.422  0.7872  0.8110  0.4825
 8144TIP3    H245848   5.635   6.135  11.342  3.3382 -0.0727 -1.5386
 8145TIP3   OH245849   2.480   4.615   4.257  0.9712 -0.3562  0.1814
 8145TIP3    H145850   2.439   4.674   4.194  0.7565 -1.5104 -0.7902
 8145TIP3    H245851   2.407   4.562   4.291  1.1095  0.1303  1.2821
 8146TIP3   OH245852   0.114   1.442   3.550 -0.4500  0.1827 -0.6007
 8146TIP3    H145853   0.066   1.370   3.591 -1.0581  0.9174  0.0042
 8146TIP3    H245854   0.082   1.445   3.460 -1.8812  0.9395 -0.0903
 8147TIP3   OH245855   2.039   0.833   3.801 -0.2268  0.1929 -0.1944
 8147TIP3    H145856   2.122   0.877   3.780 -0.9136  1.7008  0.1063
 8147TIP3    H245857   2.014   0.868   3.886 -1.0839 -0.4012 -0.1862
 8148TIP3   OH245858   5.808   2.385   2.350 -0.2605 -0.1397  0.4183
 8148TIP3    H145859   5.765   2.381   2.436  1.9681  0.6214  1.6561
 8148TIP3    H245860   5.799   2.476   2.323  0.2461 -0.0613  0.5102
 8149TIP3   OH245861   6.566   4.071   5.325 -0.2454  0.4346  0.0814
 8149TIP3    H145862   6.485   4.025   5.349  0.2603 -0.8907 -0.6517
 8149TIP3    H245863   6.538   4.136   5.261 -0.7874  0.2203  0.0907
 8150TIP3   OH245864   3.006   4.148  13.980 -0.0521  0.4233 -0.4136
 8150TIP3    H145865   3.098   4.132  14.002 -0.4256 -0.9880  0.2175
 8150TIP3    H245866   3.010   4.207  13.905  1.5046 -2.4148 -2.7643
 8151TIP3   OH245867   5.864   4.076  14.334  0.1314  0.6096  0.4386
 8151TIP3    H145868   5.813   4.143  14.380  2.5013  1.1363  2.5357
 8151TIP3    H245869   5.803   4.004  14.320 -1.8182  2.1778  0.4411
 8152TIP3   OH245870   4.835   6.087   4.638 -0.1883 -0.0005 -0.3619
 8152TIP3    H145871   4.742   6.073   4.620  0.1125 -0.3066 -1.8409
 8152TIP3    H245872   4.873   5.999   4.639  0.3125  0.1937 -1.2291
 8153TIP3   OH245873   4.015   4.531  16.678 -0.2232 -0.1868  0.0809
 8153TIP3    H145874   4.041   4.452  16.727  0.6318  0.4047  0.6080
 8153TIP3    H245875   3.941   4.566  16.727 -1.0992 -1.0508 -0.5748
 8154TIP3   OH245876   1.233   2.890  13.685  0.1066  0.6330 -0.2721
 8154TIP3    H145877   1.196   2.891  13.596 -2.5783 -1.5436  0.6973
 8154TIP3    H245878   1.290   2.814  13.685 -0.2998  0.3273  0.0028
 8155TIP3   OH245879   1.774   0.946   2.602 -0.1170  0.1108 -0.1695
 8155TIP3    H145880   1.797   1.036   2.580 -0.2327  0.0950 -0.3530
 8155TIP3    H245881   1.781   0.899   2.520 -2.3705  0.4126 -0.5734
 8156TIP3   OH245882   5.505   0.254  11.553 -0.2756  0.1476 -0.0313
 8156TIP3    H145883   5.493   0.287  11.642 -2.2181 -0.6655  0.0725
 8156TIP3    H245884   5.460   0.319  11.498 -0.0781  0.0525 -0.3082
 8157TIP3   OH245885   2.984   2.393  11.245  0.4609  0.0574 -0.7110
 8157TIP3    H145886   3.015   2.311  11.281  0.6700  1.2780  2.1372
 8157TIP3    H245887   3.064   2.442  11.223  0.3642 -0.0541 -1.3160
 8158TIP3   OH245888   3.896   1.423  16.895  0.1629  0.5891 -0.0511
 8158TIP3    H145889   3.978   1.454  16.856 -0.0946 -1.1243 -2.1532
 8158TIP3    H245890   3.920   1.390  16.981  2.1288 -1.6512 -1.3441
 8159TIP3   OH245891   0.479   6.073  14.420  0.0232  0.0873 -0.1599
 8159TIP3    H145892   0.523   5.988  14.413 -1.2104 -0.8186  2.1256
 8159TIP3    H245893   0.389   6.052  14.445 -0.6486  2.0471 -0.7082
 8160TIP3   OH245894   5.350   4.623   3.772 -0.3050 -0.6065 -0.1303
 8160TIP3    H145895   5.387   4.591   3.690 -0.1710 -1.9754  0.4247
 8160TIP3    H245896   5.400   4.701   3.793 -1.5058  0.8107 -2.2215
 8161TIP3   OH245897   0.362   6.711   2.520  0.3704  0.2171 -0.5049
 8161TIP3    H145898   0.398   6.794   2.489 -0.1980  1.0357  0.8992
 8161TIP3    H245899   0.439   6.657   2.538  0.8528  1.2079  0.5362
 8162TIP3   OH245900   1.359   1.065   1.995  0.7596 -0.9074 -0.0678
 8162TIP3    H145901   1.420   1.132   1.964 -0.2417  0.8230  1.4825
 8162TIP3    H245902   1.327   1.023   1.915 -0.6449  2.3688 -1.3979
 8163TIP3   OH245903   3.559   4.592   1.414 -0.3645 -0.0093 -0.4754
 8163TIP3    H145904   3.572   4.677   1.457  0.3269 -0.5212  0.3411
 8163TIP3    H245905   3.643   4.572   1.373 -0.2907 -0.6544 -0.0188
 8164TIP3   OH245906   6.431   1.819  14.751 -0.5384 -0.3960  0.0684
 8164TIP3    H145907   6.448   1.771  14.832  0.8043  0.2920  0.2238
 8164TIP3    H245908   6.358   1.877  14.772 -0.3580 -0.4009  0.7149
 8165TIP3   OH245909   2.392   0.988  12.371  0.1452 -0.6083 -0.1528
 8165TIP3    H145910   2.439   0.920  12.419  0.1152 -0.4193  0.1509
 8165TIP3    H245911   2.340   0.941  12.306  0.2702 -0.8605 -0.0713
 8166TIP3   OH245912   4.093   2.316  14.106 -0.0970 -0.1394  0.0569
 8166TIP3    H145913   4.079   2.256  14.180 -0.9813  0.1858  0.1644
 8166TIP3    H245914   4.005   2.345  14.082  0.2927  0.8315 -0.2357
 8167TIP3   OH245915   2.583   0.040   3.945  0.1457  0.1551 -0.8119
 8167TIP3    H145916   2.624   0.009   3.864  0.0102 -1.2503 -0.3784
 8167TIP3    H245917   2.628  -0.009   4.015 -0.8332  0.1460 -0.1648
 8168TIP3   OH245918   0.725   6.347  16.836  0.4736 -0.3155  0.1078
 8168TIP3    H145919   0.637   6.378  16.857  0.6913 -0.7586  1.8534
 8168TIP3    H245920   0.755   6.405  16.766 -0.3142  1.4234  1.1232
 8169TIP3   OH245921   1.305   4.372   0.909 -0.1328  0.6041 -0.2028
 8169TIP3    H145922   1.355   4.309   0.856  1.3757  2.1627 -0.7304
 8169TIP3    H245923   1.261   4.428   0.845 -0.6133  0.7261  0.2332
 8170TIP3   OH245924   5.587   3.895  15.814  0.1545  0.8638  0.2784
 8170TIP3    H145925   5.677   3.890  15.849  0.5316 -0.1278 -0.7694
 8170TIP3    H245926   5.577   3.814  15.763 -0.6728  1.8440 -1.1663
 8171TIP3   OH245927   3.428   5.456  16.749 -0.2052 -0.3948  0.0314
 8171TIP3    H145928   3.369   5.404  16.804  1.0346 -1.4441  0.4530
 8171TIP3    H245929   3.458   5.527  16.807 -1.6542  0.6283 -0.4407
 8172TIP3   OH245930   3.841   4.984  13.251 -0.3338 -0.5665 -0.2215
 8172TIP3    H145931   3.832   5.077  13.273 -0.3300 -0.3604 -1.0270
 8172TIP3    H245932   3.763   4.964  13.200  0.0116 -0.8042 -0.6717
 8173TIP3   OH245933   1.103   4.716   0.289  0.5742  0.0246 -0.0751
 8173TIP3    H145934   1.082   4.657   0.362 -1.9626 -0.0850 -0.8129
 8173TIP3    H245935   1.126   4.799   0.332 -1.7589  0.2363  0.8955
 8174TIP3   OH245936   0.679   1.622   4.319 -0.0729 -0.5450 -0.3323
 8174TIP3    H145937   0.749   1.557   4.321 -0.1063 -0.5655  0.6119
 8174TIP3    H245938   0.705   1.687   4.384 -0.8533 -0.4720 -0.0875
 8175TIP3   OH245939   0.827   0.450   3.517  0.5890 -0.1183 -0.2377
 8175TIP3    H145940   0.827   0.440   3.613  0.6146  1.4189 -0.0626
 8175TIP3    H245941   0.878   0.529   3.501 -1.2638  0.9140 -1.3692
 8176TIP3   OH245942   1.163   5.447  14.228  0.1153  0.2174 -0.1315
 8176TIP3    H145943   1.219   5.407  14.163 -2.2992 -2.6814 -0.6657
 8176TIP3    H245944   1.090   5.483  14.178  0.5212  2.2666  0.6620
 8177TIP3   OH245945   5.997   0.351  15.642  0.3360 -0.4247  0.2322
 8177TIP3    H145946   5.947   0.269  15.638  0.6572 -0.8203  2.8993
 8177TIP3    H245947   6.087   0.323  15.658  0.6643  0.4468 -0.0353
 8178TIP3   OH245948   2.315   4.547   1.090  0.1957 -0.5112 -0.3121
 8178TIP3    H145949   2.222   4.561   1.075  0.4485  1.0774 -0.6198
 8178TIP3    H245950   2.358   4.589   1.015  1.2225  1.6508  1.3559
 8179TIP3   OH245951   4.014   0.856  15.915 -0.6363  0.7992  0.1550
 8179TIP3    H145952   4.054   0.897  15.838 -0.6326  1.2363  0.3889
 8179TIP3    H245953   3.932   0.903  15.928 -1.1063  0.0887 -0.1535
 8180TIP3   OH245954   0.532   4.667  14.203 -0.3438  0.2989 -0.1645
 8180TIP3    H145955   0.625   4.646  14.193  0.0154  0.8931  1.5703
 8180TIP3    H245956   0.503   4.690  14.115  1.1574  0.1508 -0.7281
 8181TIP3   OH245957   6.777   0.329  14.467 -0.1907 -0.2967 -0.1669
 8181TIP3    H145958   6.693   0.306  14.509  1.0785 -1.2326  2.0341
 8181TIP3    H245959   6.797   0.253  14.411 -0.2254 -0.6376  0.2765
 8182TIP3   OH245960   4.510   5.950  14.131  0.3402 -0.0029 -0.0789
 8182TIP3    H145961   4.490   5.858  14.149 -2.0089  0.3742 -0.4456
 8182TIP3    H245962   4.458   5.999  14.194 -1.1773  1.1090 -2.0753
 8183TIP3   OH245963   4.228   4.549  14.019  0.0376  0.2997 -0.9733
 8183TIP3    H145964   4.258   4.636  13.993  0.8033 -0.2462 -1.9555
 8183TIP3    H245965   4.176   4.565  14.098 -0.3491  1.7187 -1.4742
 8184TIP3   OH245966   3.748   4.329   2.354 -0.3458 -0.3960  0.2033
 8184TIP3    H145967   3.724   4.236   2.347  1.1175 -0.7006 -1.5559
 8184TIP3    H245968   3.789   4.337   2.440  0.0105 -1.5021  0.1476
 8185TIP3   OH245969   5.489   0.008   1.110 -0.8298  0.5220 -0.1379
 8185TIP3    H145970   5.442   0.081   1.068 -0.1312  0.5698 -0.8604
 8185TIP3    H245971   5.432  -0.067   1.098 -1.3919  0.8701  0.2897
 8186TIP3   OH245972   3.687   0.408  11.204 -0.2529  0.1322 -0.2167
 8186TIP3    H145973   3.720   0.443  11.121  2.3593 -1.0954  0.1846
 8186TIP3    H245974   3.765   0.374  11.247 -1.8889 -1.3173  1.7501
 8187TIP3   OH245975   6.069   3.516  15.196  0.0712 -0.3878 -0.4562
 8187TIP3    H145976   5.989   3.552  15.235 -0.2789 -0.5543 -1.0071
 8187TIP3    H245977   6.119   3.592  15.169  1.3948 -0.1550  2.3398
 8188TIP3   OH245978   5.342   0.083   1.942  0.2846  0.2171  0.2568
 8188TIP3    H145979   5.334   0.061   1.849  0.6193  0.2170  0.2296
 8188TIP3    H245980   5.396   0.162   1.944 -0.8205  0.9962  0.3638
 8189TIP3   OH245981   6.414   2.582  16.778  0.4278  0.1004 -0.0204
 8189TIP3    H145982   6.425   2.667  16.822  0.8119  0.1847 -0.2719
 8189TIP3    H245983   6.320   2.574  16.763  0.4683  0.8677 -0.7558
 8190TIP3   OH245984   3.274   0.861  16.202 -0.2511 -0.6546 -0.3102
 8190TIP3    H145985   3.347   0.894  16.149  0.2822 -0.9917  0.2025
 8190TIP3    H245986   3.218   0.937  16.216  0.0233 -0.3832 -0.6662
 8191TIP3   OH245987   2.229   1.756  10.237 -0.7363 -0.2298  0.1539
 8191TIP3    H145988   2.267   1.675  10.204 -1.4549 -0.8903  0.9028
 8191TIP3    H245989   2.257   1.761  10.328 -1.1080  0.1067  0.2548
 8192TIP3   OH245990   5.989   2.932   0.417 -0.8465 -0.1624  0.5579
 8192TIP3    H145991   5.920   2.873   0.384 -1.1486 -0.5797  1.8492
 8192TIP3    H245992   5.998   2.907   0.509  0.2260  0.6872  0.6926
 8193TIP3   OH245993   3.984   5.107   4.462  0.6150 -0.6857  0.7835
 8193TIP3    H145994   3.962   5.164   4.536 -1.1044 -1.9329  1.2962
 8193TIP3    H245995   4.057   5.152   4.419  0.6047  0.9016  2.2726
 8194TIP3   OH245996   0.685   6.516  12.313 -0.7068  0.5490 -0.0905
 8194TIP3    H145997   0.759   6.576  12.304 -0.8274  0.4451 -2.1829
 8194TIP3    H245998   0.724   6.436  12.348  0.0440  0.7338 -0.4712
 8195TIP3   OH245999   2.229   6.061   5.274 -0.2105 -0.6052 -0.1845
 8195TIP3    H146000   2.285   6.090   5.202  0.5429 -1.6106 -0.0154
 8195TIP3    H246001   2.280   6.078   5.353 -0.3176 -1.1295  0.0009
 8196TIP3   OH246002   4.920   6.120  13.882  0.3240  0.2097  0.2627
 8196TIP3    H146003   4.825   6.105  13.878  0.1625  0.5490  2.1622
 8196TIP3    H246004   4.946   6.086  13.967  1.7196  1.2119  0.2610
 8197TIP3   OH246005   3.552   5.325  14.200  0.1165 -0.1913 -0.6562
 8197TIP3    H146006   3.495   5.320  14.277  0.6681  1.7289 -0.0546
 8197TIP3    H246007   3.518   5.400  14.151  1.7685  0.6787 -0.5423
 8198TIP3   OH246008   5.093   2.823   1.508  0.1783  0.1781  0.4262
 8198TIP3    H146009   5.176   2.831   1.461  1.6352  0.3851  2.9121
 8198TIP3    H246010   5.047   2.753   1.462  0.9471  1.1826 -2.0494
 8199TIP3   OH246011   5.819   5.758  14.441  0.0068 -0.4670 -0.0554
 8199TIP3    H146012   5.734   5.786  14.407  0.1653  1.1964  0.8430
 8199TIP3    H246013   5.822   5.664  14.422 -1.9864 -0.5525 -0.2015
 8200TIP3   OH246014   0.840   5.336   5.090  0.7299 -0.8127 -0.0313
 8200TIP3    H146015   0.934   5.336   5.068  0.8009 -0.7244  0.2626
 8200TIP3    H246016   0.796   5.346   5.006  1.0502  2.4232  0.0854
 8201TIP3   OH246017   6.046   2.697  16.296 -0.0162  0.2428  0.0926
 8201TIP3    H146018   5.989   2.657  16.362 -0.2930 -0.3084 -0.4690
 8201TIP3    H246019   6.000   2.683  16.213  0.1687  1.2115 -0.1880
 8202TIP3   OH246020   5.847   0.812  15.422 -0.5822  0.0136  0.1732
 8202TIP3    H146021   5.929   0.833  15.467 -1.2639 -0.9407  1.9947
 8202TIP3    H246022   5.797   0.894  15.425 -0.4673  0.0661  0.8564
 8203TIP3   OH246023   3.251   0.267  14.050 -0.3622 -0.7377 -0.2903
 8203TIP3    H146024   3.169   0.225  14.024 -0.6454 -1.0916  1.0909
 8203TIP3    H246025   3.235   0.299  14.139  0.3556  0.9906 -0.7454
 8204TIP3   OH246026   4.120   1.613  14.297 -0.3930 -0.0225  0.0422
 8204TIP3    H146027   4.194   1.583  14.350  0.3698  2.2581  0.4035
 8204TIP3    H246028   4.131   1.708  14.294 -1.4238  0.0831 -2.7610
 8205TIP3   OH246029   6.392   3.255  11.598 -0.2504  0.3910  0.2357
 8205TIP3    H146030   6.423   3.254  11.689 -1.3820  1.2167  0.6534
 8205TIP3    H246031   6.428   3.335  11.561  0.9295 -0.3824 -0.3211
 8206TIP3   OH246032   5.284   2.692  15.274  0.8672  0.2068 -0.2224
 8206TIP3    H146033   5.203   2.744  15.272  0.1719 -0.5687  2.5987
 8206TIP3    H246034   5.271   2.625  15.207 -0.7106  0.2752 -0.0301
 8207TIP3   OH246035   5.234   6.535  14.986 -0.4346  0.0960 -0.3042
 8207TIP3    H146036   5.182   6.561  15.062  1.7364  0.0999  1.2794
 8207TIP3    H246037   5.281   6.615  14.960  0.0420 -0.2886 -0.6529
 8208TIP3   OH246038   5.114   1.854  13.054 -0.0374 -0.1817  0.1547
 8208TIP3    H146039   5.094   1.946  13.069 -0.3123 -0.2291  0.0803
 8208TIP3    H246040   5.172   1.830  13.126  1.0133  0.3680 -0.4825
 8209TIP3   OH246041   0.387   5.603   1.964  0.2073 -0.1014  0.1575
 8209TIP3    H146042   0.332   5.636   2.035 -0.4673 -0.0902 -0.3575
 8209TIP3    H246043   0.463   5.564   2.008 -0.0173  0.2392  0.8603
 8210TIP3   OH246044   2.523   6.125   6.766  0.1890 -0.0545  0.1469
 8210TIP3    H146045   2.448   6.184   6.779  0.6480  0.2839  1.4026
 8210TIP3    H246046   2.593   6.183   6.735  0.2861 -0.1557  0.1797
 8211TIP3   OH246047   3.248   2.174   4.750 -0.5691 -0.6200 -0.4486
 8211TIP3    H146048   3.318   2.134   4.698  1.2033  0.5719  0.9074
 8211TIP3    H246049   3.236   2.114   4.824  0.1614 -0.0587  0.1423
 8212TIP3   OH246050   4.386   4.432   4.011  0.7204  0.5773 -0.0374
 8212TIP3    H146051   4.394   4.352   4.062  0.1815  0.2634 -0.4364
 8212TIP3    H246052   4.418   4.408   3.924 -0.8715  0.3657 -0.5858
 8213TIP3   OH246053   3.966   5.115  16.621 -0.2049 -0.2410 -0.3543
 8213TIP3    H146054   3.957   5.191  16.563  1.4526  1.3099  1.3182
 8213TIP3    H246055   3.887   5.117  16.675 -1.2429 -1.0797 -1.7529
 8214TIP3   OH246056   0.535   6.121  15.762 -0.3803  0.1207 -0.2214
 8214TIP3    H146057   0.494   6.206  15.747  0.7120  0.6920 -0.0140
 8214TIP3    H246058   0.619   6.141  15.803 -1.3143 -1.1844  2.5209
 8215TIP3   OH246059   6.684   1.683   3.750 -0.0409 -0.2260  0.2029
 8215TIP3    H146060   6.634   1.763   3.739  0.1248 -0.0175  0.9229
 8215TIP3    H246061   6.735   1.675   3.669 -0.7126 -0.0802 -0.2405
 8216TIP3   OH246062   1.596   6.277  15.233  0.5262  0.2592 -0.3136
 8216TIP3    H146063   1.506   6.295  15.206  1.0797 -0.1794 -2.6772
 8216TIP3    H246064   1.638   6.363  15.232  0.8926  0.1276 -2.5278
 8217TIP3   OH246065   0.796   0.388   1.809  0.6533 -0.2217  0.1511
 8217TIP3    H146066   0.881   0.412   1.845  0.9309 -1.7544  0.5832
 8217TIP3    H246067   0.816   0.332   1.735  0.0296 -0.9091  0.4855
 8218TIP3   OH246068   1.917   1.182   2.319  0.0865  0.7597 -0.1671
 8218TIP3    H146069   1.831   1.172   2.280  0.6443  1.6125 -1.7151
 8218TIP3    H246070   1.900   1.202   2.411 -1.4277  2.3565 -0.7531
 8219TIP3   OH246071   2.141   5.994   1.652  0.3606  0.1370  0.6165
 8219TIP3    H146072   2.208   5.947   1.702  0.5695  0.0388  0.2473
 8219TIP3    H246073   2.058   5.971   1.694  0.4898 -0.3424  0.6080
 8220TIP3   OH246074   0.006   0.373  15.910 -0.3219 -0.3469  0.5093
 8220TIP3    H146075   0.060   0.358  15.987  0.0265  2.6223  0.9408
 8220TIP3    H246076  -0.047   0.450  15.931 -1.0456 -0.1333 -1.7787
 8221TIP3   OH246077   6.303   1.271   4.755 -0.2976  0.2115  0.0100
 8221TIP3    H146078   6.397   1.277   4.735 -0.6711  4.2545 -1.3472
 8221TIP3    H246079   6.261   1.275   4.669 -1.7313  1.2819  0.7291
 8222TIP3   OH246080   3.175   6.705   5.106  0.4262  0.0831 -0.1445
 8222TIP3    H146081   3.193   6.654   5.185 -1.2326 -1.7245 -0.8725
 8222TIP3    H246082   3.229   6.665   5.038  1.3922  1.2506 -0.0894
 8223TIP3   OH246083   6.585   3.596   3.377 -0.4260  0.5478  0.5305
 8223TIP3    H146084   6.659   3.617   3.320 -0.6940  0.8617  0.2968
 8223TIP3    H246085   6.596   3.503   3.398 -1.2604 -0.0430 -1.4345
 8224TIP3   OH246086   2.388   0.806   4.441  0.6871  0.1858  0.1673
 8224TIP3    H146087   2.479   0.835   4.438  0.4418  0.8805 -1.3109
 8224TIP3    H246088   2.342   0.866   4.383 -0.1430 -2.1620 -1.7636
 8225TIP3   OH246089   4.553   6.772  16.292 -0.1521 -0.4714 -0.0764
 8225TIP3    H146090   4.522   6.857  16.323  0.5728 -0.3022  0.2224
 8225TIP3    H246091   4.477   6.731  16.252 -0.8082 -0.2069  0.8941
 8226TIP3   OH246092   5.570   0.884   1.607  0.3604  0.2414 -0.5436
 8226TIP3    H146093   5.622   0.869   1.528  0.2102  1.3212 -0.8706
 8226TIP3    H246094   5.634   0.909   1.673  0.2430  2.2637 -1.1303
 8227TIP3   OH246095   5.660   4.275  14.231 -0.1659 -0.0031  0.1189
 8227TIP3    H146096   5.598   4.209  14.262  0.4035 -1.5147 -1.8058
 8227TIP3    H246097   5.699   4.237  14.153  1.1748  2.0826 -0.3036
 8228TIP3   OH246098   1.738   2.813  14.170  0.6138  0.3643 -0.2102
 8228TIP3    H146099   1.756   2.867  14.246  0.8638  0.4400 -0.3219
 8228TIP3    H246100   1.651   2.777  14.186  0.4668  0.7585 -0.1129
 8229TIP3   OH246101   0.253   2.713   2.148 -0.3791  0.0826  0.1228
 8229TIP3    H146102   0.165   2.705   2.186 -1.0635  0.0959 -1.3875
 8229TIP3    H246103   0.269   2.807   2.145 -0.9217  0.1644 -0.8529
 8230TIP3   OH246104   0.946   1.061   2.671 -0.3438 -0.4272 -0.2447
 8230TIP3    H146105   0.985   1.056   2.759  0.9700  2.1195 -0.5984
 8230TIP3    H246106   1.015   1.098   2.616 -1.6996 -0.3851 -2.0109
 8231TIP3   OH246107   1.648   0.374   2.650 -0.0110  0.4103 -0.4652
 8231TIP3    H146108   1.711   0.444   2.631 -0.2069  0.8998  0.5649
 8231TIP3    H246109   1.569   0.401   2.603 -0.4740  1.5679  0.8797
 8232TIP3   OH246110   4.702   4.346  11.711 -0.0424  0.2409  0.4516
 8232TIP3    H146111   4.789   4.364  11.677 -0.5743 -0.3131 -1.3408
 8232TIP3    H246112   4.644   4.354  11.635 -1.1935 -1.9473  1.0007
 8233TIP3   OH246113   5.466   5.905   2.554 -0.5915 -0.2274  0.5555
 8233TIP3    H146114   5.490   5.832   2.610  0.9926 -1.2369 -1.3087
 8233TIP3    H246115   5.371   5.909   2.560 -0.6866 -2.1167  1.1260
 8234TIP3   OH246116   0.545   0.177  16.571  0.3354  0.3963  0.6984
 8234TIP3    H146117   0.475   0.237  16.550  1.5142  1.6407  0.2010
 8234TIP3    H246118   0.506   0.116  16.635 -1.5073  0.2923 -0.4507
 8235TIP3   OH246119   5.442   1.051  17.259  0.3035 -0.0655  0.0389
 8235TIP3    H146120   5.492   0.987  17.310  1.2105  0.0922 -0.6260
 8235TIP3    H246121   5.508   1.111  17.225 -0.2195 -0.4332 -1.7148
 8236TIP3   OH246122   2.364   3.821  13.803  0.0923  0.4788 -0.0389
 8236TIP3    H146123   2.302   3.767  13.853  0.0877  0.6376  0.1285
 8236TIP3    H246124   2.450   3.787  13.828  0.1979  1.7788  1.5569
 8237TIP3   OH246125   6.681   3.121  15.801  0.3475 -0.3098  0.1365
 8237TIP3    H146126   6.684   3.026  15.810  1.8094 -0.3074 -0.1247
 8237TIP3    H246127   6.637   3.135  15.717 -1.4310 -0.6800  0.9690
 8238TIP3   OH246128   5.438   3.681  15.741 -0.2933 -0.1272  0.6014
 8238TIP3    H146129   5.496   3.615  15.780 -1.0818 -0.5506  1.0731
 8238TIP3    H246130   5.356   3.673  15.789 -0.9189  0.1340 -0.3934
 8239TIP3   OH246131   2.224   0.686   0.655  0.3729  0.4314  0.1583
 8239TIP3    H146132   2.139   0.695   0.698  0.4499  0.9388  0.2099
 8239TIP3    H246133   2.282   0.745   0.703  0.6462  0.4231 -0.1552
 8240TIP3   OH246134   0.667   6.443   3.903  0.0065  0.0465 -0.0823
 8240TIP3    H146135   0.653   6.530   3.865  1.6021 -0.0533 -0.9806
 8240TIP3    H246136   0.685   6.387   3.828 -0.2849 -0.9222  0.5540
 8241TIP3   OH246137   0.872   1.292   0.304 -0.0673 -0.4700  0.1357
 8241TIP3    H146138   0.893   1.282   0.396  2.7852 -0.6856 -0.4457
 8241TIP3    H246139   0.810   1.365   0.301  1.2567  0.8112  2.0932
 8242TIP3   OH246140   1.326   1.409  14.347 -0.2541  0.1299 -0.0494
 8242TIP3    H146141   1.355   1.327  14.306  0.5468 -0.0668  0.8811
 8242TIP3    H246142   1.336   1.394  14.441 -0.4623  1.1704  0.1492
 8243TIP3   OH246143   2.939   6.339   3.131  0.2680 -0.1170  0.0826
 8243TIP3    H146144   3.028   6.352   3.161  0.1690  3.5273 -0.6899
 8243TIP3    H246145   2.896   6.291   3.202  2.0005  1.0885  2.0646
 8244TIP3   OH246146   1.143   6.456   6.671 -0.9262  0.0675  0.2868
 8244TIP3    H146147   1.103   6.373   6.647 -0.8632 -0.8082  2.8695
 8244TIP3    H246148   1.078   6.497   6.729 -0.1102  0.8764  0.6523
 8245TIP3   OH246149   1.305   4.775  11.880  0.1287  0.2389 -0.5689
 8245TIP3    H146150   1.331   4.863  11.906 -0.3001  0.2041 -0.0124
 8245TIP3    H246151   1.232   4.788  11.818  0.9159  0.3093 -1.5076
 8246TIP3   OH246152   3.691   0.392  14.146 -0.2016 -0.2486 -0.1456
 8246TIP3    H146153   3.706   0.433  14.061  0.5363  0.2805  0.2293
 8246TIP3    H246154   3.631   0.452  14.191  0.6112  0.2690  0.2738
 8247TIP3   OH246155   4.573   4.929  13.085 -0.1267  0.3109 -1.0058
 8247TIP3    H146156   4.526   4.892  13.010 -1.2190 -0.0653 -0.1692
 8247TIP3    H246157   4.588   4.855  13.143 -1.0100  0.8968  0.0099
 8248TIP3   OH246158   6.570   5.483   0.155 -0.4810 -0.2584  0.2069
 8248TIP3    H146159   6.618   5.400   0.155  0.1854  0.1194  0.4144
 8248TIP3    H246160   6.595   5.525   0.072  0.4831  0.4552  0.8338
 8249TIP3   OH246161   1.844   6.518   5.873  0.1224 -0.4244  0.1809
 8249TIP3    H146162   1.909   6.455   5.844  2.5779  2.0946 -0.1316
 8249TIP3    H246163   1.840   6.507   5.968  1.3035 -0.3437  0.2426
 8250TIP3   OH246164   1.609   2.875   0.784 -0.1921  0.1797  0.3508
 8250TIP3    H146165   1.673   2.907   0.846  0.7949 -1.1567  0.0690
 8250TIP3    H246166   1.552   2.817   0.835 -0.2127  0.1492  0.2938
 8251TIP3   OH246167   5.195   5.511  17.258  0.7543  0.4210 -0.5360
 8251TIP3    H146168   5.223   5.519  17.350  0.0494 -0.4585 -0.2372
 8251TIP3    H246169   5.146   5.430  17.255 -1.6867  1.8282 -1.0733
 8252TIP3   OH246170   4.841   5.214  14.641  0.6112 -0.9436  0.1178
 8252TIP3    H146171   4.933   5.203  14.614  0.8338  1.9001 -0.6187
 8252TIP3    H246172   4.846   5.267  14.720 -0.3846  0.5102 -0.7374
 8253TIP3   OH246173   0.876   4.549   2.160  0.0373  0.2647  0.4024
 8253TIP3    H146174   0.847   4.533   2.250 -2.1874  1.6105 -0.0261
 8253TIP3    H246175   0.804   4.596   2.118  1.2379  0.1803 -1.9518
 8254TIP3   OH246176   4.870   0.006   2.769 -0.5626  0.2893  0.0341
 8254TIP3    H146177   4.896   0.060   2.843 -1.2997  0.8043 -0.0754
 8254TIP3    H246178   4.775  -0.004   2.778 -0.4988 -0.6177 -0.1955
 8255TIP3   OH246179   5.752   4.249  13.661 -0.1081 -0.3831  0.7763
 8255TIP3    H146180   5.832   4.262  13.711 -0.2298  0.0294  0.8636
 8255TIP3    H246181   5.682   4.261  13.725 -0.2337 -1.3607  0.8438
 8256TIP3   OH246182   2.679   3.282   3.472 -0.0731 -0.1297  0.5071
 8256TIP3    H146183   2.735   3.303   3.397  0.3743 -3.5173 -0.2418
 8256TIP3    H246184   2.591   3.279   3.436 -0.2003  0.6994  0.7143
 8257TIP3   OH246185   3.346   3.742   0.652  0.0119  0.5697  0.0627
 8257TIP3    H146186   3.374   3.768   0.740  2.7789 -1.2361 -0.1346
 8257TIP3    H246187   3.288   3.668   0.666  0.0138  0.6241  0.3671
 8258TIP3   OH246188   4.552   3.759  17.027 -0.5747  0.0407 -0.3276
 8258TIP3    H146189   4.623   3.751  17.090  1.0267  2.7963 -1.5896
 8258TIP3    H246190   4.583   3.712  16.949  1.1961  3.3401 -1.7873
 8259TIP3   OH246191   2.769   2.003  16.788  0.1848 -0.2068  0.0804
 8259TIP3    H146192   2.779   1.949  16.866 -1.9270 -0.1988  0.3906
 8259TIP3    H246193   2.716   1.951  16.728  0.9349  0.1906 -0.9679
 8260TIP3   OH246194   4.865   1.033  13.222 -0.0585 -0.4598 -0.3286
 8260TIP3    H146195   4.777   1.072  13.225  0.1736 -0.0039  1.2327
 8260TIP3    H246196   4.910   1.081  13.152 -0.8047 -0.2022 -0.6515
 8261TIP3   OH246197   3.373   3.441  14.498 -0.1309 -0.3068 -0.1304
 8261TIP3    H146198   3.322   3.398  14.566  0.1156  0.3142  0.4624
 8261TIP3    H246199   3.365   3.534  14.518  1.3601 -0.1977  0.0848
 8262TIP3   OH246200   1.967   1.515  11.796 -0.2091  0.2354  0.6248
 8262TIP3    H146201   2.040   1.478  11.846 -0.1453  0.9794  1.1002
 8262TIP3    H246202   1.981   1.610  11.802  0.5460  0.3539 -1.8879
 8263TIP3   OH246203   3.895   6.544   3.895 -0.4847  0.0537  0.5230
 8263TIP3    H146204   3.935   6.582   3.973  1.4991  0.0454 -0.4204
 8263TIP3    H246205   3.888   6.450   3.915  0.0463  0.0470  0.6895
 8264TIP3   OH246206   6.247   3.161  14.144 -0.4687  0.0670  0.2839
 8264TIP3    H146207   6.299   3.217  14.201  0.2512  0.1995 -0.4773
 8264TIP3    H246208   6.204   3.222  14.083 -1.8926 -0.0006  1.1760
 8265TIP3   OH246209   5.462   2.014   1.811  0.4636  0.5176 -0.2504
 8265TIP3    H146210   5.481   2.099   1.773 -1.5072  0.4493 -1.5224
 8265TIP3    H246211   5.502   1.951   1.751  1.8357  0.5008  0.6374
 8266TIP3   OH246212   6.440   5.629   0.491  0.7488  0.1056 -0.0571
 8266TIP3    H146213   6.351   5.658   0.473  1.2362  1.5499 -0.3089
 8266TIP3    H246214   6.487   5.646   0.409  1.5853  0.8423  0.5549
 8267TIP3   OH246215   0.658   0.190   0.811  0.5277  0.0375  0.1408
 8267TIP3    H146216   0.726   0.177   0.876 -0.3596  1.5390  1.4281
 8267TIP3    H246217   0.705   0.210   0.730  1.6209 -0.9379  0.5119
 8268TIP3   OH246218   4.356   3.857  12.858 -0.7306 -0.3238 -0.1964
 8268TIP3    H146219   4.379   3.843  12.950 -0.1934 -0.1340 -0.2972
 8268TIP3    H246220   4.440   3.866  12.813 -1.0086  1.3592 -0.4314
 8269TIP3   OH246221   2.505   0.720  10.721  0.0221  0.2512  0.1852
 8269TIP3    H146222   2.549   0.751  10.800  0.1995 -0.5344  0.3978
 8269TIP3    H246223   2.523   0.788  10.656  3.2464 -0.9036 -0.3199
 8270TIP3   OH246224   2.858   3.488  11.828  0.2885  0.4371 -0.0771
 8270TIP3    H146225   2.857   3.559  11.764 -0.4232  1.2109  0.7610
 8270TIP3    H246226   2.783   3.433  11.805  0.3930  0.3808 -0.2792
 8271TIP3   OH246227   3.661   0.271   0.758 -0.7055  0.3848  0.2450
 8271TIP3    H146228   3.729   0.255   0.693 -1.8807 -0.5979 -0.8016
 8271TIP3    H246229   3.691   0.348   0.806  1.3274 -0.2600  0.1057
 8272TIP3   OH246230   1.960   2.407  16.367  0.2552 -0.3413  0.2501
 8272TIP3    H146231   1.995   2.359  16.442 -1.2576 -1.5256  0.2599
 8272TIP3    H246232   1.865   2.400  16.377  0.0245  0.1727 -1.3479
 8273TIP3   OH246233   4.250   3.528   4.191 -0.0429 -0.3209 -0.3108
 8273TIP3    H146234   4.275   3.620   4.184  0.4818 -0.2632  1.8188
 8273TIP3    H246235   4.274   3.491   4.105  1.1413  1.1906 -0.6862
 8274TIP3   OH246236   3.310   1.893  15.439  0.0276  0.3812  0.6867
 8274TIP3    H146237   3.241   1.957  15.454 -2.8756 -2.3373 -0.0026
 8274TIP3    H246238   3.302   1.831  15.511  1.7452 -0.0582  0.5433
 8275TIP3   OH246239   1.204   1.773  13.433 -0.2973  0.1890 -0.1162
 8275TIP3    H146240   1.255   1.692  13.439  0.3662  0.3744 -2.2505
 8275TIP3    H246241   1.240   1.829  13.501  0.3963 -0.7161  0.2848
 8276TIP3   OH246242   1.449   0.148  13.858 -0.1337 -0.0880 -0.2183
 8276TIP3    H146243   1.464   0.236  13.894  0.5868  0.1854 -1.1448
 8276TIP3    H246244   1.471   0.155  13.765 -0.2034 -1.2169 -0.3416
 8277TIP3   OH246245   4.385   1.225  14.540 -0.2621 -0.4050  0.0471
 8277TIP3    H146246   4.480   1.222  14.549 -0.2697  0.0051  0.3008
 8277TIP3    H246247   4.361   1.139  14.506  0.5269  0.4981 -3.1561
 8278TIP3   OH246248   2.831   0.155  14.003 -0.1125  0.6425  0.2124
 8278TIP3    H146249   2.852   0.125  14.091  1.5288  1.1810  0.0306
 8278TIP3    H246250   2.742   0.190  14.010 -0.8683 -1.3293  1.1314
 8279TIP3   OH246251   6.361   1.592  12.826 -0.0425 -0.5550  0.5070
 8279TIP3    H146252   6.294   1.580  12.894 -1.0642 -1.5532 -0.6014
 8279TIP3    H246253   6.435   1.538  12.856 -0.2926 -0.6028  1.0605
 8280TIP3   OH246254   4.231   6.339  13.186 -0.1762 -0.6516  0.6210
 8280TIP3    H146255   4.313   6.291  13.180 -0.9263 -1.9560  0.3960
 8280TIP3    H246256   4.195   6.314  13.271 -0.5223 -0.4097  0.5473
 8281TIP3   OH246257   4.329   3.373  15.045  0.5354  0.0582  0.4696
 8281TIP3    H146258   4.348   3.381  15.139  0.7437 -0.3852  0.4671
 8281TIP3    H246259   4.283   3.289  15.037  1.3252 -0.3372  0.0482
 8282TIP3   OH246260   2.565   3.269  12.930 -0.3854 -0.1922 -0.1213
 8282TIP3    H146261   2.617   3.292  12.853  0.6089 -1.2880  0.1831
 8282TIP3    H246262   2.478   3.252  12.896 -0.6965  2.0324 -0.6005
 8283TIP3   OH246263   1.878   3.964   4.700 -0.1154 -0.2195  0.2123
 8283TIP3    H146264   1.873   3.892   4.763  0.7949 -0.8807 -0.4553
 8283TIP3    H246265   1.935   4.028   4.741  0.2725 -0.5385  0.1760
 8284TIP3   OH246266   4.915   0.500  12.506  0.3512 -0.5528 -0.1375
 8284TIP3    H146267   4.849   0.479  12.440  1.2560 -0.7809 -0.9905
 8284TIP3    H246268   4.882   0.578  12.549 -0.2374 -0.3701 -0.8945
 8285TIP3   OH246269   5.206   0.247  11.326  0.7070 -0.2977  0.4386
 8285TIP3    H146270   5.124   0.197  11.329  0.7782 -0.4637 -0.2237
 8285TIP3    H246271   5.255   0.207  11.255  1.3893 -0.2302  0.8614
 8286TIP3   OH246272   3.840   2.448  11.859  0.1677  0.1848 -0.3446
 8286TIP3    H146273   3.866   2.392  11.786  0.2310  0.1796 -0.3182
 8286TIP3    H246274   3.744   2.445  11.860  0.1343  0.8416 -0.9397
 8287TIP3   OH246275   6.114   3.357  14.004  0.3290  0.3333  0.4149
 8287TIP3    H146276   6.094   3.395  13.918 -0.9136  0.7667  0.8726
 8287TIP3    H246277   6.054   3.401  14.064  1.1083 -0.0385  1.5018
 8288TIP3   OH246278   3.898   1.227   3.609  0.1049  0.0084 -1.1133
 8288TIP3    H146279   3.842   1.179   3.548 -1.4267  1.9738 -1.3356
 8288TIP3    H246280   3.920   1.308   3.563 -1.6762  1.8909  1.1297
 8289TIP3   OH246281   2.678   2.500  17.133  0.2615 -0.0972  0.0065
 8289TIP3    H146282   2.724   2.431  17.087 -0.8529  0.0494 -1.3837
 8289TIP3    H246283   2.586   2.489  17.109  0.1388  2.2872 -0.8779
 8290TIP3   OH246284   6.360   2.380  13.240  0.2531  0.1943 -0.3165
 8290TIP3    H146285   6.385   2.359  13.150  1.0322 -0.4106  0.0334
 8290TIP3    H246286   6.438   2.360  13.292  0.9635  3.5671  0.1200
 8291TIP3   OH246287   6.614   0.462   2.823 -0.3144  0.1947  0.1251
 8291TIP3    H146288   6.593   0.370   2.837 -0.2358  0.3538  1.4035
 8291TIP3    H246289   6.548   0.494   2.762 -1.2099 -0.3581  0.7972
 8292TIP3   OH246290   4.515   4.217   2.930  0.0089  0.3090 -0.4486
 8292TIP3    H146291   4.493   4.200   2.838  0.6539 -0.6304 -0.4485
 8292TIP3    H246292   4.610   4.226   2.930 -0.1706  2.5684 -0.2005
 8293TIP3   OH246293   5.959   5.317  14.942  0.0346  0.4091 -0.5296
 8293TIP3    H146294   5.881   5.314  14.996 -0.0061  0.7874 -0.5623
 8293TIP3    H246295   6.011   5.242  14.970 -0.6309 -0.2349 -0.9602
 8294TIP3   OH246296   6.736   2.619  13.889  0.7034 -0.2324 -0.5676
 8294TIP3    H146297   6.728   2.560  13.965 -0.3360  0.3136 -0.2364
 8294TIP3    H246298   6.707   2.566  13.815  1.6410 -0.7420 -0.5875
 8295TIP3   OH246299   4.588   4.055   2.132  0.1605 -0.1765 -0.0137
 8295TIP3    H146300   4.644   4.059   2.054  1.0925 -0.0052  0.6479
 8295TIP3    H246301   4.616   3.976   2.177 -0.5072 -0.3730  0.0531
 8296TIP3   OH246302   5.444   1.368  14.560 -0.2780 -0.1015 -0.1106
 8296TIP3    H146303   5.480   1.406  14.640 -1.1228  2.3203 -0.8115
 8296TIP3    H246304   5.431   1.275  14.582 -1.2286  0.6211  2.8282
 8297TIP3   OH246305   5.908   3.167   1.455 -0.2506  0.4602 -0.0555
 8297TIP3    H146306   5.884   3.147   1.365 -3.3258  2.0779  0.2807
 8297TIP3    H246307   5.872   3.094   1.506 -0.7449  0.7789  0.0611
 8298TIP3   OH246308   2.025   0.036  16.874 -0.5820 -0.7737  0.0806
 8298TIP3    H146309   1.941   0.072  16.903 -1.1671 -1.7695 -0.3553
 8298TIP3    H246310   2.014   0.018  16.781  0.1225 -0.8948  0.0126
 8299TIP3   OH246311   2.181   1.551   4.938  0.1042  0.5388 -0.1033
 8299TIP3    H146312   2.200   1.540   4.845 -0.3610  0.8412 -0.2383
 8299TIP3    H246313   2.263   1.580   4.977  1.1702 -2.4365  0.1167
 8300TIP3   OH246314   5.042   1.740   5.029 -0.1304  0.5325 -0.3903
 8300TIP3    H146315   4.998   1.661   4.997  0.2177  0.3428 -0.3981
 8300TIP3    H246316   4.970   1.795   5.062 -0.3376  0.0700 -0.0657
 8301TIP3   OH246317   3.189   6.439  11.599  0.7128  0.1786 -0.1824
 8301TIP3    H146318   3.182   6.515  11.540  0.1120  0.5131  0.3178
 8301TIP3    H246319   3.146   6.368  11.552 -0.4658  0.6410  0.1835
 8302TIP3   OH246320   6.531   5.308  16.344  0.3215  0.2768 -0.7276
 8302TIP3    H146321   6.469   5.325  16.273 -0.3355 -0.6056 -0.3837
 8302TIP3    H246322   6.613   5.346  16.314  0.2092 -0.6128 -2.2365
 8303TIP3   OH246323   2.358   0.740  14.847 -0.6673 -0.2115  0.2879
 8303TIP3    H146324   2.391   0.660  14.805  1.2651 -0.5014  2.1554
 8303TIP3    H246325   2.303   0.709  14.918  0.9122  0.0180  1.6667
 8304TIP3   OH246326   1.792   2.424   5.765 -0.1089 -0.2611 -0.2411
 8304TIP3    H146327   1.866   2.396   5.818  0.0140 -0.5865 -0.5783
 8304TIP3    H246328   1.715   2.388   5.808  0.0646 -1.3292 -0.7968
 8305TIP3   OH246329   3.781   5.330   0.220 -0.1635  0.4324 -0.4630
 8305TIP3    H146330   3.870   5.336   0.257 -0.3170 -0.8150  0.1722
 8305TIP3    H246331   3.735   5.270   0.278 -0.6522 -1.0054 -2.2290
 8306TIP3   OH246332   6.005   4.130   1.024  0.4757  0.5797 -0.5866
 8306TIP3    H146333   5.957   4.213   1.017  2.4376  1.7633 -0.5733
 8306TIP3    H246334   5.937   4.063   1.012 -1.3203  2.1302  0.2474
 8307TIP3   OH246335   2.541   3.354  13.859  0.1212  0.2890 -0.1448
 8307TIP3    H146336   2.618   3.297  13.865  0.2031  0.1464 -1.8213
 8307TIP3    H246337   2.532   3.370  13.765 -1.8457  0.3963  0.0277
 8308TIP3   OH246338   0.176   4.588  13.990 -0.3733  0.5300  0.0363
 8308TIP3    H146339   0.157   4.509  14.040  0.5143  1.3809  1.7872
 8308TIP3    H246340   0.144   4.569  13.902 -0.0363 -1.8294  0.3721
 8309TIP3   OH246341   3.695   1.881   4.432  0.9102 -0.3629  0.0187
 8309TIP3    H146342   3.617   1.918   4.391  1.8818  0.0578 -1.5115
 8309TIP3    H246343   3.742   1.839   4.360  1.6107 -1.4917  1.0977
 8310TIP3   OH246344   0.778   4.027  16.853  0.0598 -0.4407 -0.0229
 8310TIP3    H146345   0.698   4.001  16.808 -0.2373 -0.5274  0.5437
 8310TIP3    H246346   0.784   4.122  16.838 -0.3698 -0.3649  0.2727
 8311TIP3   OH246347   1.130   4.121   1.518 -0.1633 -0.0728 -0.1050
 8311TIP3    H146348   1.221   4.150   1.531 -0.4580  0.5565  0.6580
 8311TIP3    H246349   1.131   4.077   1.433  0.9650 -0.5458  0.1342
 8312TIP3   OH246350   4.771   5.685   2.679  0.3376  0.5763  0.2544
 8312TIP3    H146351   4.741   5.761   2.629  1.4878  1.0239  0.2149
 8312TIP3    H246352   4.706   5.617   2.661 -0.2194  1.2685 -0.4284
 8313TIP3   OH246353   0.237   3.006  13.917 -0.5226  0.1777  0.2430
 8313TIP3    H146354   0.306   2.941  13.931 -0.6114 -0.3181 -1.3846
 8313TIP3    H246355   0.158   2.954  13.903 -0.7186  0.6439 -0.4368
 8314TIP3   OH246356   1.906   0.411  16.215 -0.0494  0.3109  0.3256
 8314TIP3    H146357   1.962   0.479  16.252 -0.4351  0.7084  0.1884
 8314TIP3    H246358   1.927   0.410  16.122  0.8031 -0.5775  0.5079
 8315TIP3   OH246359   3.050   0.271   1.409  0.2816 -0.2887 -0.6076
 8315TIP3    H146360   3.018   0.181   1.414 -0.0165 -0.2103 -1.0593
 8315TIP3    H246361   2.973   0.323   1.384  1.0651 -0.3156 -3.4254
 8316TIP3   OH246362   1.263   5.714  13.123  0.0278  0.4071  0.0711
 8316TIP3    H146363   1.213   5.659  13.183 -0.7572  0.7685 -0.2424
 8316TIP3    H246364   1.340   5.662  13.101  0.2176  0.1799  1.2167
 8317TIP3   OH246365   5.847   1.129   6.395  1.3253 -0.1141  0.3795
 8317TIP3    H146366   5.885   1.179   6.322  0.9253 -0.6812 -0.2399
 8317TIP3    H246367   5.909   1.141   6.467  2.2338 -0.3077 -0.3397
 8318TIP3   OH246368   1.768   5.737   6.425 -0.4399 -0.9144 -0.6158
 8318TIP3    H146369   1.710   5.768   6.494  0.8393 -0.7914  0.4495
 8318TIP3    H246370   1.747   5.792   6.349  0.2698  1.1234  0.5946
 8319TIP3   OH246371   0.848   5.187  12.361  0.1819  0.2955  0.0120
 8319TIP3    H146372   0.805   5.271  12.348 -0.8355 -0.0046  1.2356
 8319TIP3    H246373   0.845   5.172  12.455  2.6393  0.0543  0.1152
 8320TIP3   OH246374   6.714   3.641  14.467 -0.2841 -0.1550 -0.2369
 8320TIP3    H146375   6.738   3.724  14.427 -0.5806 -1.1562 -2.6554
 8320TIP3    H246376   6.618   3.641  14.466 -0.3217  0.1675  1.3557
 8321TIP3   OH246377   4.560   0.071  13.972  0.3469 -0.0247 -0.2471
 8321TIP3    H146378   4.467   0.082  13.951  0.3872  1.7236  0.3848
 8321TIP3    H246379   4.562   0.066  14.067  0.9199  0.0989 -0.2518
 8322TIP3   OH246380   5.968   6.577   1.903  0.4273  0.2632  0.2392
 8322TIP3    H146381   5.993   6.569   1.995  2.3220  1.0099 -0.1678
 8322TIP3    H246382   5.950   6.487   1.875  1.3555 -0.1590  0.9540
 8323TIP3   OH246383   5.396   4.512   0.030 -1.0865 -0.5406 -0.7307
 8323TIP3    H146384   5.337   4.585   0.010 -2.8704 -1.8102 -0.2967
 8323TIP3    H246385   5.393   4.503   0.125  0.1496 -0.3677 -0.6630
 8324TIP3   OH246386   1.646   2.549  15.876  0.7155  0.0012  0.2170
 8324TIP3    H146387   1.698   2.516  15.950 -1.0390  0.4173  1.7195
 8324TIP3    H246388   1.613   2.633  15.907 -2.0035 -0.8704 -0.0603
 8325TIP3   OH246389   5.229   0.797  16.216 -0.0224 -0.7427 -0.5276
 8325TIP3    H146390   5.194   0.708  16.225 -1.7749 -0.0686 -0.1276
 8325TIP3    H246391   5.264   0.818  16.302  0.9549 -1.2529 -0.7921
 8326TIP3   OH246392   4.890   5.218   6.099 -0.0994  0.7201  0.4769
 8326TIP3    H146393   4.818   5.254   6.152  0.6371  1.2157  1.1593
 8326TIP3    H246394   4.898   5.127   6.128 -0.5928  0.5953  0.2374
 8327TIP3   OH246395   3.300   5.998   5.461  0.1850 -0.4047 -0.1900
 8327TIP3    H146396   3.359   5.923   5.464  0.4935 -0.1362  0.6939
 8327TIP3    H246397   3.281   6.018   5.553 -0.3112  0.2724 -0.4271
 8328TIP3   OH246398   1.257   1.462   5.283  0.0851  0.5539  0.4129
 8328TIP3    H146399   1.336   1.423   5.321 -0.9774 -0.9011  1.2565
 8328TIP3    H246400   1.188   1.397   5.299 -1.5018  2.1843  0.5719
 8329TIP3   OH246401   5.760   5.452  16.679  0.7120  0.3937  0.0892
 8329TIP3    H146402   5.843   5.405  16.678  0.0490 -0.7988 -0.6781
 8329TIP3    H246403   5.693   5.384  16.683 -0.2447  1.3460  1.2372
 8330TIP3   OH246404   5.045   0.261  16.020 -0.0909  0.5478  0.1168
 8330TIP3    H146405   4.951   0.268  16.036 -0.6148 -1.2758 -1.7312
 8330TIP3    H246406   5.068   0.173  16.050  0.7805  0.5577 -0.4897
 8331TIP3   OH246407   5.330   4.228   4.384 -0.0739  0.8278  0.1709
 8331TIP3    H146408   5.302   4.137   4.387  0.0253  0.7695 -0.4966
 8331TIP3    H246409   5.259   4.276   4.426  0.1639  0.3845  1.1056
 8332TIP3   OH246410   4.888   2.419  11.365 -0.5288 -0.6228 -0.3248
 8332TIP3    H146411   4.918   2.348  11.421  0.1979  1.0241  1.4969
 8332TIP3    H246412   4.845   2.480  11.425 -2.6365 -0.2671 -2.0706
 8333TIP3   OH246413   3.364   2.212  12.778 -0.1035 -0.0702  0.0492
 8333TIP3    H146414   3.346   2.276  12.847  1.7522  1.7700 -1.0847
 8333TIP3    H246415   3.279   2.171  12.761 -2.1236  4.0251 -1.0707
 8334TIP3   OH246416   3.967   0.939  16.183  0.4354 -0.2484  0.3741
 8334TIP3    H146417   4.019   0.933  16.103  1.8029  0.0602  1.2048
 8334TIP3    H246418   4.029   0.920  16.254 -0.7718 -0.6645  1.3611
 8335TIP3   OH246419   3.088   4.074   4.613  0.3203 -0.0136  0.3792
 8335TIP3    H146420   3.145   4.103   4.543  0.7677 -1.8446 -0.0685
 8335TIP3    H246421   3.141   4.081   4.692  0.3609  0.5036  0.3086
 8336TIP3   OH246422   2.469   4.796   0.290  0.4129 -0.4456 -0.5186
 8336TIP3    H146423   2.466   4.774   0.196  0.6644  0.1933 -0.6800
 8336TIP3    H246424   2.537   4.738   0.326 -0.1443 -1.1663 -0.5962
 8337TIP3   OH246425   6.402   4.353  15.495 -0.7775  0.6514 -0.0542
 8337TIP3    H146426   6.426   4.263  15.515 -0.3148  0.8166  0.1484
 8337TIP3    H246427   6.341   4.347  15.422 -1.3412  0.1233  0.4465
 8338TIP3   OH246428   1.445   6.617  16.911  0.5610  0.5340  0.1136
 8338TIP3    H146429   1.502   6.553  16.869  1.9738  1.1607  1.0006
 8338TIP3    H246430   1.502   6.662  16.974 -1.1410  0.5192  1.7537
 8339TIP3   OH246431   6.034   1.804  14.671  0.1744 -0.0654 -0.0887
 8339TIP3    H146432   6.094   1.749  14.621  0.2250  0.8723 -1.1105
 8339TIP3    H246433   6.089   1.876  14.703  0.0297 -0.3707  0.8762
 8340TIP3   OH246434   3.222   0.017  13.252  0.6779  0.4439 -0.1945
 8340TIP3    H146435   3.151   0.038  13.311 -0.6354 -1.9012 -0.8183
 8340TIP3    H246436   3.210   0.076  13.177 -0.5283  0.1812 -0.2172
 8341TIP3   OH246437   4.381   1.834   1.198  0.4829  0.1541 -0.4466
 8341TIP3    H146438   4.289   1.859   1.193  1.1022  2.5152 -1.8332
 8341TIP3    H246439   4.400   1.796   1.112  0.1602 -3.2437  0.8401
 8342TIP3   OH246440   4.898   3.013   4.235 -0.5048  0.2387  0.5829
 8342TIP3    H146441   4.882   3.081   4.300  0.2546 -0.4898  1.5796
 8342TIP3    H246442   4.857   2.934   4.272  2.3585 -0.8818  1.6516
 8343TIP3   OH246443   2.663   4.496   5.734 -0.0686  0.0561  0.4572
 8343TIP3    H146444   2.698   4.430   5.674 -0.0438  0.5460 -0.0750
 8343TIP3    H246445   2.572   4.470   5.749  0.6241 -1.5375  2.2796
 8344TIP3   OH246446   4.077   3.365   1.801 -0.1212  0.7850  0.2882
 8344TIP3    H146447   4.124   3.338   1.722  0.6895  0.2754  0.9245
 8344TIP3    H246448   4.143   3.359   1.871 -0.4477  2.4870  0.7990
 8345TIP3   OH246449   0.731   5.801   0.521 -0.4034 -0.0174 -0.0005
 8345TIP3    H146450   0.733   5.774   0.613 -0.7149  0.0982  0.0417
 8345TIP3    H246451   0.687   5.886   0.522  1.7916  1.2129  0.0404
 8346TIP3   OH246452   5.466   5.683  11.361 -0.2136 -0.4429 -0.4171
 8346TIP3    H146453   5.412   5.732  11.299  0.6189 -1.6014 -2.1356
 8346TIP3    H246454   5.553   5.721  11.351  0.0185 -0.9404 -0.2624
 8347TIP3   OH246455   5.579   1.345  14.312  0.1176  0.0536 -0.2446
 8347TIP3    H146456   5.537   1.369  14.395  1.2407 -0.2950  0.4346
 8347TIP3    H246457   5.628   1.423  14.286  0.4361 -0.1200 -0.1613
 8348TIP3   OH246458   2.013   0.899   5.369  0.2676  0.5308 -0.2199
 8348TIP3    H146459   2.030   0.990   5.393  1.0895 -0.0818  1.7540
 8348TIP3    H246460   2.094   0.868   5.329  0.1954  0.5172 -0.3546
 8349TIP3   OH246461   0.691   6.780  16.828  0.2485  0.5827  0.7337
 8349TIP3    H146462   0.715   6.872  16.839 -2.2809  2.0467 -3.6122
 8349TIP3    H246463   0.603   6.782  16.790  0.2488 -3.6534  0.0268
 8350TIP3   OH246464   5.396   2.529  15.467 -0.7596  0.2460 -0.0964
 8350TIP3    H146465   5.469   2.504  15.410  0.7688  0.7558  1.5635
 8350TIP3    H246466   5.335   2.575  15.408  0.7375  0.7375 -1.3474
 8351TIP3   OH246467   4.449   4.042   4.235 -0.3207  0.2628 -0.3097
 8351TIP3    H146468   4.517   4.106   4.257 -0.8609  0.4926  0.8007
 8351TIP3    H246469   4.392   4.087   4.173  0.0753  0.3623 -0.6024
 8352TIP3   OH246470   1.928   4.271  17.249  0.1256 -0.7124 -0.0845
 8352TIP3    H146471   1.907   4.265  17.156  1.0406 -1.1886 -0.2722
 8352TIP3    H246472   1.892   4.191  17.287 -1.4083  0.0941  0.2240
 8353TIP3   OH246473   0.215   2.368  12.463  0.1389 -0.1980  0.3000
 8353TIP3    H146474   0.196   2.295  12.521 -2.0596 -0.9263 -1.1825
 8353TIP3    H246475   0.162   2.440  12.497 -0.8376 -0.5090 -0.5146
 8354TIP3   OH246476   2.514   1.108   4.303  0.0466 -0.3240  0.1055
 8354TIP3    H146477   2.466   1.043   4.252 -0.5938  0.5883 -0.4911
 8354TIP3    H246478   2.582   1.140   4.243  0.5648 -0.6629  0.5037
 8355TIP3   OH246479   3.092   4.042   1.337 -0.2034  0.3165  0.1737
 8355TIP3    H146480   3.021   4.004   1.389  0.1439  0.3331  0.6561
 8355TIP3    H246481   3.118   4.121   1.384  0.4520  0.0621  0.2488
 8356TIP3   OH246482   3.311   5.364   4.188  0.4895  0.1079  0.0672
 8356TIP3    H146483   3.365   5.294   4.150  1.1426  0.5069  0.2452
 8356TIP3    H246484   3.248   5.385   4.119  0.8789 -0.0219 -0.3318
 8357TIP3   OH246485   5.135   5.002  11.969 -0.6305  0.3374 -0.6487
 8357TIP3    H146486   5.223   5.022  11.939 -0.6409  0.6590 -0.4654
 8357TIP3    H246487   5.139   5.008  12.064 -0.4649 -1.2014 -0.5200
 8358TIP3   OH246488   0.785   0.489  14.622 -0.3960  0.0319 -0.5262
 8358TIP3    H146489   0.694   0.507  14.599 -0.6164 -0.6307 -0.1991
 8358TIP3    H246490   0.780   0.416  14.684  0.3431  0.1367 -0.3308
 8359TIP3   OH246491   4.020   4.133   5.602 -0.0930 -0.2576  0.5607
 8359TIP3    H146492   4.078   4.127   5.677 -0.6557  2.4046  1.2912
 8359TIP3    H246493   3.951   4.069   5.620 -0.2676  0.3996  2.3608
 8360TIP3   OH246494   0.787   4.908   2.150 -0.3045 -0.1052 -0.2077
 8360TIP3    H146495   0.712   4.955   2.184 -1.6293 -0.8051 -1.9667
 8360TIP3    H246496   0.755   4.819   2.134  0.6750 -0.2390 -1.6750
 8361TIP3   OH246497   3.236   5.577  13.103 -0.5620 -0.0671 -0.4842
 8361TIP3    H146498   3.317   5.571  13.052  0.7873 -0.7497  1.6170
 8361TIP3    H246499   3.256   5.532  13.185 -2.4235  1.5344  0.9386
 8362TIP3   OH246500   2.394   3.590  11.883 -0.3645 -0.4165  1.2471
 8362TIP3    H146501   2.450   3.651  11.835 -1.7358 -0.9047 -1.1364
 8362TIP3    H246502   2.353   3.643  11.951 -0.5943  1.0694  0.0051
 8363TIP3   OH246503   5.072   2.337  13.746  0.9830 -0.1067 -0.1844
 8363TIP3    H146504   5.141   2.404  13.747  2.0504 -1.1262 -1.5220
 8363TIP3    H246505   5.120   2.254  13.742 -0.3304 -0.9021  0.0764
 8364TIP3   OH246506   4.400   3.188  17.085 -0.3877  0.8229  0.5548
 8364TIP3    H146507   4.457   3.115  17.063 -1.5966 -1.1655  3.4079
 8364TIP3    H246508   4.315   3.164  17.049 -1.0257  0.2418  2.3091
 8365TIP3   OH246509   6.084   2.500  13.019 -0.2067 -0.1465 -0.3517
 8365TIP3    H146510   6.133   2.423  12.991 -1.2113 -0.5272 -1.1498
 8365TIP3    H246511   6.118   2.520  13.106  0.1075 -1.4629 -0.1433
 8366TIP3   OH246512   2.058   6.246   3.446 -0.2477  0.0336  0.0446
 8366TIP3    H146513   1.993   6.192   3.491 -0.2341 -1.5460 -1.7165
 8366TIP3    H246514   2.109   6.286   3.517 -2.6985  0.8568  1.4626
 8367TIP3   OH246515   5.210   3.161   5.650  0.4810 -0.0408 -0.5693
 8367TIP3    H146516   5.239   3.175   5.740 -0.9437  2.2258 -0.3718
 8367TIP3    H246517   5.147   3.090   5.656  1.1715 -0.6174  0.0267
 8368TIP3   OH246518   5.275   0.694   0.645  0.0756  0.1749 -0.6321
 8368TIP3    H146519   5.353   0.749   0.638  0.2653 -0.1437 -1.0767
 8368TIP3    H246520   5.293   0.638   0.721  0.5860 -0.3675 -1.1445
 8369TIP3   OH246521   1.755   6.356   0.715 -0.3853  0.6136 -0.2250
 8369TIP3    H146522   1.760   6.326   0.806  1.2352  0.2374 -0.3971
 8369TIP3    H246523   1.690   6.299   0.675 -0.7739  0.4673  0.5887
 8370TIP3   OH246524   1.822   4.889  13.353 -0.0492 -0.8711 -0.2012
 8370TIP3    H146525   1.883   4.858  13.287  0.8253  0.6647 -0.1645
 8370TIP3    H246526   1.875   4.943  13.411 -1.4188  0.4884 -0.1516
 8371TIP3   OH246527   4.721   0.549  10.991 -0.1813  0.6809 -0.2052
 8371TIP3    H146528   4.794   0.565  11.052 -0.7088  0.1710  0.5852
 8371TIP3    H246529   4.652   0.511  11.046 -0.4383 -0.4066 -1.2469
 8372TIP3   OH246530   1.923   3.357  13.054  0.1181  0.0619 -0.1069
 8372TIP3    H146531   1.856   3.367  12.986  0.7522  1.2655 -0.5858
 8372TIP3    H246532   1.879   3.378  13.136 -0.5502 -0.9925 -0.1798
 8373TIP3   OH246533   2.023   1.693  13.990  0.4179 -0.3851 -0.0991
 8373TIP3    H146534   2.021   1.611  13.940  1.4502 -2.1134  2.4710
 8373TIP3    H246535   2.045   1.666  14.079  0.2780  2.6794  0.9820
 8374TIP3   OH246536   1.644   6.172  12.644 -0.1358  0.0717 -0.0724
 8374TIP3    H146537   1.711   6.171  12.575  1.7901  0.9433  1.6745
 8374TIP3    H246538   1.652   6.087  12.687  1.3905  0.9332  1.4588
 8375TIP3   OH246539   4.291   1.149  11.772 -0.1680  0.2493  0.7327
 8375TIP3    H146540   4.377   1.153  11.731  0.2478  0.7496  1.6118
 8375TIP3    H246541   4.308   1.160  11.866 -1.1659  0.1152  0.9489
 8376TIP3   OH246542   5.689   5.842   0.238  0.5823  0.0586  0.1779
 8376TIP3    H146543   5.734   5.907   0.185  0.6428  0.2869  0.5041
 8376TIP3    H246544   5.686   5.880   0.326  1.6853 -0.8801  0.6563
 8377TIP3   OH246545   2.711   6.708   2.505 -0.5481 -0.0112 -0.0771
 8377TIP3    H146546   2.759   6.676   2.581 -0.4884 -1.7658 -0.8030
 8377TIP3    H246547   2.660   6.633   2.475 -0.9176  0.7658 -1.4989
 8378TIP3   OH246548   6.436   2.894  16.060  0.0257  0.0318 -0.7365
 8378TIP3    H146549   6.444   2.804  16.030  0.6767 -0.4472  0.8039
 8378TIP3    H246550   6.342   2.907  16.073 -0.1494 -0.1389 -1.7165
 8379TIP3   OH246551   3.759   6.744  11.822  0.1754 -0.0399  0.7384
 8379TIP3    H146552   3.720   6.721  11.738 -0.4873  1.1493  0.6929
 8379TIP3    H246553   3.823   6.675  11.839  0.3027 -0.3147 -0.7250
 8380TIP3   OH246554   1.402   4.475  16.929  0.2602  0.0441 -0.2521
 8380TIP3    H146555   1.353   4.433  16.999  0.6907 -0.0963 -0.0388
 8380TIP3    H246556   1.422   4.405  16.867  2.4055 -0.4236  0.8952
 8381TIP3   OH246557   5.445   1.992  10.884 -0.2808  0.0309  0.2473
 8381TIP3    H146558   5.506   2.012  10.813 -2.9835  1.0925 -1.9294
 8381TIP3    H246559   5.408   1.907  10.861  2.3533 -2.1720  3.1687
 8382TIP3   OH246560   0.023   6.478   1.699  0.1599 -0.4472 -0.5869
 8382TIP3    H146561   0.018   6.572   1.716 -1.5999 -0.6013 -0.0304
 8382TIP3    H246562   0.117   6.457   1.705  0.4013  0.9192  1.2328
 8383TIP3   OH246563   3.602   2.665  15.683  0.4315  0.3500  0.2551
 8383TIP3    H146564   3.534   2.716  15.640 -0.1119 -0.6032 -0.0319
 8383TIP3    H246565   3.672   2.658  15.618 -0.7300 -1.8056 -0.8553
 8384TIP3   OH246566   5.719   1.899  15.354  0.2223  0.6429 -0.3786
 8384TIP3    H146567   5.629   1.904  15.388 -0.3182 -1.0848 -1.4667
 8384TIP3    H246568   5.728   1.978  15.300 -0.7082  0.7341 -0.4258
 8385TIP3   OH246569   3.481   3.395  15.168 -0.0043  0.9051  0.3317
 8385TIP3    H146570   3.560   3.377  15.117  0.0247 -0.9099  0.9170
 8385TIP3    H246571   3.503   3.472  15.220  0.7904  1.3849 -0.6859
 8386TIP3   OH246572   0.562   0.607  15.827 -0.2919  0.3624 -0.2002
 8386TIP3    H146573   0.525   0.696  15.830 -1.1228  0.0057  0.6927
 8386TIP3    H246574   0.656   0.621  15.826 -0.4028  1.3031 -2.4889
 8387TIP3   OH246575   4.998   3.056  11.000  0.0683 -0.1712 -0.1815
 8387TIP3    H146576   5.086   3.070  10.965  0.4864  1.8178  1.4913
 8387TIP3    H246577   5.008   2.984  11.063  1.0057  1.3118  1.4645
 8388TIP3   OH246578   0.641   5.927   0.227  0.0870 -0.0132  0.0301
 8388TIP3    H146579   0.593   6.008   0.210  0.1354 -0.3243 -1.7052
 8388TIP3    H246580   0.706   5.951   0.293 -2.6971  0.3192  2.9114
 8389TIP3   OH246581   4.526   0.087  10.685  0.3110  0.1509 -0.5912
 8389TIP3    H146582   4.573   0.157  10.730  0.7236 -1.0984  1.0327
 8389TIP3    H246583   4.578   0.008  10.703 -1.3137 -0.9437 -0.4774
 8390TIP3   OH246584   1.071   2.664  12.098  0.1203 -0.4519 -0.1072
 8390TIP3    H146585   1.073   2.743  12.045  0.3300 -0.2691  0.1665
 8390TIP3    H246586   1.029   2.598  12.043  0.0026 -0.1664 -0.3587
 8391TIP3   OH246587   5.193   0.900   1.836  0.3046 -0.1549  0.0381
 8391TIP3    H146588   5.242   0.851   1.770 -0.5191  1.3006 -1.7281
 8391TIP3    H246589   5.248   0.975   1.857 -0.3910  0.5684 -0.6720
 8392TIP3   OH246590   4.678   5.576   2.368  0.0192  0.5525  0.2681
 8392TIP3    H146591   4.730   5.496   2.377  1.5567  1.4567 -0.2284
 8392TIP3    H246592   4.592   5.545   2.340  1.1527 -0.8760 -2.0119
 8393TIP3   OH246593   1.208   3.034   2.055 -0.7170  0.4794  0.0400
 8393TIP3    H146594   1.140   3.020   1.989 -0.0127  1.5889 -0.9667
 8393TIP3    H246595   1.193   2.966   2.120 -0.6108 -1.5316 -1.9383
 8394TIP3   OH246596   2.293   4.203   5.421  0.3132  0.0438 -0.0156
 8394TIP3    H146597   2.235   4.248   5.483 -1.5874 -0.7169 -1.1509
 8394TIP3    H246598   2.308   4.266   5.351 -1.2372 -0.5215 -0.9299
 8395TIP3   OH246599   3.361   4.577   6.108 -0.9160 -0.3542  0.0215
 8395TIP3    H146600   3.285   4.606   6.158  0.4904  1.1978  1.3670
 8395TIP3    H246601   3.421   4.540   6.173  0.6320  0.9794 -0.5657
 8396TIP3   OH246602   1.707   1.070  14.061  0.5009  0.3823 -0.4373
 8396TIP3    H146603   1.743   1.093  13.975  0.8166 -4.6038 -1.9283
 8396TIP3    H246604   1.616   1.047  14.044  0.6682 -1.0537  0.4259
 8397TIP3   OH246605   0.628   1.240  12.674 -0.5015 -0.0083 -0.2244
 8397TIP3    H146606   0.564   1.231  12.745  0.4787  0.4702  0.7517
 8397TIP3    H246607   0.595   1.184  12.604 -1.4124 -0.6220  0.6760
 8398TIP3   OH246608   3.669   5.673  14.739 -0.3619 -0.5483 -0.3228
 8398TIP3    H146609   3.706   5.652  14.653  1.1386  0.2113  0.0986
 8398TIP3    H246610   3.654   5.768  14.736 -1.2595 -0.6750 -0.0856
 8399TIP3   OH246611   3.749   1.247  15.853  0.4874 -0.7839 -0.3087
 8399TIP3    H146612   3.717   1.269  15.766 -1.8167  2.3861  1.1786
 8399TIP3    H246613   3.845   1.245  15.843  0.2875 -0.7647 -2.9013
 8400TIP3   OH246614   4.890   2.240   0.985  0.0144 -0.3519  0.9355
 8400TIP3    H146615   4.852   2.322   1.014  0.6376 -0.4718  2.1970
 8400TIP3    H246616   4.848   2.173   1.040  0.0211 -0.7912  0.4156
 8401TIP3   OH246617   3.455   5.926   2.306  0.2425  0.0213 -0.0569
 8401TIP3    H146618   3.414   6.009   2.329 -1.6731 -0.7111 -0.6086
 8401TIP3    H246619   3.529   5.917   2.366  0.0752  1.7855  0.4497
 8402TIP3   OH246620   0.690   2.653  10.745 -0.2335 -0.0906  0.2070
 8402TIP3    H146621   0.726   2.570  10.777 -0.4072 -0.0431  0.5283
 8402TIP3    H246622   0.760   2.716  10.757 -1.2097  0.5784  3.2598
 8403TIP3   OH246623   5.974   6.218  14.000  0.5936 -0.6628  0.5383
 8403TIP3    H146624   6.055   6.167  14.000  0.7787 -0.4165 -1.1609
 8403TIP3    H246625   5.980   6.271  14.079  2.2290 -0.4548  0.3165
 8404TIP3   OH246626   4.954   3.265  14.832 -1.0889 -0.4193  0.3826
 8404TIP3    H146627   4.872   3.305  14.804 -0.2557  1.0058 -0.1103
 8404TIP3    H246628   5.018   3.294  14.767 -0.0684 -1.0228  1.0900
 8405TIP3   OH246629   0.516   5.520   1.547 -0.0112 -0.0381 -0.1714
 8405TIP3    H146630   0.451   5.515   1.477  0.1817 -0.1938 -0.3394
 8405TIP3    H246631   0.522   5.431   1.582  0.4669 -0.1344 -0.4816
 8406TIP3   OH246632   4.233   5.219  14.851 -0.5579 -0.8678  0.7799
 8406TIP3    H146633   4.226   5.294  14.910  1.2443  0.7471 -0.9238
 8406TIP3    H246634   4.144   5.209  14.815 -0.6982  0.8594  0.5739
 8407TIP3   OH246635   2.615   4.478  14.408 -0.3312 -0.5172 -0.6673
 8407TIP3    H146636   2.616   4.460  14.314 -1.4281 -0.5519 -0.6748
 8407TIP3    H246637   2.673   4.554  14.418 -1.4340  0.4959 -1.5902
 8408TIP3   OH246638   0.028   3.164  15.287 -0.0615  0.2757  0.4431
 8408TIP3    H146639  -0.054   3.122  15.261  0.1704 -0.7974  1.3469
 8408TIP3    H246640   0.056   3.115  15.365  0.1499  2.2235  1.6604
 8409TIP3   OH246641   4.313   0.084   5.096 -0.3615 -0.3048 -0.9379
 8409TIP3    H146642   4.245   0.147   5.073 -0.0199  0.4147 -0.0126
 8409TIP3    H246643   4.393   0.117   5.054 -0.1631 -0.0561 -0.3795
 8410TIP3   OH246644   0.140   2.577  14.582  0.3877  0.0826  0.1943
 8410TIP3    H146645   0.193   2.655  14.598  0.5955  0.1462 -0.7782
 8410TIP3    H246646   0.195   2.522  14.526  0.5266 -1.0745  1.4085
 8411TIP3   OH246647   4.086   5.982  15.866  0.7316  0.7745  0.2767
 8411TIP3    H146648   4.001   5.959  15.828 -0.5197  3.4482  1.2007
 8411TIP3    H246649   4.136   6.018  15.792  0.3642  0.8684  0.0699
 8412TIP3   OH246650   5.324   3.604  13.755 -0.5760  0.4492 -0.1854
 8412TIP3    H146651   5.237   3.594  13.717 -0.6967  1.3895 -0.1698
 8412TIP3    H246652   5.315   3.678  13.816 -0.1162 -0.3216  0.8481
 8413TIP3   OH246653   0.794   6.200  14.088  0.4526 -0.2730  0.2659
 8413TIP3    H146654   0.786   6.191  14.183  0.9213 -2.2577  0.1658
 8413TIP3    H246655   0.741   6.128  14.053  1.9769 -0.8885 -0.8982
 8414TIP3   OH246656   3.408   2.673  13.023 -0.3878 -0.7986 -0.7222
 8414TIP3    H146657   3.313   2.671  13.007 -0.4366 -0.3632 -0.5082
 8414TIP3    H246658   3.425   2.596  13.077 -0.6282 -0.8422 -0.7062
 8415TIP3   OH246659   0.971   4.707   0.658 -0.9220 -0.1831 -0.8915
 8415TIP3    H146660   1.009   4.644   0.596 -1.5827 -0.2370 -1.2437
 8415TIP3    H246661   0.877   4.695   0.650 -1.0383  0.4467 -0.5299
 8416TIP3   OH246662   6.055   6.284   5.957  0.1269 -0.2126 -0.4139
 8416TIP3    H146663   6.032   6.308   6.047  0.0297  1.2770 -0.8042
 8416TIP3    H246664   6.128   6.223   5.966  1.4923  1.4823  0.6726
 8417TIP3   OH246665   3.569   2.400  15.713  0.5694  0.0471  0.5708
 8417TIP3    H146666   3.615   2.471  15.667 -0.0109  1.9092  2.6592
 8417TIP3    H246667   3.477   2.416  15.696  0.4821 -1.3005 -0.3539
 8418TIP3   OH246668   4.798   4.856   0.082 -0.0204  0.0571 -0.3506
 8418TIP3    H146669   4.890   4.865   0.107  0.3220 -1.8436 -0.7527
 8418TIP3    H246670   4.781   4.762   0.087 -1.7490  0.2974 -0.9874
 8419TIP3   OH246671   0.735   6.378   0.611  0.3316  0.0332  0.1681
 8419TIP3    H146672   0.702   6.350   0.526 -0.9879 -1.3388  1.0842
 8419TIP3    H246673   0.824   6.408   0.593 -0.3303  0.9521 -1.8791
 8420TIP3   OH246674   0.900   3.005   3.335  0.2010 -0.7081  0.4669
 8420TIP3    H146675   0.962   3.069   3.301  1.0930 -1.2788  1.0043
 8420TIP3    H246676   0.859   2.968   3.256  0.8452 -0.6281  0.0907
 8421TIP3   OH246677   4.870   2.432  10.382  0.4529  0.3143 -0.2789
 8421TIP3    H146678   4.863   2.472  10.469 -1.1819 -0.9473  0.2270
 8421TIP3    H246679   4.856   2.504  10.321  1.3748  1.1714  0.4993
 8422TIP3   OH246680   6.700   0.343   3.463 -0.1415  0.2960  0.2717
 8422TIP3    H146681   6.779   0.295   3.437  1.5023  1.8852  1.9735
 8422TIP3    H246682   6.720   0.434   3.440 -2.6972  0.4499 -1.8425
 8423TIP3   OH246683   4.991   6.402   1.385 -0.2731 -0.1430  0.7879
 8423TIP3    H146684   4.918   6.438   1.435 -0.5158 -0.3515  0.5904
 8423TIP3    H246685   5.055   6.473   1.381 -1.0785  0.5613 -0.2752
 8424TIP3   OH246686   3.356   5.895  14.835  0.0735 -0.4331 -0.1852
 8424TIP3    H146687   3.385   5.879  14.745 -2.9135 -2.1676 -0.9633
 8424TIP3    H246688   3.273   5.941  14.826  0.0050 -0.0840  1.7345
 8425TIP3   OH246689   1.566   0.926  13.436 -0.2798 -0.4047 -0.0626
 8425TIP3    H146690   1.583   0.873  13.358 -0.3463 -0.8999  0.2533
 8425TIP3    H246691   1.549   1.014  13.402 -1.4640 -0.8613 -0.6958
 8426TIP3   OH246692   2.597   4.861   3.956 -0.5151 -0.0110 -0.1398
 8426TIP3    H146693   2.505   4.846   3.977 -1.1784  2.5754 -0.7732
 8426TIP3    H246694   2.631   4.775   3.932 -2.8879 -0.9735 -0.3302
 8427TIP3   OH246695   2.834   3.657   4.490  0.1013 -0.0773 -0.1717
 8427TIP3    H146696   2.928   3.639   4.495  0.1217  0.3629  1.9012
 8427TIP3    H246697   2.823   3.702   4.406  1.6278 -0.6923 -0.7391
 8428TIP3   OH246698   4.334   5.319   1.377  0.6729 -0.3419 -0.4162
 8428TIP3    H146699   4.419   5.312   1.333 -0.4751  0.3530 -2.9251
 8428TIP3    H246700   4.312   5.412   1.371 -0.0659 -0.4409  0.6337
 8429TIP3   OH246701   0.595   4.013  15.139 -1.1199  0.3236 -0.1337
 8429TIP3    H146702   0.637   4.086  15.093 -1.1429 -0.4762 -1.4800
 8429TIP3    H246703   0.651   3.938  15.120 -0.9040  0.0398  1.5250
 8430TIP3   OH246704   3.004   0.556  13.824 -0.3588  0.2792 -0.2364
 8430TIP3    H146705   2.924   0.564  13.876  0.4014  0.3040  0.9838
 8430TIP3    H246706   2.990   0.478  13.770 -1.3114  0.4479 -0.2556
 8431TIP3   OH246707   5.688   6.593  13.325  0.3290 -0.2074  0.4556
 8431TIP3    H146708   5.683   6.678  13.281 -0.6801  0.0614  1.0545
 8431TIP3    H246709   5.755   6.603  13.392  0.7833 -0.1395 -0.0072
 8432TIP3   OH246710   3.818   2.388  14.033  0.7486  0.0794  0.1000
 8432TIP3    H146711   3.785   2.433  14.111 -3.2899 -0.9248 -0.8008
 8432TIP3    H246712   3.767   2.307  14.028  1.4903 -0.3371 -3.0782
 8433TIP3   OH246713   6.766   6.293  15.343  0.0109  0.1947  1.1887
 8433TIP3    H146714   6.759   6.288  15.247  3.0349 -1.3250  0.9373
 8433TIP3    H246715   6.720   6.215  15.374 -0.2044  0.2036  0.8983
 8434TIP3   OH246716   2.998   0.532   1.764 -0.0307 -0.4886 -0.8533
 8434TIP3    H146717   2.972   0.441   1.771 -1.3672 -0.0908 -0.4037
 8434TIP3    H246718   3.029   0.556   1.851 -0.9807 -0.1464 -0.5983
 8435TIP3   OH246719   5.491   2.552   0.016  0.1223 -0.0748 -0.4566
 8435TIP3    H146720   5.560   2.607  -0.022  1.1999 -0.8878  0.2818
 8435TIP3    H246721   5.475   2.589   0.102 -1.6036  1.1436 -1.2433
 8436TIP3   OH246722   4.365   3.782  16.572  0.1473  0.1837  0.5671
 8436TIP3    H146723   4.333   3.789  16.481  2.0212  1.0518 -0.0662
 8436TIP3    H246724   4.352   3.869  16.609  0.2243  0.0794  0.8431
 8437TIP3   OH246725   5.748   1.098  16.459 -0.2186  0.0288 -0.5448
 8437TIP3    H146726   5.807   1.095  16.383  0.8642  0.9145  0.2307
 8437TIP3    H246727   5.694   1.176  16.444 -0.4311 -0.1454 -0.6978
 8438TIP3   OH246728   0.649   1.580  16.418 -0.3486 -1.0775 -0.2493
 8438TIP3    H146729   0.693   1.612  16.496 -1.2959 -0.0422 -0.1065
 8438TIP3    H246730   0.697   1.501  16.393  0.5762 -0.8605  0.7945
 8439TIP3   OH246731   6.742   6.700   0.379  0.9002  0.4177 -0.1870
 8439TIP3    H146732   6.790   6.661   0.452  0.9298 -0.4457 -0.6565
 8439TIP3    H246733   6.651   6.675   0.394  1.0952 -1.0184 -1.2058
 8440TIP3   OH246734   6.380   3.063  12.042 -0.1589 -0.0619  0.3231
 8440TIP3    H146735   6.364   3.034  12.132  1.3811  1.5744  1.1830
 8440TIP3    H246736   6.457   3.014  12.015 -0.9225 -0.9428 -0.3546
 8441TIP3   OH246737   6.749   6.309  12.603 -0.5454 -0.4902  0.2020
 8441TIP3    H146738   6.692   6.300  12.527 -0.7681 -2.4797  0.5572
 8441TIP3    H246739   6.691   6.331  12.675 -0.3625  1.1678 -0.1205
 8442TIP3   OH246740   4.975   1.621   3.397  0.1709 -0.2250 -0.2599
 8442TIP3    H146741   4.971   1.545   3.455 -0.8472 -0.6309 -0.8464
 8442TIP3    H246742   4.971   1.585   3.309  2.4687  0.3278 -0.6664
 8443TIP3   OH246743   3.051   5.097   6.613 -0.4147 -0.4585 -0.0025
 8443TIP3    H146744   2.977   5.066   6.561 -0.6549 -0.6267  0.4284
 8443TIP3    H246745   3.102   5.151   6.553 -1.0465 -0.0967 -0.2287
 8444TIP3   OH246746   0.835   1.528  15.448 -0.8753  0.2426  0.2484
 8444TIP3    H146747   0.751   1.491  15.420 -0.1385 -1.2249 -0.1384
 8444TIP3    H246748   0.857   1.479  15.528  0.2516 -0.3680 -0.4194
 8445TIP3   OH246749   1.644   2.635  15.517  0.2767  0.2720 -0.1595
 8445TIP3    H146750   1.549   2.648  15.510  0.2509  1.2818  1.6077
 8445TIP3    H246751   1.653   2.550  15.560  0.2144 -0.1548 -0.9613
 8446TIP3   OH246752   2.250   6.235   1.596  0.3206  0.4546  0.7322
 8446TIP3    H146753   2.197   6.156   1.605  0.6344  0.2400  0.7151
 8446TIP3    H246754   2.324   6.208   1.541 -0.2555  1.0962 -0.3700
 8447TIP3   OH246755   5.429   5.184   2.744  0.2212  0.7491 -0.2587
 8447TIP3    H146756   5.437   5.278   2.760 -1.9361  0.8851  0.3010
 8447TIP3    H246757   5.413   5.176   2.650 -1.7588  1.1681 -0.0008
 8448TIP3   OH246758   4.224   5.994   3.641 -0.4981 -0.2939  0.4385
 8448TIP3    H146759   4.307   5.950   3.625 -0.7094  0.0502 -2.0914
 8448TIP3    H246760   4.248   6.084   3.664 -0.1253  0.1648 -1.5762
 8449TIP3   OH246761   5.275   4.186  15.943 -0.2524  0.1143 -0.1309
 8449TIP3    H146762   5.323   4.159  16.021 -0.4010  1.0310  0.2803
 8449TIP3    H246763   5.232   4.268  15.967  0.8824  1.2128 -1.6150
 8450TIP3   OH246764   5.088   2.805  15.802 -0.7222 -0.1949  0.7639
 8450TIP3    H146765   5.147   2.774  15.733 -1.8761  0.4530 -0.5644
 8450TIP3    H246766   5.110   2.751  15.878  3.9833  2.2216  1.5046
 8451TIP3   OH246767   5.560   5.044   1.256  0.2779 -0.3718  0.7337
 8451TIP3    H146768   5.567   5.139   1.257  0.5162 -0.3507 -0.9895
 8451TIP3    H246769   5.482   5.025   1.308  1.1593  0.6370  2.5187
 8452TIP3   OH246770   4.414   3.051  11.456  0.1323 -0.0420  0.2781
 8452TIP3    H146771   4.486   3.084  11.402  0.2900 -1.8010 -0.6466
 8452TIP3    H246772   4.439   2.961  11.478 -1.8612 -0.7865 -0.2460
 8453TIP3   OH246773   5.965   1.266   5.059  0.1546 -0.3485  0.4608
 8453TIP3    H146774   5.938   1.259   5.150  0.0082  1.2642  0.5734
 8453TIP3    H246775   5.885   1.249   5.009 -0.9312  3.0434  0.7716
 8454TIP3   OH246776   6.230   5.164  16.131  0.4631 -0.1603  0.1234
 8454TIP3    H146777   6.304   5.189  16.076  1.1150 -2.3317 -0.0709
 8454TIP3    H246778   6.237   5.069  16.139 -2.0887 -0.3878  0.4256
 8455TIP3   OH246779   3.504   0.442   1.162  0.8246  0.5041  0.8354
 8455TIP3    H146780   3.467   0.462   1.075 -0.6968 -0.9506  1.0892
 8455TIP3    H246781   3.443   0.484   1.223 -0.3056 -1.6348  1.2576
 8456TIP3   OH246782   3.533   4.406   2.209  0.7200 -0.4637 -0.7052
 8456TIP3    H146783   3.497   4.321   2.185  0.0326 -0.2278 -0.5384
 8456TIP3    H246784   3.622   4.387   2.238  0.9866 -0.9753 -1.7728
 8457TIP3   OH246785   3.650   0.534   5.940  0.3220  0.2356 -0.2118
 8457TIP3    H146786   3.706   0.573   6.007  1.7047 -0.8098 -0.7137
 8457TIP3    H246787   3.570   0.586   5.942  0.4053  0.3746  2.0867
 8458TIP3   OH246788   0.807   3.596   2.086  0.1112 -0.2704  0.3145
 8458TIP3    H146789   0.900   3.575   2.094  0.0732 -0.4669  0.2595
 8458TIP3    H246790   0.796   3.678   2.134  0.7780  1.0524 -1.6749
 8459TIP3   OH246791   2.509   3.038  13.530  0.2423 -0.2143 -0.1824
 8459TIP3    H146792   2.418   3.063  13.544  0.4847  1.1561 -0.8764
 8459TIP3    H246793   2.507   2.943  13.518 -0.5782 -0.9262  4.0116
 8460TIP3   OH246794   1.073   0.896  17.059 -0.3646  0.2856 -0.1493
 8460TIP3    H146795   1.088   0.861  16.971  2.3126 -0.0320  0.3549
 8460TIP3    H246796   1.014   0.833  17.100 -0.1313 -0.5732 -1.0958
 8461TIP3   OH246797   5.082   4.937   1.224  0.0770 -0.4420  0.0180
 8461TIP3    H146798   5.137   4.877   1.275  0.2345  0.4169  0.8819
 8461TIP3    H246799   5.087   4.903   1.135  3.8377  0.8114 -0.4416
 8462TIP3   OH246800   0.384   0.430   5.807  0.0532 -0.2588  0.1523
 8462TIP3    H146801   0.313   0.400   5.864 -0.3928 -1.4152 -0.9627
 8462TIP3    H246802   0.464   0.399   5.851 -0.2548 -0.7772  0.3668
 8463TIP3   OH246803   2.779   2.252  16.050 -0.1642  0.3922 -0.2405
 8463TIP3    H146804   2.852   2.303  16.015  0.4857  1.8355  2.9205
 8463TIP3    H246805   2.722   2.238  15.975  2.6452  0.3624 -2.5637
 8464TIP3   OH246806   1.001   1.911  14.581 -0.3486 -0.2417 -0.1264
 8464TIP3    H146807   1.085   1.891  14.540 -0.7758  0.8469 -1.6321
 8464TIP3    H246808   1.015   1.995  14.625 -0.6415 -0.0551 -0.3826
 8465TIP3   OH246809   0.268   4.459   3.671 -0.1213 -0.0393 -0.2060
 8465TIP3    H146810   0.338   4.489   3.613  0.5009 -0.7891  0.1420
 8465TIP3    H246811   0.206   4.531   3.673  0.3715  0.4190 -0.9617
 8466TIP3   OH246812   2.814   2.688   6.031 -0.3160  0.1042 -0.1845
 8466TIP3    H146813   2.885   2.680   5.968 -0.2545 -1.7196  0.0748
 8466TIP3    H246814   2.856   2.675   6.117 -0.9817 -1.4760 -0.0586
 8467TIP3   OH246815   4.263   2.654   2.793 -0.4612  0.3076  0.2702
 8467TIP3    H146816   4.188   2.700   2.831 -1.3929 -0.8460 -0.1082
 8467TIP3    H246817   4.332   2.662   2.859 -1.6490 -0.5852  1.6832
 8468TIP3   OH246818   3.903   5.020  14.758 -0.3271 -0.2385 -0.3566
 8468TIP3    H146819   3.873   5.087  14.820 -0.3240  0.0794 -0.6921
 8468TIP3    H246820   3.824   4.972  14.735 -0.1241 -1.2206  0.8970
 8469TIP3   OH246821   0.237   3.739   1.382  0.2678 -0.2448  0.0926
 8469TIP3    H146822   0.280   3.814   1.421 -0.5736  1.0634 -1.3962
 8469TIP3    H246823   0.298   3.707   1.315  1.2788 -1.8764  1.7004
 8470TIP3   OH246824   5.768   2.802  10.485 -0.1059 -0.1478  0.3058
 8470TIP3    H146825   5.792   2.841  10.569 -0.1195 -1.4324  0.9376
 8470TIP3    H246826   5.703   2.861  10.447 -0.3884  0.2430  1.3860
 8471TIP3   OH246827   1.487   2.854  11.572  0.5563 -0.0885 -0.0531
 8471TIP3    H146828   1.412   2.818  11.619  1.0682  0.1288  0.9467
 8471TIP3    H246829   1.454   2.869  11.483 -0.8172  0.7353  0.5667
 8472TIP3   OH246830   3.851   5.398   2.192  0.3111 -0.1971 -0.7540
 8472TIP3    H146831   3.860   5.434   2.280  0.6709  1.0138 -1.2687
 8472TIP3    H246832   3.941   5.390   2.160  0.1231  2.0429 -2.0250
 8473TIP3   OH246833   1.297   2.315  16.112 -0.1314  0.4410 -0.0248
 8473TIP3    H146834   1.362   2.314  16.042 -1.0441  0.1472 -0.8986
 8473TIP3    H246835   1.217   2.344  16.069 -1.4869 -2.6161  0.1477
 8474TIP3   OH246836   4.748   6.513  13.652 -0.2888  0.8978  0.2126
 8474TIP3    H146837   4.802   6.459  13.594  2.0001  0.9144  2.1706
 8474TIP3    H246838   4.661   6.475  13.646  0.3819 -0.5130 -1.4536
 8475TIP3   OH246839   6.250   3.036   0.410 -0.3199 -0.0306 -0.8383
 8475TIP3    H146840   6.305   2.985   0.469 -0.1180  0.6460 -0.4274
 8475TIP3    H246841   6.174   2.981   0.395  1.1449 -1.6951 -2.7059
 8476TIP3   OH246842   4.914   5.370  11.192 -0.2433 -0.5852 -0.7457
 8476TIP3    H146843   4.932   5.305  11.260  0.9084  0.7886  0.3009
 8476TIP3    H246844   4.957   5.335  11.114 -0.4779 -1.5411 -0.4631
 8477TIP3   OH246845   0.203   4.141   3.999 -0.2141 -0.1702  0.0615
 8477TIP3    H146846   0.165   4.225   4.027 -0.4298 -0.3394  0.2764
 8477TIP3    H246847   0.290   4.164   3.967  0.0098  0.0335  0.8097
 8478TIP3   OH246848   4.334   6.062   4.105  0.1490 -0.0656  0.0067
 8478TIP3    H146849   4.420   6.089   4.070 -1.0038  1.2266 -2.0610
 8478TIP3    H246850   4.272   6.092   4.039 -1.8259 -2.0573  0.8583
 8479TIP3   OH246851   5.457   0.513  11.458 -0.4819 -0.0433  0.1054
 8479TIP3    H146852   5.491   0.489  11.372 -0.2017 -1.1635  0.5066
 8479TIP3    H246853   5.368   0.543  11.441 -0.3875 -0.1465 -0.5939
 8480TIP3   OH246854   5.614   4.895  13.332 -0.0759 -0.1491 -0.1162
 8480TIP3    H146855   5.607   4.990  13.339 -2.6187 -0.3423  1.1268
 8480TIP3    H246856   5.584   4.875  13.243  0.8433  0.2078 -0.5182
 8481TIP3   OH246857   5.538   4.933  16.249 -0.4370 -0.5742  0.2665
 8481TIP3    H146858   5.630   4.929  16.276 -0.3555 -1.7711 -0.1215
 8481TIP3    H246859   5.540   4.913  16.156 -1.1569 -1.4375  0.4222
 8482TIP3   OH246860   4.798   2.767  13.905  0.0191  0.2957 -0.3257
 8482TIP3    H146861   4.762   2.688  13.864 -1.1841  0.3065  0.6302
 8482TIP3    H246862   4.890   2.746  13.922  0.2068 -0.1749 -1.7986
 8483TIP3   OH246863   0.697   4.966   4.110  0.5041  0.0019 -0.2353
 8483TIP3    H146864   0.614   4.919   4.122 -0.0117  0.6305 -1.1755
 8483TIP3    H246865   0.727   4.984   4.199 -0.2095 -0.4969  0.1264
 8484TIP3   OH246866   3.021   2.509   1.662 -0.1742  0.2933  0.3708
 8484TIP3    H146867   3.056   2.462   1.586 -0.5208  1.4802 -0.5532
 8484TIP3    H246868   2.954   2.567   1.626  1.0521  2.3640  1.2893
 8485TIP3   OH246869   4.040   3.897  16.074  0.3762 -0.2364  0.0759
 8485TIP3    H146870   3.965   3.854  16.033  1.6218 -2.2973 -0.1709
 8485TIP3    H246871   4.101   3.826  16.093  2.7278  1.4444 -0.6891
 8486TIP3   OH246872   2.624   0.811  14.166  0.5086  0.0785 -0.8764
 8486TIP3    H146873   2.696   0.811  14.102  0.4338  0.9254 -0.9650
 8486TIP3    H246874   2.545   0.824  14.113  0.3640 -0.0297 -0.6885
 8487TIP3   OH246875   2.984   2.480   0.050 -0.1927 -0.4694 -0.3470
 8487TIP3    H146876   3.048   2.428   0.099 -1.9359 -1.1221  1.3778
 8487TIP3    H246877   2.976   2.561   0.099 -0.5830 -0.3266 -0.6400
 8488TIP3   OH246878   1.757   2.848  10.655 -0.8874  0.1861  0.2920
 8488TIP3    H146879   1.805   2.804  10.726  0.3555 -0.0144 -0.6321
 8488TIP3    H246880   1.668   2.814  10.662 -1.1009  1.0238  2.4515
 8489TIP3   OH246881   1.515   2.675  14.210 -0.5932  0.5206  0.0565
 8489TIP3    H146882   1.505   2.601  14.151  3.0861  0.5150 -0.7611
 8489TIP3    H246883   1.493   2.640  14.297 -0.5301 -1.0713 -0.5421
 8490TIP3   OH246884   2.964   5.227   4.896  0.3959  0.0595 -0.1714
 8490TIP3    H146885   2.947   5.267   4.811 -2.2789  0.6811  0.5566
 8490TIP3    H246886   2.951   5.133   4.881  1.0202  0.0510 -0.6746
 8491TIP3   OH246887   2.006   4.657  15.943  0.2150 -0.0860  0.0038
 8491TIP3    H146888   1.952   4.656  15.863 -0.5493  1.8254  0.4362
 8491TIP3    H246889   2.001   4.748  15.974  1.2521 -0.5745  1.7300
 8492TIP3   OH246890   2.930   6.757   3.335  0.3533  0.5122 -0.1167
 8492TIP3    H146891   2.985   6.763   3.412  1.0012  0.1053 -0.5352
 8492TIP3    H246892   2.969   6.817   3.272 -0.0263  0.6609 -0.2154
 8493TIP3   OH246893   0.662   0.276  11.853 -0.1218 -0.0696 -0.2438
 8493TIP3    H146894   0.722   0.349  11.837 -1.0970  0.8707  0.2335
 8493TIP3    H246895   0.699   0.230  11.929 -0.6987  1.3139  0.9190
 8494TIP3   OH246896   3.561   1.770   2.399  0.1673 -0.4133 -0.5440
 8494TIP3    H146897   3.595   1.823   2.471 -1.2502 -2.1619  1.5563
 8494TIP3    H246898   3.638   1.724   2.365  0.8146  0.1688  0.0867
 8495TIP3   OH246899   0.655   5.383  11.709 -0.1408 -0.5288 -0.4237
 8495TIP3    H146900   0.659   5.450  11.641  1.4083 -2.1618 -2.0706
 8495TIP3    H246901   0.630   5.303  11.663  1.9000 -1.9031  0.6751
 8496TIP3   OH246902   4.983   5.182   2.414  0.9946 -0.6687  0.6129
 8496TIP3    H146903   4.946   5.166   2.327  1.7243  0.0319  0.1581
 8496TIP3    H246904   5.069   5.140   2.412  1.6346  0.6139  0.4670
 8497TIP3   OH246905   2.309   2.180  15.964 -0.1219 -0.0160  0.2409
 8497TIP3    H146906   2.325   2.253  16.023  0.2071  1.0157 -1.0659
 8497TIP3    H246907   2.373   2.113  15.990  0.8917  0.9239  0.2295
 8498TIP3   OH246908   0.918   3.159  13.603 -0.0256  0.3325 -0.2432
 8498TIP3    H146909   0.940   3.073  13.639  0.1414  0.0149 -1.0801
 8498TIP3    H246910   0.909   3.216  13.680  0.1773 -0.3569  0.2996
 8499TIP3   OH246911   2.950   0.014   1.495  0.4780  0.0988  0.3626
 8499TIP3    H146912   3.039  -0.023   1.494  0.9287  1.0851  1.1799
 8499TIP3    H246913   2.932   0.028   1.588 -0.9905 -1.0974  0.2817
 8500TIP3   OH246914   4.714   3.110   0.766 -0.3311  0.4737  0.1960
 8500TIP3    H146915   4.713   3.157   0.682 -1.4802  0.6196  0.2799
 8500TIP3    H246916   4.783   3.044   0.756 -0.1391  0.8011 -0.6925
 8501TIP3   OH246917   3.467   1.034   0.240 -0.1343 -0.2020 -0.2261
 8501TIP3    H146918   3.553   1.054   0.278 -0.0856  1.4081 -1.0717
 8501TIP3    H246919   3.410   1.105   0.269 -1.2012 -1.2445  0.3087
 8502TIP3   OH246920   5.370   6.637  13.092  0.1837 -0.0754 -0.2242
 8502TIP3    H146921   5.366   6.627  12.997  0.4863  0.7656 -0.3291
 8502TIP3    H246922   5.284   6.607  13.122 -0.0808  0.0888 -0.8022
 8503TIP3   OH246923   6.195   1.668  15.614 -0.2544 -0.2914  0.2584
 8503TIP3    H146924   6.278   1.715  15.625 -0.4348 -0.1368  1.0053
 8503TIP3    H246925   6.218   1.589  15.566  0.3153 -0.2157  0.4028
 8504TIP3   OH246926   1.477   1.749  15.995 -0.1923  0.4619 -0.3876
 8504TIP3    H146927   1.544   1.810  15.964  0.3009  1.5297  2.4452
 8504TIP3    H246928   1.396   1.800  15.994  0.2061  1.2591  1.9077
 8505TIP3   OH246929   5.195   3.359  11.152  0.1885  0.1068  0.3399
 8505TIP3    H146930   5.106   3.391  11.167  1.3510  3.3870  1.1147
 8505TIP3    H246931   5.204   3.354  11.057 -1.0244 -1.0498  0.2634
 8506TIP3   OH246932   2.334   0.549   0.438  0.2634  0.2561  0.4556
 8506TIP3    H146933   2.317   0.599   0.519 -3.2505 -1.6061  1.0548
 8506TIP3    H246934   2.247   0.538   0.398  1.7433  0.1068 -3.0549
 8507TIP3   OH246935   0.393   3.111   1.409  0.1472  0.3979  0.0097
 8507TIP3    H146936   0.474   3.157   1.389 -0.1254  0.6666 -0.4925
 8507TIP3    H246937   0.421   3.028   1.448  0.6490  1.2851  1.6686
 8508TIP3   OH246938   4.739   6.662   4.408  0.0033 -0.0532 -0.0583
 8508TIP3    H146939   4.829   6.633   4.394  0.9987  0.5967  3.7634
 8508TIP3    H246940   4.701   6.598   4.468 -1.0680  1.2056  0.6853
 8509TIP3   OH246941   2.629   4.821  15.505 -0.2927  0.4694 -0.0959
 8509TIP3    H146942   2.553   4.769  15.479  0.6716 -2.0379  1.6991
 8509TIP3    H246943   2.627   4.821  15.601  2.2515 -0.2010  0.0235
 8510TIP3   OH246944   0.354   5.474  14.664  0.2009 -0.2981 -0.7658
 8510TIP3    H146945   0.374   5.513  14.579  0.1856  1.8256  0.1357
 8510TIP3    H246946   0.262   5.498  14.680  0.3892 -0.1415  0.1094
 8511TIP3   OH246947   3.742   2.984  11.475  0.0450  0.5310  0.3036
 8511TIP3    H146948   3.785   3.052  11.423  1.3293 -0.4219  0.0693
 8511TIP3    H246949   3.693   3.032  11.542 -1.1920  1.7760 -1.3987
 8512TIP3   OH246950   3.122   6.338   5.359  0.4436 -0.0866  0.2175
 8512TIP3    H146951   3.180   6.412   5.346 -0.1857  0.0493 -2.3046
 8512TIP3    H246952   3.070   6.361   5.436 -0.4675  2.6639 -1.0945
 8513TIP3   OH246953   2.721   1.754  12.342 -0.0284 -0.1403 -0.1298
 8513TIP3    H146954   2.790   1.698  12.378 -0.7583 -0.4935  0.7683
 8513TIP3    H246955   2.711   1.824  12.406 -0.3530  0.0290 -0.3605
 8514TIP3   OH246956   6.010   6.462  15.871  0.3116  0.0476  0.6058
 8514TIP3    H146957   6.082   6.447  15.934 -0.6003 -3.9461  0.9897
 8514TIP3    H246958   5.932   6.431  15.917 -0.9741  0.3439 -1.2789
 8515TIP3   OH246959   1.002   5.284   5.455  0.4321 -0.2452 -0.1587
 8515TIP3    H146960   0.929   5.230   5.425 -0.0765  0.6614 -0.6357
 8515TIP3    H246961   0.985   5.299   5.548 -0.7258  1.0037 -0.5261
 8516TIP3   OH246962   6.394   3.150   3.980 -0.3511 -0.4095 -0.8655
 8516TIP3    H146963   6.399   3.149   4.075  2.0935 -1.3025 -0.9139
 8516TIP3    H246964   6.317   3.098   3.959 -2.2347  1.6318  0.5923
 8517TIP3   OH246965   3.897   1.506   5.572 -0.2323  0.0089 -0.1114
 8517TIP3    H146966   3.951   1.556   5.633 -0.2507  0.9065 -0.8053
 8517TIP3    H246967   3.812   1.497   5.615  0.1439 -0.5095  0.5424
 8518TIP3   OH246968   5.627   2.473   2.815 -0.4524 -0.0958  0.2130
 8518TIP3    H146969   5.661   2.463   2.727 -1.1855 -0.2340 -0.0678
 8518TIP3    H246970   5.655   2.560   2.843 -0.0099 -0.1506 -0.0575
 8519TIP3   OH246971   1.893   3.188   2.805  0.0498 -0.2361  0.0285
 8519TIP3    H146972   1.896   3.176   2.710 -0.8636 -0.2590 -0.0034
 8519TIP3    H246973   1.812   3.237   2.821  0.2588 -0.1157  0.7869
 8520TIP3   OH246974   5.890   4.011   5.344  0.2493  0.1884  0.5395
 8520TIP3    H146975   5.889   3.916   5.341  1.4117  0.1906 -1.7604
 8520TIP3    H246976   5.979   4.034   5.372  0.4337  0.5892 -0.3453
 8521TIP3   OH246977   6.098   3.858   1.841  0.3659  0.6478 -0.0239
 8521TIP3    H146978   6.042   3.883   1.916  0.6297  0.3968  0.2586
 8521TIP3    H246979   6.080   3.765   1.827  3.2498 -0.4413  2.3393
 8522TIP3   OH246980   1.485   1.532   5.751  0.1083 -0.0074 -0.6787
 8522TIP3    H146981   1.470   1.613   5.701 -0.7516 -0.1331 -0.6419
 8522TIP3    H246982   1.409   1.526   5.808  1.2720  0.3664  0.9834
 8523TIP3   OH246983   2.055   3.306  11.009 -0.1323 -0.2648 -0.2097
 8523TIP3    H146984   2.088   3.235  11.064  0.2150 -0.3786 -0.5642
 8523TIP3    H246985   2.113   3.380  11.027 -1.5109  0.5007  1.4767
 8524TIP3   OH246986   4.761   4.430   4.443 -0.4607 -0.7619  0.3267
 8524TIP3    H146987   4.824   4.500   4.460 -2.0628  0.2950  2.2029
 8524TIP3    H246988   4.715   4.458   4.363  0.6578 -1.0273 -0.4420
 8525TIP3   OH246989   5.158   3.050   3.067 -0.2935 -0.1188  0.1613
 8525TIP3    H146990   5.101   3.013   2.999  0.0088  0.9604 -0.7104
 8525TIP3    H246991   5.104   3.048   3.146 -1.4338  0.5241 -0.5593
 8526TIP3   OH246992   1.910   2.317   0.102  0.4042 -0.3782 -0.1684
 8526TIP3    H146993   1.824   2.358   0.113  0.8575  0.9883 -1.4389
 8526TIP3    H246994   1.894   2.224   0.120 -0.6607  0.2620  2.8284
 8527TIP3   OH246995   1.518   5.557  10.817  0.1508  0.4255  0.8851
 8527TIP3    H146996   1.453   5.490  10.840  0.4348  0.4464  1.7857
 8527TIP3    H246997   1.602   5.519  10.845  0.4497  0.6873  0.3591
 8528TIP3   OH246998   1.591   0.669  13.909  0.0178 -0.0349  0.2818
 8528TIP3    H146999   1.599   0.574  13.919  0.8274  0.0075  0.1296
 8528TIP3    H247000   1.606   0.685  13.816  2.5558  0.4524  0.6928
 8529TIP3   OH247001   3.860   5.127   1.892  0.0997  1.1873  0.2853
 8529TIP3    H147002   3.901   5.051   1.850  0.2829  0.1908  2.1413
 8529TIP3    H247003   3.781   5.091   1.933 -0.1730  2.1430  0.6299
 8530TIP3   OH247004   1.803   5.360  15.153 -0.1782  0.2645 -0.8118
 8530TIP3    H147005   1.850   5.341  15.071  3.8378  1.4384  0.9382
 8530TIP3    H247006   1.736   5.424  15.127 -0.6425 -1.1451 -3.4828
 8531TIP3   OH247007   0.195   0.140  11.245 -0.3365  0.5723  0.0103
 8531TIP3    H147008   0.217   0.196  11.171 -2.8108 -0.5795 -1.7328
 8531TIP3    H247009   0.265   0.074  11.247  0.8917  1.8391  0.1020
 8532TIP3   OH247010   6.449   6.329   5.806  0.3765  0.1259 -0.1090
 8532TIP3    H147011   6.497   6.326   5.889  2.2590 -0.3267 -1.1563
 8532TIP3    H247012   6.413   6.418   5.803 -3.7739 -1.0845  3.2296
 8533TIP3   OH247013   0.083   0.352   1.666 -0.2914  0.0527  0.2424
 8533TIP3    H147014   0.093   0.314   1.578 -0.9807  0.1999  0.0921
 8533TIP3    H247015   0.142   0.427   1.666 -1.1931  0.7920 -0.5472
 8534TIP3   OH247016   2.708   6.293   5.764  0.6936 -0.0733  0.6794
 8534TIP3    H147017   2.717   6.366   5.703  0.5812  1.6166  2.5774
 8534TIP3    H247018   2.796   6.275   5.795  0.8594 -1.4335 -0.4556
 8535TIP3   OH247019   4.605   2.366  11.807  0.0574 -0.1450  0.1313
 8535TIP3    H147020   4.568   2.363  11.719  1.9027 -0.1977 -0.6798
 8535TIP3    H247021   4.541   2.320  11.862 -0.1740 -1.8907 -1.5227
 8536TIP3   OH247022   0.541   0.841   4.190  0.1645  0.6493  0.1176
 8536TIP3    H147023   0.482   0.826   4.263  0.9546  0.7515  0.7947
 8536TIP3    H247024   0.484   0.843   4.113 -0.4993 -0.9562  0.5409
 8537TIP3   OH247025   5.882   1.098   3.715  0.5605  0.5260  0.1390
 8537TIP3    H147026   5.873   1.009   3.749 -0.1966  0.2394 -0.7718
 8537TIP3    H247027   5.972   1.103   3.684  0.8074  0.2997  0.8165
 8538TIP3   OH247028   3.299   6.538  13.253 -0.0867  0.3404 -0.0398
 8538TIP3    H147029   3.237   6.482  13.206  1.1206 -0.0254 -1.2409
 8538TIP3    H247030   3.255   6.623  13.257 -1.1816 -0.2196  0.2251
 8539TIP3   OH247031   5.661   3.313  17.045 -0.1541 -0.2354 -0.1047
 8539TIP3    H147032   5.588   3.338  17.102  0.3149  0.1050  0.3591
 8539TIP3    H247033   5.739   3.329  17.098  0.2268 -1.5250 -0.2495
 8540TIP3   OH247034   3.363   3.131   2.442 -0.2810  0.0711  0.4908
 8540TIP3    H147035   3.270   3.153   2.438 -0.1112  0.7323  0.0397
 8540TIP3    H247036   3.391   3.130   2.350 -0.2118 -1.8048  0.4953
 8541TIP3   OH247037   2.310   2.596   2.837  0.3452  0.2027  0.4397
 8541TIP3    H147038   2.219   2.624   2.827  0.2903 -0.2356 -0.3430
 8541TIP3    H247039   2.354   2.672   2.875 -0.3849  0.3453  1.0371
 8542TIP3   OH247040   3.281   2.992   0.371 -0.2573  0.1374 -0.0895
 8542TIP3    H147041   3.349   2.924   0.378 -0.0891  0.1785 -1.1451
 8542TIP3    H247042   3.206   2.956   0.419  0.7970  0.4936  1.9216
 8543TIP3   OH247043   2.878   4.872  13.879  0.1483  0.0638  0.1843
 8543TIP3    H147044   2.886   4.913  13.965  2.0588 -0.6756  0.4068
 8543TIP3    H247045   2.872   4.945  13.817  0.6352  0.6376  0.8037
 8544TIP3   OH247046   5.891   2.305  12.196  0.2202 -0.6863  0.3898
 8544TIP3    H147047   5.900   2.245  12.122 -0.5566 -1.7522  1.1315
 8544TIP3    H247048   5.898   2.250  12.273 -1.1305  0.0750  1.0903
 8545TIP3   OH247049   6.677   4.441   5.589  0.1867 -0.6603  0.1566
 8545TIP3    H147050   6.768   4.418   5.608  0.1798 -1.5473 -0.8053
 8545TIP3    H247051   6.676   4.461   5.496 -0.1391  1.7593  0.6198
 8546TIP3   OH247052   0.624   1.308  16.503 -0.1907  0.1131 -0.1865
 8546TIP3    H147053   0.580   1.234  16.545 -0.4567  0.1217 -0.4478
 8546TIP3    H247054   0.621   1.378  16.569  1.2484 -0.5063  0.5675
 8547TIP3   OH247055   1.177   3.240  13.499  0.4862 -0.0593 -0.2031
 8547TIP3    H147056   1.165   3.225  13.405 -0.0985 -0.0206 -0.1399
 8547TIP3    H247057   1.098   3.203  13.539  1.5514 -1.7978  0.4480
 8548TIP3   OH247058   3.805   0.674  16.306  0.2266  0.7745  0.2019
 8548TIP3    H147059   3.850   0.727  16.240  0.0668 -0.0369 -0.5819
 8548TIP3    H247060   3.756   0.609  16.255 -1.3701  1.2539  1.0384
 8549TIP3   OH247061   5.961   6.386  14.255  0.0375  0.1773  0.2567
 8549TIP3    H147062   5.977   6.345  14.340 -1.5978  0.3559  0.6821
 8549TIP3    H247063   5.875   6.427  14.264  0.8746  2.3254 -0.6702
 8550TIP3   OH247064   6.679   0.753   0.016  0.5364 -0.1453 -0.2441
 8550TIP3    H147065   6.713   0.828  -0.033  3.4625 -1.9271 -1.1686
 8550TIP3    H247066   6.625   0.705  -0.047  0.9994 -0.2953 -0.5344
 8551TIP3   OH247067   2.269   4.134  16.780 -0.1983  0.5015  0.3910
 8551TIP3    H147068   2.284   4.209  16.722  0.1757  1.4625  1.6681
 8551TIP3    H247069   2.290   4.057  16.727  0.0931  1.3358 -0.7387
 8552TIP3   OH247070   5.446   1.961  14.624  0.3919 -0.0843  0.0818
 8552TIP3    H147071   5.484   1.911  14.697  4.0363 -0.4339 -1.8310
 8552TIP3    H247072   5.460   1.905  14.547 -2.5127  0.6490 -1.0969
 8553TIP3   OH247073   1.154   6.248   2.262 -0.3923  0.5283  0.2293
 8553TIP3    H147074   1.197   6.333   2.256 -1.0796  0.9169  0.5654
 8553TIP3    H247075   1.060   6.269   2.264 -0.5493 -0.1736  1.2352
 8554TIP3   OH247076   4.268   2.529   0.721  0.5678  0.2472  0.3106
 8554TIP3    H147077   4.254   2.616   0.685 -1.0923 -0.4805 -0.9427
 8554TIP3    H247078   4.182   2.487   0.719  1.5538 -1.9214 -0.5475
 8555TIP3   OH247079   5.461   2.631   2.086 -0.6262 -0.3738 -0.0081
 8555TIP3    H147080   5.385   2.688   2.071  0.1989  0.9330  0.6332
 8555TIP3    H247081   5.509   2.672   2.157  1.2133 -0.6411 -1.0324
 8556TIP3   OH247082   4.309   2.442  15.260  0.2347 -0.0296 -0.3926
 8556TIP3    H147083   4.288   2.357  15.297 -0.7472  0.4274  0.1346
 8556TIP3    H247084   4.378   2.477  15.317  0.3396 -0.2902 -0.3596
 8557TIP3   OH247085   0.850   4.695   6.591  0.7716  0.3124  0.8534
 8557TIP3    H147086   0.873   4.708   6.499  0.0714 -0.3781  0.5698
 8557TIP3    H247087   0.867   4.602   6.608 -1.7791 -0.2965  0.5844
 8558TIP3   OH247088   0.074   2.707   5.107  0.2411  0.1574  0.6332
 8558TIP3    H147089   0.075   2.624   5.155 -1.2274  0.3955  1.1221
 8558TIP3    H247090   0.115   2.770   5.167  0.2104  0.0449  0.7729
 8559TIP3   OH247091   5.074   2.271   2.398  0.2156  0.2069  0.7317
 8559TIP3    H147092   5.117   2.325   2.331  0.5592 -0.9020  0.0293
 8559TIP3    H247093   4.996   2.236   2.354 -1.1009  1.6494  1.7830
 8560TIP3   OH247094   0.113   3.010  11.694  0.0132  0.3296 -0.1746
 8560TIP3    H147095   0.063   3.049  11.622 -1.8686 -0.7451  0.4632
 8560TIP3    H247096   0.078   3.052  11.773 -0.3841 -0.9173  0.3395
 8561TIP3   OH247097   0.455   0.995   2.316 -0.3764  0.0968  0.3048
 8561TIP3    H147098   0.420   1.079   2.347 -1.8819  0.0304 -1.0347
 8561TIP3    H247099   0.422   0.931   2.379 -0.4543  0.3462  0.5225
 8562TIP3   OH247100   2.565   2.201  10.631 -0.3219  0.0332  0.0540
 8562TIP3    H147101   2.534   2.141  10.563 -1.7025  1.2729 -0.4560
 8562TIP3    H247102   2.647   2.236  10.597 -0.2180 -0.5114 -0.2712
 8563TIP3   OH247103   0.244   2.847   0.336 -0.4171 -0.2229  0.2254
 8563TIP3    H147104   0.219   2.853   0.244 -4.5685 -0.3680  1.1177
 8563TIP3    H247105   0.293   2.765   0.343  1.6398  0.6972 -2.0371
 8564TIP3   OH247106   5.526   1.157   4.322  0.0136 -0.3901  0.1120
 8564TIP3    H147107   5.598   1.182   4.264 -0.2218 -1.2948 -0.5805
 8564TIP3    H247108   5.466   1.232   4.320 -1.2390 -1.3290 -2.8170
 8565TIP3   OH247109   6.375   5.658   2.283  1.0581 -0.3254 -0.4149
 8565TIP3    H147110   6.290   5.667   2.240  0.8113 -1.3396 -0.1618
 8565TIP3    H247111   6.438   5.689   2.217  0.6505 -1.4771 -1.3869
 8566TIP3   OH247112   5.865   5.849  14.043  0.8755 -0.7913  0.2057
 8566TIP3    H147113   5.874   5.754  14.039  0.0234 -0.8443 -2.0935
 8566TIP3    H247114   5.946   5.882  14.003  0.3493 -0.6372 -0.7625
 8567TIP3   OH247115   5.450   1.041   6.341  0.1872 -0.1863  0.2479
 8567TIP3    H147116   5.500   1.027   6.422 -0.8524 -2.6058  0.5850
 8567TIP3    H247117   5.515   1.066   6.276  1.8826 -2.8829  0.7457
 8568TIP3   OH247118   4.436   2.027  13.849  0.3002 -0.3157 -0.1210
 8568TIP3    H147119   4.456   2.043  13.757  1.4470  0.3650  0.2275
 8568TIP3    H247120   4.482   2.096  13.896  0.7303 -1.3532  1.0434
 8569TIP3   OH247121   2.705   2.040   5.536  0.2056 -0.3577 -0.4121
 8569TIP3    H147122   2.692   1.966   5.596 -0.1083 -0.8994 -1.1338
 8569TIP3    H247123   2.680   2.006   5.450  3.1840 -0.4703 -1.3465
 8570TIP3   OH247124   2.467   6.610   6.247 -0.0228  0.2401 -0.4920
 8570TIP3    H147125   2.491   6.659   6.325  0.2433  0.0730 -0.4664
 8570TIP3    H247126   2.395   6.553   6.275  1.2521 -1.1271  0.1071
 8571TIP3   OH247127   4.839   2.758   0.382  0.1882  0.6345  0.3887
 8571TIP3    H147128   4.934   2.753   0.370  0.1732 -0.7260  0.6086
 8571TIP3    H247129   4.803   2.707   0.310 -0.3909  1.3138  0.1921
 8572TIP3   OH247130   3.140   3.839  11.920  0.7190  0.3171  0.1597
 8572TIP3    H147131   3.215   3.892  11.894  1.3975 -1.0792 -0.8512
 8572TIP3    H247132   3.104   3.884  11.996  0.7942  2.6224 -1.0752
 8573TIP3   OH247133   0.393   4.998  16.162 -0.5770  0.9429  0.1738
 8573TIP3    H147134   0.456   5.039  16.222  0.1287  2.0029 -1.2268
 8573TIP3    H247135   0.447   4.958  16.095 -1.3538 -0.2404  0.2354
 8574TIP3   OH247136   3.015   5.435   1.190 -0.1130 -0.1667  0.1343
 8574TIP3    H147137   3.030   5.512   1.244 -0.8684  1.9928 -2.5415
 8574TIP3    H247138   2.970   5.373   1.248  0.0684  1.5739  2.2277
 8575TIP3   OH247139   2.834   5.789  13.439 -0.0030 -0.1850 -0.1129
 8575TIP3    H147140   2.834   5.880  13.467  2.7074 -0.3445  0.6279
 8575TIP3    H247141   2.768   5.747  13.495 -1.2656  1.2575 -0.4418
 8576TIP3   OH247142   6.589   2.596   5.033  0.0315  0.0015 -0.0765
 8576TIP3    H147143   6.597   2.502   5.046 -3.5159 -0.3946  0.1849
 8576TIP3    H247144   6.618   2.634   5.116  0.1039 -0.9309  0.3377
 8577TIP3   OH247145   1.272   1.710   2.425 -0.4367  0.6399  0.3705
 8577TIP3    H147146   1.256   1.622   2.459 -0.0079 -0.1921 -1.4661
 8577TIP3    H247147   1.366   1.722   2.434 -0.3397  0.4695 -0.3170
 8578TIP3   OH247148   2.050   5.299   2.577  0.1516  0.3771  0.0269
 8578TIP3    H147149   1.990   5.370   2.556 -0.5235 -0.3955 -0.7529
 8578TIP3    H247150   2.097   5.329   2.655 -2.4564  0.3498  1.7461
 8579TIP3   OH247151   5.116   5.155   4.299  0.4187  0.8169 -0.2606
 8579TIP3    H147152   5.191   5.166   4.358  0.2055 -0.5459  0.3200
 8579TIP3    H247153   5.042   5.139   4.358 -0.1743  1.3791 -0.8519
 8580TIP3   OH247154   4.331   0.745  14.088  0.0954 -0.3471  0.8474
 8580TIP3    H147155   4.330   0.662  14.040  1.4748 -0.8149  1.5863
 8580TIP3    H247156   4.256   0.739  14.148 -1.0068 -0.1933 -0.4548
 8581TIP3   OH247157   3.660   1.110   2.420 -0.0546 -0.3793 -0.3010
 8581TIP3    H147158   3.678   1.021   2.390  0.0392 -0.6061  0.4140
 8581TIP3    H247159   3.661   1.163   2.340  2.4768 -0.5850 -0.4832
 8582TIP3   OH247160   1.871   5.068  12.986  0.3033  0.3508  0.0655
 8582TIP3    H147161   1.795   5.011  12.977 -0.3439  0.7520  2.4052
 8582TIP3    H247162   1.870   5.122  12.906 -0.7225 -0.9330 -0.8312
 8583TIP3   OH247163   1.885   1.327   4.095  0.2017 -0.3029 -0.0611
 8583TIP3    H147164   1.888   1.408   4.147 -0.5476 -0.9282  0.9854
 8583TIP3    H247165   1.831   1.268   4.146  0.4920 -1.3778 -0.9685
 8584TIP3   OH247166   5.043   4.854   2.271 -0.5439 -0.2166 -0.1034
 8584TIP3    H147167   4.997   4.816   2.346 -0.1578  0.7418  0.6369
 8584TIP3    H247168   4.991   4.931   2.247 -0.2547 -0.0886 -0.3331
 8585TIP3   OH247169   4.811   3.688  14.669 -0.3497 -0.1746  0.3280
 8585TIP3    H147170   4.885   3.748  14.656 -2.6101  2.5151 -1.2314
 8585TIP3    H247171   4.800   3.645  14.584 -2.9283  2.5229 -0.8750
 8586TIP3   OH247172   0.520   5.465   3.810 -0.3025  0.1990  0.3632
 8586TIP3    H147173   0.591   5.459   3.874 -1.3040 -1.9280  1.3907
 8586TIP3    H247174   0.443   5.484   3.863 -0.8865  0.0478 -0.4257
 8587TIP3   OH247175   3.635   2.835  14.509  0.2100  0.8733  0.3534
 8587TIP3    H147176   3.634   2.918  14.461  2.1398  0.7031 -0.0544
 8587TIP3    H247177   3.565   2.783  14.469  0.1448  1.6584 -0.5922
 8588TIP3   OH247178   1.755   1.777   1.361  0.1163 -0.1830 -0.3049
 8588TIP3    H147179   1.833   1.814   1.319  1.0901 -1.4416  0.3445
 8588TIP3    H247180   1.729   1.704   1.305 -1.4113  1.0069 -1.2265
 8589TIP3   OH247181   1.129   4.861  14.596 -0.6860  0.2223 -0.7304
 8589TIP3    H147182   1.137   4.952  14.624 -0.4783 -0.3853  1.3058
 8589TIP3    H247183   1.182   4.856  14.516  0.3042  1.6089 -0.1979
 8590TIP3   OH247184   1.526   5.568  16.794  0.1855  0.1988  0.1577
 8590TIP3    H147185   1.609   5.573  16.748  0.5361 -0.7725  0.6600
 8590TIP3    H247186   1.486   5.654  16.781  0.9278  0.4282 -0.7092
 8591TIP3   OH247187   3.178   2.446   2.363 -0.2791 -0.0138  0.3769
 8591TIP3    H147188   3.174   2.393   2.284  0.7238  0.2835  0.1091
 8591TIP3    H247189   3.098   2.497   2.362  0.3360  0.9986 -1.1914
 8592TIP3   OH247190   1.674   0.415   5.383 -0.0566 -0.5880  0.0520
 8592TIP3    H147191   1.643   0.326   5.372  0.4415 -1.0943  2.1884
 8592TIP3    H247192   1.747   0.424   5.321  0.1549 -1.8219  0.1085
 8593TIP3   OH247193   1.397   0.293   5.705 -0.6050 -0.2346 -0.7358
 8593TIP3    H147194   1.491   0.290   5.725 -0.0816  0.4803 -2.8394
 8593TIP3    H247195   1.360   0.351   5.772  0.0843 -1.9963  1.2637
 8594TIP3   OH247196   3.266   3.290   0.350 -0.7425  0.9154  0.3369
 8594TIP3    H147197   3.175   3.314   0.330 -1.1412  0.3388  1.4041
 8594TIP3    H247198   3.266   3.194   0.348 -0.3731  0.8896  1.2381
 8595TIP3   OH247199   1.199   5.617  12.258  0.6826 -0.5208 -0.3972
 8595TIP3    H147200   1.280   5.566  12.259  0.6756 -0.5508  1.3149
 8595TIP3    H247201   1.143   5.575  12.323  0.3999  1.2133  0.5550
 8596TIP3   OH247202   5.669   3.107   4.812 -0.2171 -0.5907  0.2315
 8596TIP3    H147203   5.718   3.172   4.861 -1.7802  0.0436  1.0084
 8596TIP3    H247204   5.586   3.149   4.790 -1.4819 -2.4389  1.1768
 8597TIP3   OH247205   3.315   6.249  15.020  0.1856  0.1097  0.2870
 8597TIP3    H147206   3.258   6.247  15.097 -0.1303 -0.5555  0.0493
 8597TIP3    H247207   3.254   6.265  14.947  0.5567  1.3654  0.2313
 8598TIP3   OH247208   1.142   5.772   4.028  0.8430  0.4004  0.2110
 8598TIP3    H147209   1.075   5.750   3.963 -0.0536  0.7185  0.9882
 8598TIP3    H247210   1.169   5.860   4.006 -1.7936  1.8310  2.0571
 8599TIP3   OH247211   5.448   3.428  13.142  0.8134  0.2881 -0.0715
 8599TIP3    H147212   5.438   3.522  13.156  0.6475  0.3041 -0.2915
 8599TIP3    H247213   5.381   3.388  13.197  1.0584  0.2828  0.2294
 8600TIP3   OH247214   3.894   1.218   0.314  0.2961 -0.2339 -0.6576
 8600TIP3    H147215   3.892   1.313   0.302 -0.4173  0.0142  1.0906
 8600TIP3    H247216   3.987   1.197   0.323  0.5385  0.1221 -2.1082
 8601TIP3   OH247217   6.299   3.411   1.500  0.2486  0.5392  1.0183
 8601TIP3    H147218   6.217   3.460   1.510  0.2638  0.6108  0.7967
 8601TIP3    H247219   6.305   3.393   1.406 -0.7323 -1.5588  1.2904
 8602TIP3   OH247220   3.715   0.086   5.286  0.4346  0.3177 -0.1637
 8602TIP3    H147221   3.743   0.035   5.362 -1.1024  0.1131  0.2905
 8602TIP3    H247222   3.700   0.020   5.218 -2.5600 -0.0473  0.7266
 8603TIP3   OH247223   4.562   2.987   3.443 -0.1016 -0.1824  0.3644
 8603TIP3    H147224   4.521   2.919   3.497 -0.5239 -1.1910 -1.1532
 8603TIP3    H247225   4.492   3.017   3.386  0.4138  0.6290  0.1479
 8604TIP3   OH247226   0.078   3.470   2.403 -0.1957 -0.0865 -0.0046
 8604TIP3    H147227   0.112   3.555   2.427  1.1274 -0.8142  0.7921
 8604TIP3    H247228   0.090   3.465   2.308  1.5416 -0.1412  0.2008
 8605TIP3   OH247229   0.935   5.168   2.696  0.3248 -0.0632 -0.1778
 8605TIP3    H147230   1.017   5.119   2.689 -0.2793 -1.1887  0.3737
 8605TIP3    H247231   0.892   5.156   2.611  0.0501 -0.7269  0.0543
 8606TIP3   OH247232   6.054   0.603  15.497 -0.3619  0.1030  0.1644
 8606TIP3    H147233   6.025   0.519  15.533  1.2620 -0.2390  0.7644
 8606TIP3    H247234   6.068   0.586  15.404 -0.0495 -0.3015  0.2811
 8607TIP3   OH247235   1.669   2.753   5.605  0.0494  0.4260 -0.1117
 8607TIP3    H147236   1.736   2.773   5.539 -0.2095  0.0325 -0.4964
 8607TIP3    H247237   1.631   2.670   5.577 -1.6752  1.3799 -0.7783
 8608TIP3   OH247238   5.761   1.230  13.267 -0.1060  0.6039 -1.0043
 8608TIP3    H147239   5.681   1.239  13.318 -1.2493 -1.2159 -2.3692
 8608TIP3    H247240   5.829   1.210  13.331 -1.0688  0.5665  0.0174
 8609TIP3   OH247241   3.764   0.620  12.970 -0.1409 -0.1517  0.5209
 8609TIP3    H147242   3.782   0.701  12.922 -2.0502  0.2145  0.3051
 8609TIP3    H247243   3.676   0.595  12.941  0.2970 -2.1470  0.8313
 8610TIP3   OH247244   0.268   4.102   0.598 -0.0325  0.0054 -0.4174
 8610TIP3    H147245   0.320   4.142   0.667  1.7290 -0.0235 -1.6548
 8610TIP3    H247246   0.235   4.175   0.546 -0.8633  0.0000  0.0750
 8611TIP3   OH247247   3.472   0.822   2.824 -0.0359 -0.0165 -0.6671
 8611TIP3    H147248   3.480   0.727   2.815  0.0236 -0.3416  1.9185
 8611TIP3    H247249   3.546   0.858   2.775  0.4675 -1.3541 -0.9296
 8612TIP3   OH247250   0.225   4.678   5.831  0.4991  0.1798 -0.1976
 8612TIP3    H147251   0.133   4.692   5.853  0.2038 -0.2414 -1.0768
 8612TIP3    H247252   0.271   4.681   5.914 -0.3775 -0.0891  0.3078
 8613TIP3   OH247253   5.178   3.307   2.450  0.0083  0.3003  0.1863
 8613TIP3    H147254   5.112   3.280   2.385 -1.0452  0.4842  1.1544
 8613TIP3    H247255   5.153   3.396   2.474  1.8111  1.1565 -0.8880
 8614TIP3   OH247256   3.268   1.177   6.319 -0.7146  0.4721  0.4318
 8614TIP3    H147257   3.305   1.105   6.268 -0.3017  2.0652 -1.7050
 8614TIP3    H247258   3.193   1.139   6.364 -0.8674 -1.1564 -1.0921
 8615TIP3   OH247259   5.097   0.956  14.879 -0.1929  0.1759  0.2430
 8615TIP3    H147260   5.119   1.030  14.822  0.5765  1.0730  1.6558
 8615TIP3    H247261   5.108   0.989  14.968  1.3861 -1.9701  0.9493
 8616TIP3   OH247262   1.634   6.508  17.130  0.1714  0.3680 -0.5717
 8616TIP3    H147263   1.625   6.426  17.180  1.5070  0.5155 -0.0380
 8616TIP3    H247264   1.602   6.575  17.190  3.4617  0.7784  0.9482
 8617TIP3   OH247265   2.175   2.238   3.619 -0.4564  0.0345  0.2095
 8617TIP3    H147266   2.175   2.145   3.595  1.8536  0.5320 -2.1724
 8617TIP3    H247267   2.264   2.255   3.649 -0.6794  1.6028  0.0705
 8618TIP3   OH247268   5.882   4.284  14.826  0.0624  0.1471 -0.1812
 8618TIP3    H147269   5.899   4.371  14.790  0.5867 -0.2214 -0.8476
 8618TIP3    H247270   5.812   4.298  14.889 -0.9785  0.8057 -1.4243
 8619TIP3   OH247271   5.979   3.078   0.881  0.2457 -0.8172  0.3269
 8619TIP3    H147272   6.009   3.098   0.792 -1.2678  6.1416  0.7770
 8619TIP3    H247273   5.893   3.119   0.888  0.0836 -1.3366  4.8816
 8620TIP3   OH247274   4.035   6.349  15.549  0.0047 -0.1981  0.0990
 8620TIP3    H147275   4.024   6.394  15.465  0.3887  2.1043  1.2134
 8620TIP3    H247276   4.006   6.259  15.532 -3.2250  1.0242 -1.6104
 8621TIP3   OH247277   1.182   5.897  12.281  0.8184  0.0252 -0.8570
 8621TIP3    H147278   1.215   5.938  12.361  0.5569 -0.1520 -0.6570
 8621TIP3    H247279   1.194   5.803  12.296  0.0276 -0.0526 -0.6912
 8622TIP3   OH247280   2.936   0.567  16.108  0.1571  0.5136  0.6209
 8622TIP3    H147281   2.899   0.522  16.032 -0.4187  0.5203  0.8916
 8622TIP3    H247282   2.866   0.626  16.137  0.2564  0.2737  1.3541
 8623TIP3   OH247283   6.191   1.978   3.288 -0.0651 -0.4871  0.3599
 8623TIP3    H147284   6.254   2.034   3.243  0.6305  0.8533  2.8200
 8623TIP3    H247285   6.122   2.038   3.317  0.7509 -0.7375  3.1633
 8624TIP3   OH247286   1.913   5.382  10.384 -0.3472  0.3387  0.0539
 8624TIP3    H147287   1.936   5.295  10.351  0.0629  0.0910  0.9658
 8624TIP3    H247288   1.861   5.366  10.462 -2.2859  0.9136 -1.0506
 8625TIP3   OH247289   4.642   3.891  16.337 -0.1451  0.0841 -0.2978
 8625TIP3    H147290   4.551   3.858  16.339 -0.8727  2.0285  0.8952
 8625TIP3    H247291   4.649   3.934  16.252  0.5287 -2.1626 -1.4796
 8626TIP3   OH247292   6.764   6.198   3.645 -0.1080 -0.5602 -0.2244
 8626TIP3    H147293   6.688   6.253   3.665 -0.5324 -0.6810 -1.4160
 8626TIP3    H247294   6.745   6.161   3.559  0.9976 -1.1432 -0.2405
 8627TIP3   OH247295   4.852   5.496   4.163  0.3979 -0.5134  0.5833
 8627TIP3    H147296   4.898   5.568   4.207  0.1644 -0.1251  0.2056
 8627TIP3    H247297   4.772   5.485   4.214  0.1495 -0.0954  0.2951
 8628TIP3   OH247298   0.284   0.808   2.427  0.8162  0.3321 -0.2802
 8628TIP3    H147299   0.246   0.721   2.429  0.7611  0.3528 -0.4931
 8628TIP3    H247300   0.253   0.849   2.508 -1.2473  1.0550 -1.3767
 8629TIP3   OH247301   0.974   5.568   3.162  0.2090  0.3675 -0.2971
 8629TIP3    H147302   0.918   5.633   3.206  0.0768 -0.3978  0.6956
 8629TIP3    H247303   0.936   5.484   3.186  0.9353 -0.1156 -0.8166
 8630TIP3   OH247304   2.524   2.173  16.955  0.2120  0.2453  0.0186
 8630TIP3    H147305   2.449   2.145  17.008 -0.3185  1.8495  0.1583
 8630TIP3    H247306   2.526   2.111  16.883 -0.2732 -0.7797  0.8517
 8631TIP3   OH247307   0.071   2.447   0.807  0.1305 -0.2114 -0.2170
 8631TIP3    H147308   0.058   2.354   0.820 -1.2317 -0.2661 -1.6438
 8631TIP3    H247309  -0.017   2.484   0.806  0.4574  0.6854 -2.1413
 8632TIP3   OH247310   6.040   1.220   1.090  0.0353  0.2820 -0.4899
 8632TIP3    H147311   6.012   1.249   1.177  0.8387 -1.7769  0.5139
 8632TIP3    H247312   6.135   1.220   1.094  0.1034  0.9143 -1.6654
 8633TIP3   OH247313   0.413   2.184   0.989 -0.4873 -0.5599 -0.5316
 8633TIP3    H147314   0.435   2.211   0.900  0.1209  0.2278 -0.1424
 8633TIP3    H247315   0.452   2.097   0.997  0.5511 -0.1172 -0.6150
 8634TIP3   OH247316   3.988   1.893   1.927 -0.0444 -0.2432  0.4546
 8634TIP3    H147317   3.973   1.978   1.885  0.0823  1.1053  2.9539
 8634TIP3    H247318   3.901   1.851   1.926 -0.4424  0.5592  0.5512
 8635TIP3   OH247319   0.302   1.751  14.750 -0.2320 -0.3191  0.2949
 8635TIP3    H147320   0.360   1.798  14.690  0.7678 -1.7095  0.1117
 8635TIP3    H247321   0.247   1.819  14.789  2.2491  1.2578  1.2981
 8636TIP3   OH247322   6.117   1.771   3.800  0.0556 -0.1336 -0.2681
 8636TIP3    H147323   6.122   1.712   3.725  1.5193  0.0258 -0.3368
 8636TIP3    H247324   6.121   1.712   3.876 -2.2223 -0.3551 -0.2574
 8637TIP3   OH247325   0.915   3.809   1.418  0.4298 -0.7108 -0.3186
 8637TIP3    H147326   0.877   3.723   1.433  1.2709 -1.4409 -2.0236
 8637TIP3    H247327   0.989   3.792   1.360  1.0302  1.0916 -0.1400
 8638TIP3   OH247328   0.568   6.629   0.059 -0.2791 -0.1207 -0.4526
 8638TIP3    H147329   0.560   6.665  -0.029  1.4545 -0.5219 -0.8046
 8638TIP3    H247330   0.582   6.705   0.116 -0.0690  0.0315 -0.7082
 8639TIP3   OH247331   6.578   2.811  11.291 -0.1410  0.3971  0.0903
 8639TIP3    H147332   6.602   2.784  11.380 -0.6839 -2.3461 -0.4932
 8639TIP3    H247333   6.656   2.855  11.258  1.1919 -1.1477  0.9736
 8640TIP3   OH247334   0.156   4.841  11.485  0.3645  0.2255  0.3550
 8640TIP3    H147335   0.086   4.904  11.505 -0.8453 -1.0705  0.3897
 8640TIP3    H247336   0.187   4.867  11.398 -1.1992 -0.0309 -0.3188
 8641TIP3   OH247337   2.872   0.227  15.313  0.3611  0.1929 -1.1759
 8641TIP3    H147338   2.856   0.320  15.328 -1.5124 -0.3328  0.4551
 8641TIP3    H247339   2.967   0.217  15.324  0.4710  1.7553 -0.5411
 8642TIP3   OH247340   4.139   2.004  13.429  0.3086  0.5196 -0.2287
 8642TIP3    H147341   4.057   1.972  13.391  0.8412  0.5601 -1.4598
 8642TIP3    H247342   4.159   1.941  13.498 -0.5524  0.2795 -0.1829
 8643TIP3   OH247343   6.504   1.127   4.415 -0.4391 -0.7570 -0.2334
 8643TIP3    H147344   6.499   1.074   4.335 -0.0536 -0.2093 -0.6276
 8643TIP3    H247345   6.485   1.065   4.486  0.9033 -1.6399 -0.6000
 8644TIP3   OH247346   3.218   5.461  11.794  0.2114 -0.5890 -0.0678
 8644TIP3    H147347   3.147   5.397  11.787 -2.3111  1.9061  0.6188
 8644TIP3    H247348   3.208   5.516  11.716  1.4363 -0.2049  0.0327
 8645TIP3   OH247349   0.654   3.078  13.034 -0.1349 -0.1972  0.3732
 8645TIP3    H147350   0.623   3.001  12.987  0.5398 -0.7645  0.8312
 8645TIP3    H247351   0.582   3.140  13.028 -0.6243 -0.7942 -0.1529
 8646TIP3   OH247352   4.164   4.611   3.790 -0.0401  0.0205  0.0513
 8646TIP3    H147353   4.110   4.689   3.783 -0.9770 -0.7063 -1.1813
 8646TIP3    H247354   4.142   4.575   3.876  0.1139  0.8819  0.4659
 8647TIP3   OH247355   3.756   1.934  14.366 -0.0402 -0.0438 -0.3896
 8647TIP3    H147356   3.785   2.013  14.320 -0.0939 -0.1789 -0.6550
 8647TIP3    H247357   3.809   1.933  14.446  0.6692 -0.2582 -0.8458
 8648TIP3   OH247358   3.828   3.507   4.351  0.0042 -0.3997  0.1338
 8648TIP3    H147359   3.893   3.577   4.356 -0.8960  0.4506  0.1077
 8648TIP3    H247360   3.810   3.484   4.442  1.1586 -1.4416  0.1334
 8649TIP3   OH247361   6.089   3.833   1.507  0.4560  0.4480  0.2013
 8649TIP3    H147362   6.168   3.864   1.552 -0.4946  2.9263  0.3092
 8649TIP3    H247363   6.113   3.831   1.415  0.6979  1.0573  0.2478
 8650TIP3   OH247364   2.812   4.269   4.426 -0.2163 -0.6353 -0.1426
 8650TIP3    H147365   2.827   4.174   4.429  2.1366 -0.3622 -0.7694
 8650TIP3    H247366   2.810   4.289   4.332  1.6817  0.1857 -0.0506
 8651TIP3   OH247367   2.584   4.550  12.789 -0.5919  0.4049 -0.5449
 8651TIP3    H147368   2.567   4.544  12.883 -0.0278  1.2679 -0.3807
 8651TIP3    H247369   2.666   4.598  12.782 -1.5665  2.0041 -1.5273
 8652TIP3   OH247370   1.682   3.427  12.512 -0.0462 -0.0570 -0.5566
 8652TIP3    H147371   1.606   3.425  12.453 -0.7501  0.5152  0.3034
 8652TIP3    H247372   1.750   3.379  12.465 -1.0124 -0.7925 -1.2485
 8653TIP3   OH247373   4.141   1.419  12.745 -0.4203  0.2602  1.0468
 8653TIP3    H147374   4.181   1.466  12.818 -1.3218  0.5446  1.3729
 8653TIP3    H247375   4.204   1.350  12.723 -0.2698 -0.0122  2.2822
 8654TIP3   OH247376   6.348   2.786   5.428  0.1230 -0.1669  0.0944
 8654TIP3    H147377   6.280   2.830   5.478 -0.1583  2.8827 -2.6632
 8654TIP3    H247378   6.430   2.814   5.470 -0.1710 -0.3407  0.8007
 8655TIP3   OH247379   4.730   6.348   3.667  0.5565 -0.3163 -0.2598
 8655TIP3    H147380   4.781   6.428   3.672 -0.5345  0.3400  1.1706
 8655TIP3    H247381   4.661   6.359   3.732  0.4670 -2.4778  0.1062
 8656TIP3   OH247382   2.534   3.425  13.578  0.2244 -0.1446 -0.1198
 8656TIP3    H147383   2.564   3.515  13.567 -1.1944  0.6470  1.9367
 8656TIP3    H247384   2.458   3.417  13.519  1.1022 -0.4359 -1.2458
 8657TIP3   OH247385   0.334   5.694  12.837 -0.2496  0.3287 -0.0767
 8657TIP3    H147386   0.331   5.656  12.925 -2.4516  0.7832  0.1021
 8657TIP3    H247387   0.395   5.637  12.789 -0.5490 -1.1495  1.1927
 8658TIP3   OH247388   4.084   0.881  16.483 -0.1035  0.4933 -0.0544
 8658TIP3    H147389   4.101   0.971  16.512  1.0749 -0.0265  0.9365
 8658TIP3    H247390   3.997   0.861  16.516  1.3453 -0.2497  3.7347
 8659TIP3   OH247391   2.582   1.573   6.188  0.1604  0.0225 -0.2965
 8659TIP3    H147392   2.524   1.589   6.113  0.0409 -0.2425 -0.2634
 8659TIP3    H247393   2.670   1.573   6.151  0.2247  1.4087 -0.1941
 8660TIP3   OH247394   1.836   3.337  13.315  0.1269  0.6565 -0.0871
 8660TIP3    H147395   1.844   3.269  13.382  1.0771  0.2656 -0.5840
 8660TIP3    H247396   1.754   3.317  13.271 -0.1431  0.4881  0.4767
 8661TIP3   OH247397   0.390   4.048   3.765 -0.1382 -0.0984 -0.0933
 8661TIP3    H147398   0.459   3.982   3.756  0.9448  0.6456  2.1908
 8661TIP3    H247399   0.431   4.130   3.737  0.0067  0.3831  1.4581
 8662TIP3   OH247400   1.767   1.292  14.183 -0.2172  0.0417  0.0699
 8662TIP3    H147401   1.718   1.213  14.161  0.9589 -0.6704 -0.0697
 8662TIP3    H247402   1.796   1.327  14.099  1.1218 -0.6154  0.2371
 8663TIP3   OH247403   6.192   4.697  14.328 -0.5081 -0.2446  0.3263
 8663TIP3    H147404   6.237   4.781  14.320 -0.5983 -0.1100  1.0942
 8663TIP3    H247405   6.126   4.712  14.396 -2.4161 -0.1319 -1.4560
 8664TIP3   OH247406   4.620   3.337  11.420 -0.3687 -0.1438 -0.2427
 8664TIP3    H147407   4.634   3.274  11.350 -0.5999  0.3275 -0.7149
 8664TIP3    H247408   4.526   3.353  11.421 -0.7505 -2.0536  1.8492
 8665TIP3   OH247409   0.069   4.143  12.940  0.1183 -0.0220  0.8695
 8665TIP3    H147410  -0.001   4.097  12.892 -0.3666  0.6929  0.8765
 8665TIP3    H247411   0.027   4.170  13.022  0.4920  0.1524  1.0040
 8666TIP3   OH247412   0.478   4.964  11.646  0.0971  0.0978  0.1561
 8666TIP3    H147413   0.443   4.963  11.557  0.1460 -1.6498  0.1232
 8666TIP3    H247414   0.571   4.945  11.636  0.2187  0.4627  0.5418
 8667TIP3   OH247415   4.672   6.761   5.734  0.5785 -0.7402 -0.1059
 8667TIP3    H147416   4.601   6.801   5.684 -0.8814 -0.2372  2.2003
 8667TIP3    H247417   4.655   6.667   5.730 -0.1437 -0.6317  0.2883
 8668TIP3   OH247418   2.689   5.134   4.970 -0.2280  0.3331  0.2722
 8668TIP3    H147419   2.695   5.121   5.065  1.6796 -4.0056 -0.2059
 8668TIP3    H247420   2.597   5.123   4.949 -0.1787 -3.7757  1.3261
 8669TIP3   OH247421   2.734   5.436  15.241  0.7587 -0.1407 -0.3267
 8669TIP3    H147422   2.649   5.393  15.251  0.0683  0.6780 -2.1468
 8669TIP3    H247423   2.798   5.368  15.261 -0.3080 -0.9057  0.6197
 8670TIP3   OH247424   5.415   2.379  15.908  0.7961 -0.4287  0.5018
 8670TIP3    H147425   5.431   2.471  15.928 -0.3557  0.7907 -3.3017
 8670TIP3    H247426   5.340   2.355  15.961  0.4587  1.1875  0.8120
 8671TIP3   OH247427   6.481   6.050   4.377  0.1166  0.0675 -0.4213
 8671TIP3    H147428   6.559   6.061   4.431  1.0398 -3.6864 -0.7007
 8671TIP3    H247429   6.457   6.139   4.350  2.9150  1.5528  1.5402
 8672TIP3   OH247430   6.244   2.353  15.053 -0.3176  0.2172  0.6166
 8672TIP3    H147431   6.197   2.405  14.987 -2.2142 -3.0652 -0.8960
 8672TIP3    H247432   6.335   2.353  15.023 -0.4531  1.8122  0.1177
 8673TIP3   OH247433   4.699   0.552   5.258  0.2270  0.0378  0.0593
 8673TIP3    H147434   4.751   0.622   5.220 -0.4841  1.8801  2.2057
 8673TIP3    H247435   4.624   0.544   5.199  1.4243 -0.5886 -1.4533
 8674TIP3   OH247436   6.646   1.283   2.934 -0.1160  0.4093 -0.2277
 8674TIP3    H147437   6.734   1.285   2.971  0.2009 -0.0281 -0.9209
 8674TIP3    H247438   6.588   1.306   3.006  0.6468  1.7813 -0.0406
 8675TIP3   OH247439   2.897   1.374   6.525  0.3089 -0.1914 -0.6160
 8675TIP3    H147440   2.838   1.441   6.559 -0.7268 -1.0724 -0.6030
 8675TIP3    H247441   2.887   1.300   6.586  1.8494 -0.1742 -0.3016
 8676TIP3   OH247442   6.669   6.465  14.448 -0.5456 -0.2143 -0.0749
 8676TIP3    H147443   6.638   6.529  14.512 -0.7416 -1.0647  0.7006
 8676TIP3    H247444   6.722   6.404  14.499  0.8293  0.1067 -1.0443
 8677TIP3   OH247445   6.716   6.069  16.239  0.7800 -0.4875  0.3375
 8677TIP3    H147446   6.698   5.988  16.191  1.8076 -1.0805  0.9324
 8677TIP3    H247447   6.629   6.102  16.262  0.2828 -0.5534 -1.2957
 8678TIP3   OH247448   6.273   0.922   4.097 -0.3506 -1.1234  0.5043
 8678TIP3    H147449   6.178   0.918   4.086 -0.4578  0.3468  0.7748
 8678TIP3    H247450   6.301   0.994   4.041  0.4892 -0.9455  1.1346
 8679TIP3   OH247451   5.150   5.736   3.937  0.8100 -0.3221  0.4693
 8679TIP3    H147452   5.140   5.688   4.020  1.9594  0.3417  1.0105
 8679TIP3    H247453   5.066   5.724   3.893 -0.9332  1.6754  2.9681
 8680TIP3   OH247454   4.400   3.100  12.661 -0.1626 -0.1216 -0.3041
 8680TIP3    H147455   4.470   3.038  12.641  0.6603  1.1005 -1.3776
 8680TIP3    H247456   4.410   3.170  12.597 -1.5811  0.7312  0.3370
 8681TIP3   OH247457   2.738   1.768  16.938  0.3231 -0.3323  0.1705
 8681TIP3    H147458   2.688   1.699  16.895  1.3814 -0.5914 -0.6822
 8681TIP3    H247459   2.724   1.753  17.031 -0.5360 -0.8699 -0.0297
 8682TIP3   OH247460   2.270   5.031  15.988 -0.6003  0.5811  0.3274
 8682TIP3    H147461   2.291   4.959  15.928 -0.6899  0.1603  0.8000
 8682TIP3    H247462   2.317   5.011  16.068  2.2435  2.8237 -0.6059
 8683TIP3   OH247463   6.726   2.943   6.170  0.2575  0.3395  0.8422
 8683TIP3    H147464   6.663   2.915   6.237 -2.2309 -2.0982 -2.1750
 8683TIP3    H247465   6.695   3.029   6.143  1.0166  1.1437  2.3873
 8684TIP3   OH247466   4.733   1.505  11.248 -0.0316 -0.0159  0.1952
 8684TIP3    H147467   4.671   1.434  11.233 -0.5123  0.0089  1.8826
 8684TIP3    H247468   4.806   1.486  11.189 -1.2156 -0.5432 -1.1608
 8685TIP3   OH247469   2.789   4.029  14.770 -0.2654 -0.4934  0.0843
 8685TIP3    H147470   2.834   4.050  14.688 -1.1063  0.1828 -0.2338
 8685TIP3    H247471   2.831   4.085  14.836 -0.7141  0.2366 -0.2363
 8686TIP3   OH247472   4.825   2.345   3.351 -0.1987 -0.1944  0.1239
 8686TIP3    H147473   4.750   2.309   3.398  0.6437  0.7310  2.3190
 8686TIP3    H247474   4.896   2.283   3.368  0.5323  0.9644  1.5524
 8687TIP3   OH247475   4.183   2.917  15.849  0.4725 -0.3421 -0.0552
 8687TIP3    H147476   4.274   2.939  15.868 -0.1313  1.5747  0.8268
 8687TIP3    H247477   4.133   2.952  15.922 -1.0066 -1.3177 -0.5406
 8688TIP3   OH247478   6.128   2.490   3.745  0.2735  0.1092 -0.5993
 8688TIP3    H147479   6.187   2.424   3.781 -0.2389  0.3030  0.6423
 8688TIP3    H247480   6.040   2.457   3.766  0.0130  1.7195  1.1091
 8689TIP3   OH247481   0.335   4.379  10.352  0.6050 -0.5770  0.3881
 8689TIP3    H147482   0.317   4.351  10.442 -1.5431  2.3513  0.9958
 8689TIP3    H247483   0.250   4.375  10.308  1.5120 -1.3939 -1.3964
 8690TIP3   OH247484   1.629   3.060  12.852  0.4037 -0.0714  0.0065
 8690TIP3    H147485   1.717   3.026  12.871 -0.1025  0.2573  3.5195
 8690TIP3    H247486   1.639   3.155  12.851  0.3105 -0.0498 -1.2769
 8691TIP3   OH247487   5.943   3.282  15.524 -0.6095 -0.1027  0.3706
 8691TIP3    H147488   5.868   3.336  15.498 -0.5267  0.1757  0.7017
 8691TIP3    H247489   5.942   3.285  15.620  0.2198  0.4396  0.3705
 8692TIP3   OH247490   3.969   4.430   1.560  0.5722  0.2288  0.1675
 8692TIP3    H147491   4.028   4.502   1.582  0.7621  0.4894 -1.1270
 8692TIP3    H247492   4.000   4.357   1.614 -0.1653  1.2972  2.1786
 8693TIP3   OH247493   2.453   2.357   3.574  0.1621  0.5283 -0.0301
 8693TIP3    H147494   2.530   2.401   3.539  0.4469 -0.3291 -0.5023
 8693TIP3    H247495   2.404   2.329   3.497 -2.0694  3.3976  0.1586
 8694TIP3   OH247496   6.241   5.697  10.140  0.2368  0.4498  0.0820
 8694TIP3    H147497   6.273   5.735  10.222  1.6167  0.1127 -0.2878
 8694TIP3    H247498   6.213   5.773  10.088  1.1056  0.8133  0.1328
 8695TIP3   OH247499   5.852   1.423   5.840 -0.0786 -0.1937 -0.0231
 8695TIP3    H147500   5.884   1.409   5.929 -1.0966  1.3185  0.6069
 8695TIP3    H247501   5.931   1.425   5.786  0.6446  0.1087  1.0166
 8696TIP3   OH247502   3.839   3.321   5.309 -0.1192 -0.0948  0.4915
 8696TIP3    H147503   3.743   3.319   5.308 -0.1919  1.2801  1.4383
 8696TIP3    H247504   3.865   3.231   5.291 -1.5578 -0.2060 -1.2931
 8697TIP3   OH247505   2.134   0.048  12.124 -0.2985 -0.4752  1.0218
 8697TIP3    H147506   2.192   0.125  12.123  1.5446 -1.7913  1.3988
 8697TIP3    H247507   2.055   0.078  12.169  0.6887  0.9911  1.8779
 8698TIP3   OH247508   2.761   1.013   2.079  0.0809 -0.1943 -0.1454
 8698TIP3    H147509   2.683   1.065   2.059 -2.6001 -2.2099  3.8462
 8698TIP3    H247510   2.748   0.931   2.030 -0.2195 -0.4571  0.3717
 8699TIP3   OH247511   3.417   6.652   0.940  0.0453 -0.0386  0.4453
 8699TIP3    H147512   3.484   6.603   0.892 -0.7391  0.2813 -1.0301
 8699TIP3    H247513   3.400   6.729   0.886  0.2098  1.1418  2.0057
 8700TIP3   OH247514   1.455   0.110   2.634 -0.0526  0.1021 -0.0476
 8700TIP3    H147515   1.510   0.065   2.697 -0.2896 -1.1932 -0.7351
 8700TIP3    H247516   1.386   0.150   2.687 -0.5679 -1.4320  0.4996
 8701TIP3   OH247517   6.445   5.811   0.257 -0.2193 -0.0670 -0.4646
 8701TIP3    H147518   6.535   5.833   0.230  0.2076 -0.2530  0.7503
 8701TIP3    H247519   6.424   5.732   0.207 -0.0548  0.4769 -1.4297
 8702TIP3   OH247520   0.042   1.438   3.296  0.1855 -0.4878  0.6489
 8702TIP3    H147521  -0.010   1.359   3.302 -1.1760  0.1449 -1.5949
 8702TIP3    H247522   0.118   1.414   3.243  0.1494 -0.4443  0.5781
 8703TIP3   OH247523   2.343   6.248  12.026  0.2157  0.3593 -0.1811
 8703TIP3    H147524   2.417   6.188  12.026  0.5286  0.6849  1.6281
 8703TIP3    H247525   2.277   6.204  12.080 -1.2767 -0.2982 -2.4129
 8704TIP3   OH247526   2.528   0.569   5.896 -0.0272  0.5764  0.2152
 8704TIP3    H147527   2.572   0.634   5.950  0.5690  0.3146  0.0489
 8704TIP3    H247528   2.597   0.508   5.869 -0.6600 -0.4345  0.8052
 8705TIP3   OH247529   1.792   1.447  11.571 -0.1835  0.0114 -0.1844
 8705TIP3    H147530   1.714   1.407  11.609  0.0441  0.7432  1.1082
 8705TIP3    H247531   1.863   1.421  11.629  0.4680 -0.2892 -1.1051
 8706TIP3   OH247532   4.018   0.751   0.845 -0.2718 -0.6467 -0.9786
 8706TIP3    H147533   3.946   0.718   0.792 -1.0192  0.0878 -0.4506
 8706TIP3    H247534   4.033   0.840   0.813  1.4473 -1.2877 -2.1172
 8707TIP3   OH247535   0.100   3.655  11.890  0.2280  0.2077 -0.0401
 8707TIP3    H147536   0.143   3.571  11.904  0.5752  0.1778 -1.2473
 8707TIP3    H247537   0.013   3.644  11.928  0.4625 -0.5027  0.3088
 8708TIP3   OH247538   0.122   1.798   3.593 -0.3183 -0.0751  0.0911
 8708TIP3    H147539   0.192   1.759   3.540  1.6230  1.7540  1.1320
 8708TIP3    H247540   0.075   1.854   3.532  1.5671  1.6112  0.0854
 8709TIP3   OH247541   4.211   5.677   2.354  0.1304 -0.1716 -0.4776
 8709TIP3    H147542   4.174   5.747   2.407 -2.0080  0.0887 -2.1899
 8709TIP3    H247543   4.264   5.721   2.288 -0.0536 -0.2367 -0.6726
 8710TIP3   OH247544   3.295   5.141   4.697 -0.3720 -0.4732 -0.6467
 8710TIP3    H147545   3.295   5.050   4.666 -0.1985 -0.3832 -0.9200
 8710TIP3    H247546   3.204   5.167   4.693 -1.3957 -2.2257  4.2707
 8711TIP3   OH247547   1.038   3.257  14.276 -0.0710  0.4302 -0.2500
 8711TIP3    H147548   0.966   3.287  14.221 -0.3774 -0.7788 -0.5243
 8711TIP3    H247549   1.112   3.246  14.216 -0.2154 -0.2389 -0.3063
 8712TIP3   OH247550   0.533   1.793   0.765 -0.0422 -0.0172  0.3107
 8712TIP3    H147551   0.540   1.715   0.821  0.4238 -0.6045 -0.5477
 8712TIP3    H247552   0.561   1.865   0.821  2.5620 -0.8586  0.2424
 8713TIP3   OH247553   1.266   0.429  11.379 -0.4413 -0.3897  0.6287
 8713TIP3    H147554   1.191   0.381  11.345 -0.1122 -0.3313 -0.2162
 8713TIP3    H247555   1.332   0.423  11.309 -0.4636  1.4588  0.4004
 8714TIP3   OH247556   5.681   6.165  17.182 -0.0233  0.0974 -0.4045
 8714TIP3    H147557   5.668   6.184  17.275 -1.6602  1.3136 -0.8444
 8714TIP3    H247558   5.708   6.073  17.180  3.0353  0.8057  1.4519
 8715TIP3   OH247559   4.643   1.032   4.810 -0.2411 -0.0272  0.4418
 8715TIP3    H147560   4.577   0.971   4.778  0.9708 -0.5069 -1.2966
 8715TIP3    H247561   4.720   0.978   4.827  0.4561  0.8282  0.0922
 8716TIP3   OH247562   3.307   2.730   5.487  0.2123 -0.2565 -0.4858
 8716TIP3    H147563   3.377   2.743   5.551 -0.6217  0.2007  0.3550
 8716TIP3    H247564   3.247   2.668   5.529  0.3547 -1.0514 -1.4086
 8717TIP3   OH247565   0.961   4.680  15.959  0.9329 -0.2960  0.3810
 8717TIP3    H147566   1.034   4.619  15.969 -0.2011 -1.6895  0.3317
 8717TIP3    H247567   0.919   4.654  15.877 -0.5388 -0.5202  1.1818
 8718TIP3   OH247568   4.521   1.649  16.451  0.1290 -0.8744 -0.2871
 8718TIP3    H147569   4.483   1.736  16.462 -0.3526 -0.9386 -1.3942
 8718TIP3    H247570   4.608   1.666  16.414 -0.0885 -0.8819 -0.7986
 8719TIP3   OH247571   0.393   3.631   4.401 -0.0310  0.1309  0.1709
 8719TIP3    H147572   0.432   3.708   4.360 -1.4574  1.1439  0.6148
 8719TIP3    H247573   0.310   3.618   4.355 -0.6165 -0.0656  1.2368
 8720TIP3   OH247574   5.365   2.530  11.749 -0.3404 -0.1924  0.5092
 8720TIP3    H147575   5.460   2.526  11.756 -0.2260 -0.1479 -0.9019
 8720TIP3    H247576   5.341   2.610  11.797  0.4200  0.2775  0.1307
 8721TIP3   OH247577   2.075   6.231  11.506  0.1777  0.1561 -0.1659
 8721TIP3    H147578   2.144   6.259  11.446  1.8388 -0.5550  1.3380
 8721TIP3    H247579   2.026   6.165  11.456  1.1006  0.0568 -0.9773
 8722TIP3   OH247580   5.903   6.603   4.962 -0.2784 -0.1237 -0.0197
 8722TIP3    H147581   5.839   6.609   4.891 -0.0736 -2.4030 -0.4614
 8722TIP3    H247582   5.925   6.694   4.982  0.1838  0.6201 -3.3164
 8723TIP3   OH247583   0.263   5.375  16.546 -0.6442 -0.0829  0.0775
 8723TIP3    H147584   0.239   5.283  16.534 -0.7116 -0.1142  0.4451
 8723TIP3    H247585   0.276   5.408  16.457 -1.1184 -0.3156 -0.0806
 8724TIP3   OH247586   0.336   6.430   5.026  0.2235  0.5175 -0.5671
 8724TIP3    H147587   0.321   6.505   4.968  0.4884 -0.2151 -1.6106
 8724TIP3    H247588   0.264   6.370   5.007  0.2236  0.3345 -0.0130
 8725TIP3   OH247589   5.838   4.078  10.814  0.0570  0.3348  0.0735
 8725TIP3    H147590   5.932   4.060  10.809  0.2891  1.4673  0.1236
 8725TIP3    H247591   5.826   4.153  10.756 -0.7777  0.3768  0.2994
 8726TIP3   OH247592   3.774   0.182  13.035 -0.7365  0.1515 -0.0143
 8726TIP3    H147593   3.826   0.257  13.065 -1.9064 -0.1841  3.1753
 8726TIP3    H247594   3.838   0.125  12.992  1.2306  0.6881  1.9847
 8727TIP3   OH247595   3.953   6.361  11.512  0.0588 -0.5586  0.1270
 8727TIP3    H147596   3.974   6.291  11.449  0.6640 -0.2674 -0.0072
 8727TIP3    H247597   3.995   6.332  11.594  0.5138 -0.2494  0.0097
 8728TIP3   OH247598   1.575   0.228  14.175 -0.0054 -0.3599 -0.2264
 8728TIP3    H147599   1.557   0.296  14.240 -0.1571 -0.2037 -0.4332
 8728TIP3    H247600   1.553   0.268  14.091 -3.0433 -1.6097 -0.1650
 8729TIP3   OH247601   5.503   4.666  12.692 -0.3139  0.3053  0.2118
 8729TIP3    H147602   5.474   4.754  12.667  1.7750  1.5095  1.7244
 8729TIP3    H247603   5.598   4.667  12.679 -0.1688 -1.5649  0.7880
 8730TIP3   OH247604   1.183   4.844   1.654 -0.0573 -0.0370 -0.3178
 8730TIP3    H147605   1.237   4.887   1.589  0.3360 -1.1300 -0.7305
 8730TIP3    H247606   1.182   4.904   1.728  0.1305  0.8608 -1.0330
 8731TIP3   OH247607   3.108   1.930  13.540 -0.5063 -0.1458 -0.1652
 8731TIP3    H147608   3.166   1.855  13.555 -0.8740 -0.0902  1.8313
 8731TIP3    H247609   3.163   1.994  13.495  0.8003 -0.3612  1.0590
 8732TIP3   OH247610   5.963   3.548  16.833 -0.0646  0.4177 -0.0118
 8732TIP3    H147611   5.873   3.531  16.860 -0.1323  0.7280 -0.0315
 8732TIP3    H247612   5.963   3.640  16.807 -0.4704 -0.3017 -2.9241
 8733TIP3   OH247613   5.266   4.931  15.136  0.0441 -0.3153 -0.1578
 8733TIP3    H147614   5.327   4.875  15.185  0.5982 -1.3559 -1.9408
 8733TIP3    H247615   5.308   5.017  15.135 -0.1071 -0.1923  1.3640
 8734TIP3   OH247616   2.776   6.272   6.485  0.0337  0.4607 -0.2383
 8734TIP3    H147617   2.754   6.342   6.424  0.0318 -0.3755 -1.2306
 8734TIP3    H247618   2.770   6.192   6.432 -0.7141 -0.3611  1.0389
 8735TIP3   OH247619   5.280   5.312  12.481 -0.2754  0.3345 -0.6057
 8735TIP3    H147620   5.199   5.310  12.429 -0.9228  1.8341  0.2820
 8735TIP3    H247621   5.294   5.405  12.499  2.0597  0.1715 -1.3230
 8736TIP3   OH247622   5.983   1.077  14.393 -0.3957  0.2898  0.0374
 8736TIP3    H147623   5.903   1.050  14.438  0.3736 -1.8873  0.1825
 8736TIP3    H247624   6.045   1.006  14.409  1.2279  1.4020 -1.0197
 8737TIP3   OH247625   2.679   5.733   2.639 -0.1786  0.3228  0.1195
 8737TIP3    H147626   2.714   5.676   2.571  1.0845  1.6591 -0.4042
 8737TIP3    H247627   2.671   5.819   2.598  0.0599  1.0332  1.4763
 8738TIP3   OH247628   3.050   1.724  17.267  1.0240  0.7940 -0.0618
 8738TIP3    H147629   2.968   1.723  17.315 -0.8434  1.0170 -3.0108
 8738TIP3    H247630   3.106   1.661  17.312 -1.8166 -1.6273  0.3469
 8739TIP3   OH247631   3.176   6.728   4.711  0.3960 -0.4788 -0.2774
 8739TIP3    H147632   3.178   6.651   4.655  0.8560 -0.2287 -0.6080
 8739TIP3    H247633   3.194   6.801   4.652  0.4887 -0.1732  0.1261
 8740TIP3   OH247634   3.836   6.256   0.332  0.6572  0.2656 -0.4635
 8740TIP3    H147635   3.871   6.196   0.398 -0.1459  1.1367  0.8126
 8740TIP3    H247636   3.868   6.342   0.358 -0.1601  0.7026 -0.8616
 8741TIP3   OH247637   3.953   4.622   2.670  0.1494  0.2894  0.4487
 8741TIP3    H147638   3.985   4.678   2.740  1.3434 -1.9473  1.8018
 8741TIP3    H247639   4.018   4.631   2.600  1.9083 -1.4099  1.7540
 8742TIP3   OH247640   1.850   2.547  13.496  0.1430 -0.2407 -0.3024
 8742TIP3    H147641   1.883   2.462  13.527 -1.1058  0.0948  2.1634
 8742TIP3    H247642   1.922   2.608  13.512  0.2377 -0.4443  0.0583
 8743TIP3   OH247643   3.380   2.503  11.934 -0.4089 -0.0661 -0.0005
 8743TIP3    H147644   3.448   2.488  11.868 -0.8439 -0.9475 -0.2607
 8743TIP3    H247645   3.428   2.523  12.014  0.1608 -0.6561 -0.1861
 8744TIP3   OH247646   0.281   5.330   3.492  0.1994 -0.0595 -0.0396
 8744TIP3    H147647   0.243   5.358   3.575  0.3677  0.5920 -0.1783
 8744TIP3    H247648   0.304   5.238   3.506 -0.1653 -0.0770  0.4899
 8745TIP3   OH247649   5.835   6.032   5.516  0.0988 -0.8272 -0.1948
 8745TIP3    H147650   5.761   6.059   5.570 -0.1288 -2.6010  0.4619
 8745TIP3    H247651   5.911   6.073   5.558 -0.0573 -2.2450  1.6078
 8746TIP3   OH247652   0.329   5.476  15.302 -0.0289  0.3515  0.4302
 8746TIP3    H147653   0.292   5.409  15.360 -1.4229  0.7891  0.0737
 8746TIP3    H247654   0.365   5.427  15.228 -2.5466  0.0268 -0.6775
 8747TIP3   OH247655   4.124   3.588  12.050  0.2220  0.3066 -0.5145
 8747TIP3    H147656   4.115   3.498  12.017  0.9290 -0.4011  1.1535
 8747TIP3    H247657   4.209   3.589  12.094 -0.1848  1.5369  0.2799
 8748TIP3   OH247658   1.108   6.115  14.845  0.0928  0.0968  0.0658
 8748TIP3    H147659   1.098   6.118  14.940  0.9347  0.8243  0.1481
 8748TIP3    H247660   1.068   6.197  14.815 -1.3700 -0.7447 -0.3413
 8749TIP3   OH247661   0.299   5.674  13.871 -0.2062  0.2329 -0.0188
 8749TIP3    H147662   0.345   5.692  13.953  0.3261  1.8021 -0.6188
 8749TIP3    H247663   0.342   5.595  13.836  0.5057  0.3638  0.5332
 8750TIP3   OH247664   0.006   4.978  14.739  0.3179 -0.4215  0.5687
 8750TIP3    H147665  -0.019   5.005  14.828  1.0559  3.1043 -0.1699
 8750TIP3    H247666  -0.071   4.998  14.686  0.4903 -0.8823  0.1434
 8751TIP3   OH247667   1.332   2.119   1.925  0.5309  0.5909 -0.1103
 8751TIP3    H147668   1.322   2.075   2.009  0.6504 -2.7445 -1.6704
 8751TIP3    H247669   1.251   2.099   1.878  0.9507  1.4015 -1.2297
 8752TIP3   OH247670   2.639   5.195  15.014  0.5653  0.1343 -0.2384
 8752TIP3    H147671   2.581   5.165  15.084 -0.2484 -0.8173 -1.2785
 8752TIP3    H247672   2.583   5.248  14.957  0.9272 -0.0612 -0.7913
 8753TIP3   OH247673   1.323   4.421  16.089 -0.6736  0.2852  0.1306
 8753TIP3    H147674   1.416   4.398  16.079 -0.0099  2.7210 -0.2281
 8753TIP3    H247675   1.300   4.392  16.177  0.2243 -0.9574 -0.0219
 8754TIP3   OH247676   6.199   4.750   0.774 -0.0071 -0.6209 -0.3063
 8754TIP3    H147677   6.280   4.706   0.799 -0.3287 -0.1422  1.8002
 8754TIP3    H247678   6.161   4.779   0.857 -1.7500  0.2046 -1.3289
 8755TIP3   OH247679   6.586   1.393   2.431 -0.0854  0.5507  0.6643
 8755TIP3    H147680   6.552   1.332   2.366 -0.0811  0.2069  0.9816
 8755TIP3    H247681   6.508   1.425   2.477 -0.0743  0.6534  0.6120
 8756TIP3   OH247682   6.158   0.672   4.313  0.4248 -0.2646 -0.2376
 8756TIP3    H147683   6.080   0.670   4.257  0.7464 -0.3691 -0.6896
 8756TIP3    H247684   6.149   0.752   4.365  0.7978  0.5747 -1.4248
 8757TIP3   OH247685   5.784   5.360   1.990 -0.2381  0.0970 -0.5098
 8757TIP3    H147686   5.819   5.388   2.074  1.1671 -1.2270 -0.6065
 8757TIP3    H247687   5.747   5.273   2.008 -0.3995  0.0263 -1.1518
 8758TIP3   OH247688   1.631   5.581  15.183 -0.8723 -0.1572 -0.5141
 8758TIP3    H147689   1.548   5.622  15.161  0.6751  2.3616 -2.1685
 8758TIP3    H247690   1.685   5.652  15.218 -0.3325 -2.3341  3.6931
 8759TIP3   OH247691   3.952   4.909  10.544 -0.1980 -0.3821 -0.0765
 8759TIP3    H147692   3.903   4.974  10.494  2.9567  1.7365 -0.6688
 8759TIP3    H247693   3.895   4.888  10.618 -2.5136  0.8537 -1.4005
 8760TIP3   OH247694   0.182   5.227  12.574 -0.3382  0.3841  0.9018
 8760TIP3    H147695   0.192   5.317  12.543  0.2191 -0.2139 -0.7634
 8760TIP3    H247696   0.266   5.207  12.616 -0.8930  1.0064  2.3906
 8761TIP3   OH247697   3.354   6.724  14.003  0.2876 -0.2305 -0.5685
 8761TIP3    H147698   3.390   6.799  14.050 -0.0459 -0.1098 -0.5068
 8761TIP3    H247699   3.411   6.715  13.926 -0.7605  1.2301 -1.5588
 8762TIP3   OH247700   0.257   1.705   5.853  0.3870 -0.4479  0.2121
 8762TIP3    H147701   0.255   1.772   5.921 -0.0292 -1.3541  1.1024
 8762TIP3    H247702   0.335   1.652   5.873  1.5957  0.6099 -1.3515
 8763TIP3   OH247703   6.423   0.828  14.420 -0.5588  0.3038  0.2517
 8763TIP3    H147704   6.482   0.779  14.362 -0.6831 -0.0213  0.3997
 8763TIP3    H247705   6.480   0.892  14.462 -0.3554  0.1557  0.2062
 8764TIP3   OH247706   1.645   2.532  11.891 -0.2900  0.0913  0.3706
 8764TIP3    H147707   1.708   2.603  11.905 -0.4254  0.7578 -1.9854
 8764TIP3    H247708   1.641   2.522  11.796 -1.6495 -1.8579  0.5836
 8765TIP3   OH247709   0.187   4.955   3.996 -0.8472 -0.0239  0.0037
 8765TIP3    H147710   0.254   4.962   4.063 -0.0099  1.6400 -0.9657
 8765TIP3    H247711   0.104   4.959   4.045 -0.2606  0.6878  0.9675
 8766TIP3   OH247712   1.272   6.645   6.524 -0.2392  0.1928 -0.5788
 8766TIP3    H147713   1.232   6.604   6.447 -0.0395 -0.4622 -0.3437
 8766TIP3    H247714   1.231   6.602   6.599  1.4524 -1.0985 -0.3266
 8767TIP3   OH247715   1.926   1.171  10.631  0.1574  0.3607 -0.5109
 8767TIP3    H147716   1.870   1.095  10.615  3.0042 -1.8807 -0.6142
 8767TIP3    H247717   1.890   1.240  10.574 -2.0835 -1.0863 -0.9790
 8768TIP3   OH247718   0.399   5.573   1.001  0.0929 -0.3988  0.0488
 8768TIP3    H147719   0.491   5.550   0.991  0.0217 -0.8205  0.3658
 8768TIP3    H247720   0.393   5.662   0.965  0.7946 -0.0102  0.8618
 8769TIP3   OH247721   5.537   0.755   0.655 -0.0133 -0.2574 -0.1812
 8769TIP3    H147722   5.597   0.831   0.654  2.0703 -1.7739 -2.5423
 8769TIP3    H247723   5.547   0.716   0.568 -3.2302 -1.6261 -0.0462
 8770TIP3   OH247724   5.937   6.354  11.329 -0.2392  0.0348  0.4950
 8770TIP3    H147725   5.997   6.416  11.368  0.2513 -0.3334  0.3324
 8770TIP3    H247726   5.964   6.269  11.363  0.7826 -0.4178 -1.3170
 8771TIP3   OH247727   0.715   1.738   4.941 -0.1225  0.3446 -0.0572
 8771TIP3    H147728   0.663   1.818   4.934 -0.6525 -0.0532 -0.8269
 8771TIP3    H247729   0.719   1.721   5.035 -1.2734  0.4617  0.0298
 8772TIP3   OH247730   5.363   6.437   2.727 -0.0917 -0.0010 -0.3964
 8772TIP3    H147731   5.309   6.488   2.787 -1.3299 -0.2587 -1.2466
 8772TIP3    H247732   5.315   6.355   2.716 -0.5322  0.4991 -2.6424
 8773TIP3   OH247733   6.157   3.057   2.472  0.4563  0.2971  0.5730
 8773TIP3    H147734   6.165   3.056   2.377 -0.6609 -0.8211  0.4462
 8773TIP3    H247735   6.199   2.976   2.501 -0.4297 -0.0813  0.8706
 8774TIP3   OH247736   4.192   1.287  14.301 -0.0330  0.3372 -0.1376
 8774TIP3    H147737   4.119   1.330  14.346  0.0057  0.6613 -0.3818
 8774TIP3    H247738   4.269   1.309  14.354 -0.1029  0.0439  0.0869
 8775TIP3   OH247739   4.872   4.942  13.422 -0.2524 -0.0745 -0.2189
 8775TIP3    H147740   4.850   4.892  13.343 -1.0163 -0.5799  0.3024
 8775TIP3    H247741   4.876   5.033  13.393 -2.5213  0.0042 -0.4754
 8776TIP3   OH247742   1.936   0.457   3.711  0.2037  0.0571  0.1209
 8776TIP3    H147743   2.003   0.432   3.647  1.4293 -0.7102  1.6425
 8776TIP3    H247744   1.872   0.386   3.708 -0.6869  0.8608 -1.4406
 8777TIP3   OH247745   6.613   4.966   2.463  0.2099 -0.2445 -0.4789
 8777TIP3    H147746   6.667   4.899   2.504  0.1121 -0.4164 -0.6270
 8777TIP3    H247747   6.634   5.047   2.510 -0.6589 -0.6263  0.5841
 8778TIP3   OH247748   0.777   0.500   5.398 -0.5839  0.5601 -0.3884
 8778TIP3    H147749   0.739   0.483   5.485  1.5717  1.6691  0.8658
 8778TIP3    H247750   0.729   0.576   5.365  0.6596  2.2151  1.3516
 8779TIP3   OH247751   0.624   1.918  11.026  0.7173  0.2198  0.7020
 8779TIP3    H147752   0.629   2.000  10.977  0.1580  0.7720  1.5435
 8779TIP3    H247753   0.590   1.855  10.963 -0.6729  1.0794  0.5511
 8780TIP3   OH247754   5.244   1.888   0.513  0.2606  0.1187  0.2980
 8780TIP3    H147755   5.210   1.885   0.602 -0.9129 -0.1294 -0.1493
 8780TIP3    H247756   5.323   1.942   0.520 -1.2656  2.4311  1.0279
 8781TIP3   OH247757   6.337   0.019   4.803  0.1326  0.2265  0.2135
 8781TIP3    H147758   6.243   0.030   4.786 -0.4973 -1.1691  2.4536
 8781TIP3    H247759   6.369  -0.033   4.729 -0.5784  1.6077 -1.1256
 8782TIP3   OH247760   3.564   2.287   0.517  0.6045  0.5712  0.0421
 8782TIP3    H147761   3.628   2.295   0.446 -1.0713 -1.4150 -1.8062
 8782TIP3    H247762   3.535   2.377   0.533 -0.4716  0.9267 -3.3027
 8783TIP3   OH247763   0.794   0.578  15.157  0.2311  0.5981 -0.1731
 8783TIP3    H147764   0.782   0.488  15.126  0.5347 -0.1334  1.6864
 8783TIP3    H247765   0.760   0.632  15.086 -0.6554 -0.9989 -1.0417
 8784TIP3   OH247766   2.576   5.054   1.065  0.3231 -0.1361 -0.6042
 8784TIP3    H147767   2.517   5.060   1.139 -0.6583  0.0070 -1.3844
 8784TIP3    H247768   2.662   5.078   1.100 -0.2850  0.7666  0.2809
 8785TIP3   OH247769   3.940   0.092  14.429  0.0328  0.5920 -0.0473
 8785TIP3    H147770   3.987   0.048  14.500  1.6957  2.7025  0.2758
 8785TIP3    H247771   4.006   0.107  14.362 -1.0234  0.5567 -1.1303
 8786TIP3   OH247772   3.165   2.024  16.429 -0.0476  0.2306  0.7570
 8786TIP3    H147773   3.246   1.972  16.436  0.2997  0.8889  2.0591
 8786TIP3    H247774   3.098   1.967  16.466  0.1024  0.2364  1.0430
 8787TIP3   OH247775   4.033   1.400   3.453  0.2062  0.0134  0.4631
 8787TIP3    H147776   4.056   1.446   3.534  0.4310  1.2724 -0.2974
 8787TIP3    H247777   4.099   1.427   3.390 -0.3907 -0.3753 -0.3425
 8788TIP3   OH247778   1.256   3.519   4.428  0.1170  0.1089  0.1578
 8788TIP3    H147779   1.333   3.490   4.380 -0.0969 -0.7348  0.3023
 8788TIP3    H247780   1.215   3.584   4.372  0.1057 -0.5503 -0.6132
 8789TIP3   OH247781   3.392   4.247   1.124  0.1852  0.3567  0.1898
 8789TIP3    H147782   3.469   4.302   1.110 -0.0903  0.8186  0.4961
 8789TIP3    H247783   3.428   4.165   1.159  0.4363  1.0183  1.5390
 8790TIP3   OH247784   5.083   2.895  13.463  0.6193 -0.7215 -0.2923
 8790TIP3    H147785   5.086   2.852  13.377 -3.0996  0.0508 -0.9822
 8790TIP3    H247786   5.171   2.931  13.476  1.3992 -1.1661 -3.6116
 8791TIP3   OH247787   0.592   3.431   3.548 -0.7452  0.6419  0.4576
 8791TIP3    H147788   0.597   3.455   3.455  0.7780  1.1758  0.6407
 8791TIP3    H247789   0.500   3.443   3.572 -1.3866 -0.5020 -1.2223
 8792TIP3   OH247790   5.406   4.768   2.501  0.7743 -0.2030 -0.1234
 8792TIP3    H147791   5.475   4.751   2.436  0.6880 -1.2914  0.0476
 8792TIP3    H247792   5.345   4.695   2.491 -0.3843  0.7647 -0.2835
 8793TIP3   OH247793   1.406   0.367  15.644  0.7377 -0.2324 -0.3582
 8793TIP3    H147794   1.326   0.348  15.594 -0.5210 -2.8458  2.3607
 8793TIP3    H247795   1.388   0.450  15.687 -1.3788 -1.5979  1.5879
 8794TIP3   OH247796   0.985   5.575   2.436  0.4345 -0.0000 -0.0132
 8794TIP3    H147797   1.039   5.496   2.439  0.5648  0.0762 -0.3624
 8794TIP3    H247798   0.967   5.595   2.528  0.2389 -0.5461  0.0717
 8795TIP3   OH247799   5.938   0.050   1.809 -0.1347  0.5875 -0.4062
 8795TIP3    H147800   5.958  -0.040   1.835  1.3948  0.5253 -1.6487
 8795TIP3    H247801   5.846   0.062   1.832  0.5781 -0.0061  3.2861
 8796TIP3   OH247802   4.482   4.149   1.895  0.6083 -0.4092 -0.2540
 8796TIP3    H147803   4.527   4.220   1.849  0.2738 -0.8455 -1.2824
 8796TIP3    H247804   4.478   4.178   1.986 -0.4455  1.3954 -0.8138
 8797TIP3   OH247805   0.660   3.689   4.027  0.2254 -1.1377  0.4658
 8797TIP3    H147806   0.572   3.686   3.990 -0.0704 -0.4625  1.0815
 8797TIP3    H247807   0.717   3.658   3.957 -0.3207  0.1243 -0.5840
 8798TIP3   OH247808   5.941   5.406  10.367 -0.2565 -0.0911 -0.0822
 8798TIP3    H147809   5.862   5.352  10.367 -1.6728  1.8034  1.6533
 8798TIP3    H247810   6.011   5.347  10.395 -0.8749 -1.9630 -2.2160
 8799TIP3   OH247811   5.700   5.437   6.312  0.1126  0.1245  0.1012
 8799TIP3    H147812   5.789   5.402   6.318 -0.1831 -0.5643  0.7758
 8799TIP3    H247813   5.703   5.519   6.360  0.0676 -0.6138  1.4351
 8800TIP3   OH247814   2.588   2.527  14.245 -0.3915 -0.0801 -0.2533
 8800TIP3    H147815   2.658   2.501  14.186  0.6948  1.1489  0.4283
 8800TIP3    H247816   2.520   2.564  14.188 -0.6038 -1.4512 -0.9346
 8801TIP3   OH247817   4.445   5.510   4.565  0.4361  0.7628  0.7341
 8801TIP3    H147818   4.404   5.545   4.486 -2.8353 -0.5021  1.7108
 8801TIP3    H247819   4.466   5.586   4.618 -0.4212  1.4747  0.0672
 8802TIP3   OH247820   2.326   5.787  14.551 -0.1428  0.1148 -0.2081
 8802TIP3    H147821   2.341   5.707  14.500  0.7180 -0.7063  1.2726
 8802TIP3    H247822   2.407   5.838  14.539 -0.3814  0.4205 -0.5331
 8803TIP3   OH247823   1.825   3.872  16.488 -0.3837 -0.5065  0.0381
 8803TIP3    H147824   1.853   3.791  16.531 -0.2201 -0.4610  0.0176
 8803TIP3    H247825   1.746   3.898  16.535  0.2868  0.0327  0.9378
 8804TIP3   OH247826   0.621   3.069  11.368 -0.0122 -0.1803 -0.5527
 8804TIP3    H147827   0.626   2.991  11.424  1.0642 -0.0175 -0.3971
 8804TIP3    H247828   0.679   3.049  11.294  1.1106  0.8686  0.0172
 8805TIP3   OH247829   6.410   0.496   5.331  0.2127  0.7473  0.0259
 8805TIP3    H147830   6.479   0.516   5.268 -0.0400  2.8664  0.3343
 8805TIP3    H247831   6.450   0.515   5.417 -0.0871 -0.1104  0.3662
 8806TIP3   OH247832   4.521   6.181   4.528 -0.2761  0.3704  0.4871
 8806TIP3    H147833   4.572   6.222   4.458  1.7911 -1.8805  0.5371
 8806TIP3    H247834   4.447   6.141   4.483 -0.5747  1.3889  0.0343
 8807TIP3   OH247835   2.371   3.642  16.494 -0.5071  0.8646  0.0338
 8807TIP3    H147836   2.422   3.647  16.413  1.2882 -1.2930  0.9321
 8807TIP3    H247837   2.301   3.580  16.474 -0.5611  0.9702 -0.1056
 8808TIP3   OH247838   4.137   6.409  10.514  0.0584 -0.1003 -0.0031
 8808TIP3    H147839   4.133   6.504  10.510  0.2927  0.1520  3.3038
 8808TIP3    H247840   4.046   6.381  10.517 -0.0075  0.1554  0.4885
 8809TIP3   OH247841   3.379   5.568   4.899  0.1317  0.2490 -0.0670
 8809TIP3    H147842   3.358   5.477   4.922  0.2015  0.5005  1.0340
 8809TIP3    H247843   3.353   5.575   4.807 -0.5572 -0.6854  0.0307
 8810TIP3   OH247844   5.023   3.530  16.288 -0.6403  0.4829 -0.2480
 8810TIP3    H147845   5.053   3.515  16.378 -1.9918 -1.2079 -0.0143
 8810TIP3    H247846   5.095   3.577  16.246  1.3441 -1.3589  0.8704
 8811TIP3   OH247847   3.085   0.524   1.197  0.3360  0.0461 -0.5833
 8811TIP3    H147848   3.175   0.542   1.225  0.3063  1.7091 -1.4220
 8811TIP3    H247849   3.031   0.583   1.250  0.0914  1.6472 -2.5090
 8812TIP3   OH247850   5.905   6.031   6.710  0.0810 -0.0621  0.6200
 8812TIP3    H147851   5.916   5.938   6.688  2.0710 -0.1502  1.7484
 8812TIP3    H247852   5.937   6.077   6.632 -0.8458 -0.3022  0.0831
 8813TIP3   OH247853   0.289   2.262   2.756  0.6262 -0.1336 -0.4621
 8813TIP3    H147854   0.256   2.273   2.667  0.5604  1.3771 -0.2664
 8813TIP3    H247855   0.277   2.168   2.774  1.2477 -0.5949 -2.2580
 8814TIP3   OH247856   6.085   4.841   5.060 -0.8124 -0.1430 -0.2984
 8814TIP3    H147857   6.045   4.919   5.099  2.0121  1.1982  0.1614
 8814TIP3    H247858   6.044   4.833   4.974 -1.2126  1.8354 -0.3382
 8815TIP3   OH247859   4.664   4.658   4.777  0.1614  0.0460 -0.2473
 8815TIP3    H147860   4.631   4.688   4.693  0.9278  1.2815 -0.1338
 8815TIP3    H247861   4.739   4.602   4.756  0.5715  0.6398 -0.3884
 8816TIP3   OH247862   2.497   6.293   4.258 -0.8474  0.7228  0.3002
 8816TIP3    H147863   2.468   6.357   4.323  0.1040  0.4813  0.9864
 8816TIP3    H247864   2.593   6.297   4.262 -0.7672 -1.0158  0.6434
 8817TIP3   OH247865   1.394   4.557  11.076  0.1027 -0.1328 -0.3666
 8817TIP3    H147866   1.322   4.494  11.076 -1.8576  1.9393  1.2937
 8817TIP3    H247867   1.459   4.519  11.135 -0.9346 -0.7104  0.4447
 8818TIP3   OH247868   4.431   6.708   4.329  0.2126 -0.2457  0.6498
 8818TIP3    H147869   4.496   6.735   4.265  0.9463  3.1127  2.5841
 8818TIP3    H247870   4.447   6.763   4.405 -2.5205 -1.9257  2.6525
 8819TIP3   OH247871   2.493   2.277  14.222  0.0112  0.3799 -0.0863
 8819TIP3    H147872   2.466   2.285  14.131  1.7363 -0.7000 -0.7474
 8819TIP3    H247873   2.488   2.367  14.257 -1.9678  0.5894 -0.8088
 8820TIP3   OH247874   5.810   4.109  15.593 -0.8930  0.0316 -0.1344
 8820TIP3    H147875   5.735   4.118  15.651  0.0794  0.2305  1.1383
 8820TIP3    H247876   5.772   4.104  15.505 -2.5033 -1.6090  0.5790
 8821TIP3   OH247877   0.412   3.022  17.010 -0.6061  0.3051 -0.2693
 8821TIP3    H147878   0.425   2.953  16.944 -0.3590  0.5657 -0.4937
 8821TIP3    H247879   0.342   2.988  17.066 -1.2235  0.3196 -1.0058
 8822TIP3   OH247880   2.168   5.372  12.608 -0.7237 -0.7253 -0.1020
 8822TIP3    H147881   2.187   5.455  12.652  0.1122 -0.9922  0.0674
 8822TIP3    H247882   2.078   5.381  12.577 -0.4095  0.5338 -0.7285
 8823TIP3   OH247883   6.579   1.826  16.142  0.7182  0.1736 -0.2792
 8823TIP3    H147884   6.657   1.861  16.099  0.6512 -0.1625 -0.6780
 8823TIP3    H247885   6.506   1.870  16.098  0.6316 -0.4857 -0.8137
 8824TIP3   OH247886   2.564   3.183  12.078  0.3939  0.3681  0.3230
 8824TIP3    H147887   2.533   3.117  12.016 -0.0981  2.3574 -1.6757
 8824TIP3    H247888   2.659   3.180  12.071  0.3478  0.5018 -0.4664
 8825TIP3   OH247889   2.996   0.594  11.256  0.1121  0.0281  0.2637
 8825TIP3    H147890   3.028   0.651  11.325  1.0361 -0.8333  0.5602
 8825TIP3    H247891   2.931   0.647  11.209  0.4403  1.0655  0.9646
 8826TIP3   OH247892   1.507   4.868   3.652  0.1898  0.4023  0.2849
 8826TIP3    H147893   1.478   4.932   3.716  0.4943  1.3948 -0.5456
 8826TIP3    H247894   1.427   4.822   3.626 -0.4630  2.1641 -0.9532
 8827TIP3   OH247895   4.619   5.191   1.404  0.1442 -0.5163 -0.2961
 8827TIP3    H147896   4.688   5.131   1.378  1.6667  1.5485 -1.2920
 8827TIP3    H247897   4.665   5.267   1.440 -1.6882  0.1025  0.9298
 8828TIP3   OH247898   1.702   1.347   4.382 -0.0704  0.4159  0.5785
 8828TIP3    H147899   1.715   1.428   4.431 -0.8256  0.4612  0.7083
 8828TIP3    H247900   1.614   1.317   4.407 -0.6265  0.6281 -1.0430
 8829TIP3   OH247901   0.087   0.688   4.715 -0.5425 -0.3221  0.3206
 8829TIP3    H147902  -0.001   0.701   4.750 -0.3551 -2.1155  1.6212
 8829TIP3    H247903   0.072   0.664   4.623 -1.4995 -1.4212  0.7348
 8830TIP3   OH247904   2.541   2.965  13.957 -0.3588 -0.2885  0.2630
 8830TIP3    H147905   2.463   3.012  13.926 -0.6011 -0.8791 -0.0483
 8830TIP3    H247906   2.613   3.028  13.947 -0.7418  0.1538  0.2555
 8831TIP3   OH247907   2.635   5.203  10.547  0.0945  0.4103  0.5682
 8831TIP3    H147908   2.721   5.244  10.535  0.1158  0.4896  0.9858
 8831TIP3    H247909   2.599   5.245  10.625 -1.4305  2.3161 -1.0351
 8832TIP3   OH247910   4.828   2.234   2.271 -0.6876 -0.0683  0.5923
 8832TIP3    H147911   4.821   2.326   2.295  0.7610  0.1341  0.3625
 8832TIP3    H247912   4.792   2.229   2.182 -0.2670  0.3838  0.3948
 8833TIP3   OH247913   1.961   0.010  16.608 -0.5433  0.0139 -0.2588
 8833TIP3    H147914   1.994   0.094  16.577 -2.3175  1.1173  0.7072
 8833TIP3    H247915   2.003  -0.055  16.551  0.2787  1.5825 -1.5104
 8834TIP3   OH247916   6.465   3.448   0.033  0.0493  0.4438 -0.2519
 8834TIP3    H147917   6.498   3.418   0.117  1.2003 -0.2871 -0.9287
 8834TIP3    H247918   6.505   3.535   0.022  0.8799  0.0409 -0.5535
 8835TIP3   OH247919   0.756   2.524  14.798  1.0475 -0.6523 -0.0511
 8835TIP3    H147920   0.697   2.461  14.757 -2.0961  1.4223  0.8604
 8835TIP3    H247921   0.714   2.546  14.881  2.0128  2.4649 -0.2586
 8836TIP3   OH247922   4.514   5.736  13.713 -0.3476 -0.7131  0.0236
 8836TIP3    H147923   4.452   5.802  13.744 -2.6642 -1.6565 -2.2620
 8836TIP3    H247924   4.515   5.669  13.782 -0.1153  0.3222  1.0686
 8837TIP3   OH247925   5.766   0.448  16.905  0.0620  0.2599 -0.1678
 8837TIP3    H147926   5.756   0.354  16.888 -1.9992  0.5567 -0.9274
 8837TIP3    H247927   5.811   0.482  16.828  0.2227 -0.0216 -0.1957
 8838TIP3   OH247928   6.009   3.930   3.038  0.6878 -0.1975  0.2979
 8838TIP3    H147929   5.917   3.956   3.041  1.2932  2.2262 -0.4418
 8838TIP3    H247930   6.034   3.919   3.130 -0.0093  0.3770  0.5654
 8839TIP3   OH247931   0.528   0.577  14.602  0.0497 -0.0192  0.5252
 8839TIP3    H147932   0.458   0.627  14.645 -0.3277  0.2490 -0.3855
 8839TIP3    H247933   0.513   0.590  14.509  2.4934  1.7606  0.2706
 8840TIP3   OH247934   2.388   3.633  17.243  0.3918 -0.1123 -0.2289
 8840TIP3    H147935   2.363   3.558  17.189 -1.4924 -0.5339  1.1335
 8840TIP3    H247936   2.314   3.693  17.236  0.9885  0.7086  0.3242
 8841TIP3   OH247937   4.859   0.949   3.293 -1.0019 -0.7651  0.3452
 8841TIP3    H147938   4.844   0.858   3.316 -1.2236 -0.9017 -0.3185
 8841TIP3    H247939   4.822   0.958   3.205  0.8413 -0.5734 -0.4664
 8842TIP3   OH247940   1.013   0.180  16.936 -0.2623  0.4805 -0.0165
 8842TIP3    H147941   1.050   0.093  16.928 -0.2942  0.5340 -0.8289
 8842TIP3    H247942   1.055   0.231  16.865 -0.1152  1.1655  0.5470
 8843TIP3   OH247943   4.803   6.004   2.036  0.0580  0.4887  0.1405
 8843TIP3    H147944   4.883   6.020   2.085 -0.2376  1.1516  0.4229
 8843TIP3    H247945   4.738   6.060   2.078 -0.7720 -0.6871  0.4875
 8844TIP3   OH247946   2.196   1.622  13.378 -0.1314 -0.0677 -0.1570
 8844TIP3    H147947   2.194   1.608  13.473  0.1700 -1.9415 -0.3715
 8844TIP3    H247948   2.134   1.693  13.362 -0.0032  0.4540  1.4547
 8845TIP3   OH247949   1.671   4.470  13.756  0.7401  0.6560  0.5312
 8845TIP3    H147950   1.742   4.519  13.714  0.2488  0.6766 -0.2974
 8845TIP3    H247951   1.619   4.537  13.800  1.2461  0.6364  1.1827
 8846TIP3   OH247952   1.231   5.469   3.141  0.1539  0.3094  0.3123
 8846TIP3    H147953   1.139   5.496   3.136  0.4810  1.4413  0.1475
 8846TIP3    H247954   1.239   5.399   3.075 -0.1270  1.6422 -1.1900
 8847TIP3   OH247955   2.969   5.807   4.477  0.3779 -0.5726 -0.1292
 8847TIP3    H147956   2.879   5.834   4.496  0.3699 -0.1435 -0.7412
 8847TIP3    H247957   3.023   5.878   4.511  0.4213 -0.3296 -0.6908
 8848TIP3   OH247958   6.518   1.323  12.737  0.0039  0.0971 -0.0433
 8848TIP3    H147959   6.585   1.369  12.688 -0.3584 -0.1490 -0.7844
 8848TIP3    H247960   6.565   1.280  12.808  0.4045  1.2508  0.4228
 8849TIP3   OH247961   5.462   2.078  12.627  0.0174  0.1387  0.9976
 8849TIP3    H147962   5.379   2.049  12.665  0.7732 -2.4543  0.9021
 8849TIP3    H247963   5.436   2.139  12.557 -1.9074 -1.3183  0.3292
 8850TIP3   OH247964   5.344   4.399  13.880  0.4440 -0.0799 -0.0616
 8850TIP3    H147965   5.290   4.453  13.937 -1.4016 -2.1786  0.2990
 8850TIP3    H247966   5.328   4.432  13.792  1.9917  2.0671  0.3692
 8851TIP3   OH247967   0.212   5.338  10.718 -0.5676  0.3874  0.1502
 8851TIP3    H147968   0.138   5.286  10.749 -0.2055  0.0307  0.4229
 8851TIP3    H247969   0.213   5.415  10.775 -1.0638  0.6655 -0.2115
 8852TIP3   OH247970   0.529   5.168  16.537  0.2753 -0.9358 -0.1694
 8852TIP3    H147971   0.452   5.121  16.569 -0.5698  0.0771 -0.6913
 8852TIP3    H247972   0.496   5.229  16.472  1.5785 -0.7606 -0.7068
 8853TIP3   OH247973   6.711   4.391   1.343 -0.1272  0.0904  0.1015
 8853TIP3    H147974   6.622   4.426   1.353  0.4291  1.0229  2.3598
 8853TIP3    H247975   6.768   4.465   1.359  1.1350 -0.2847 -2.2306
 8854TIP3   OH247976   4.290   4.699  16.174  0.2464 -0.0891  0.0248
 8854TIP3    H147977   4.345   4.621  16.175  0.5868  0.1401 -0.4747
 8854TIP3    H247978   4.322   4.751  16.249  1.7846  0.7553 -1.1454
 8855TIP3   OH247979   0.991   4.972   1.958  0.5953  0.0827 -0.6242
 8855TIP3    H147980   0.924   4.949   2.022  0.1820 -0.5914 -1.2932
 8855TIP3    H247981   1.074   4.957   2.005  0.2986 -0.0980 -0.1458
 8856TIP3   OH247982   5.091   6.723   3.639 -0.1897  0.0481  0.2361
 8856TIP3    H147983   5.172   6.696   3.681  0.6346  1.1902 -0.5637
 8856TIP3    H247984   5.090   6.676   3.555 -0.3004  0.1237  0.1949
 8857TIP3   OH247985   2.061   2.984  15.442  0.5188  0.5510  0.8578
 8857TIP3    H147986   2.035   2.900  15.404  1.4943  0.0195  1.3232
 8857TIP3    H247987   2.069   2.966  15.536 -1.9656  1.8661  1.4005
 8858TIP3   OH247988   1.695   3.519  13.134  0.1240 -0.4920 -0.6064
 8858TIP3    H147989   1.710   3.611  13.110  2.3454 -1.3655 -3.0565
 8858TIP3    H247990   1.628   3.489  13.072  0.3003 -0.8258 -0.6345
 8859TIP3   OH247991   6.566   6.127  11.038 -0.3380  0.0107  0.8127
 8859TIP3    H147992   6.557   6.105  10.946 -1.4019 -0.0488  0.9100
 8859TIP3    H247993   6.655   6.161  11.047 -0.1312 -0.2454 -0.1737
 8860TIP3   OH247994   6.087   4.736  15.899  0.4383 -0.3152  0.0563
 8860TIP3    H147995   6.099   4.684  15.820  2.1927  0.2139 -0.0758
 8860TIP3    H247996   6.060   4.672  15.965 -2.4059 -0.5560 -1.2031
 8861TIP3   OH247997   6.332   1.089  12.075  0.0069 -0.7957  0.5290
 8861TIP3    H147998   6.384   1.011  12.091 -2.7276 -2.2596  3.2872
 8861TIP3    H247999   6.262   1.059  12.017 -0.5705 -0.1845  0.8990
 8862TIP3   OH248000   4.157   5.966  11.155  0.7666  0.5217 -0.0892
 8862TIP3    H148001   4.160   5.941  11.247 -0.2565  0.9266  0.0717
 8862TIP3    H248002   4.160   6.062  11.157 -1.0311  0.6185 -0.3485
 8863TIP3   OH248003   4.078   5.758  12.180  0.1943  0.2010  0.2173
 8863TIP3    H148004   4.139   5.790  12.247  0.3324 -0.8467  0.6090
 8863TIP3    H248005   4.057   5.836  12.127  2.1279  0.5070 -0.1444
 8864TIP3   OH248006   4.261   0.265  13.087  0.3007  0.7852  0.0827
 8864TIP3    H148007   4.199   0.290  13.018  1.9444  1.3922 -1.2320
 8864TIP3    H248008   4.305   0.347  13.110  0.4823  0.4015  1.1493
 8865TIP3   OH248009   3.430   5.011  16.577 -0.0449  0.1163  0.0183
 8865TIP3    H148010   3.449   4.919  16.591  0.9755  0.3131 -0.0424
 8865TIP3    H248011   3.392   5.041  16.660  0.0651 -0.2350  0.1966
 8866TIP3   OH248012   1.130   1.348  13.900 -0.1088 -0.0894  0.0045
 8866TIP3    H148013   1.049   1.327  13.853  0.1793  1.2348 -1.1692
 8866TIP3    H248014   1.119   1.308  13.986 -1.0584 -1.8356 -0.8578
 8867TIP3   OH248015   1.019   1.411  12.330 -0.1661 -0.1033 -0.5046
 8867TIP3    H148016   0.934   1.445  12.304 -0.7962 -1.8249 -0.8490
 8867TIP3    H248017   1.077   1.434  12.258 -0.7458 -0.4201 -1.0857
 8868TIP3   OH248018   5.212   3.238   0.857 -0.4133  0.3471 -0.1662
 8868TIP3    H148019   5.256   3.308   0.906  1.8317 -0.6573 -0.6073
 8868TIP3    H248020   5.208   3.271   0.768 -0.5443  0.4384 -0.1265
 8869TIP3   OH248021   0.547   3.092   0.816  0.3273  0.2822 -0.2447
 8869TIP3    H148022   0.560   3.126   0.904  2.2955 -2.3099  0.5897
 8869TIP3    H248023   0.459   3.053   0.818  0.4075  0.1255  0.6186
 8870TIP3   OH248024   1.426   1.882  11.317  0.2932  0.0634  0.5641
 8870TIP3    H148025   1.464   1.810  11.367 -0.0423 -0.3318  0.2639
 8870TIP3    H248026   1.501   1.925  11.276  0.3708 -1.5098 -1.0834
 8871TIP3   OH248027   5.479   0.039  11.383 -0.4032  0.2655 -0.6415
 8871TIP3    H148028   5.472   0.093  11.305  1.1941  0.2192 -0.8588
 8871TIP3    H248029   5.499   0.101  11.454 -1.0539  0.2247 -0.4203
 8872TIP3   OH248030   3.874   6.765  16.450  0.4710 -1.0705  0.1873
 8872TIP3    H148031   3.923   6.778  16.531 -1.8987  1.9830  1.3196
 8872TIP3    H248032   3.800   6.710  16.475 -0.2977 -0.0720  0.1577
 8873TIP3   OH248033   3.133   4.539   3.618  0.0416 -0.0129  0.1905
 8873TIP3    H148034   3.062   4.493   3.574 -0.7270  0.6338  0.7413
 8873TIP3    H248035   3.185   4.469   3.658  0.1091 -0.5307 -0.7499
 8874TIP3   OH248036   2.103   2.102   5.626 -0.4600 -0.4417  0.9335
 8874TIP3    H148037   2.063   2.075   5.709 -0.2227  0.3946  1.3294
 8874TIP3    H248038   2.062   2.046   5.560 -1.9089  0.0644  1.3849
 8875TIP3   OH248039   5.977   5.107   4.979  0.2731 -0.0246 -0.0023
 8875TIP3    H148040   5.904   5.049   4.957  0.1972  0.0020  0.1756
 8875TIP3    H248041   5.942   5.165   5.046 -0.0415  1.1129 -1.1314
 8876TIP3   OH248042   5.504   5.945   4.765 -0.2144  0.0532 -0.1971
 8876TIP3    H148043   5.507   6.027   4.813  0.5286 -0.0648 -0.0336
 8876TIP3    H248044   5.411   5.933   4.744 -0.3110  1.0099 -0.3634
 8877TIP3   OH248045   4.168   4.109  15.534 -0.3592  0.2887 -0.2426
 8877TIP3    H148046   4.138   4.187  15.487  0.4864  0.1947 -0.9779
 8877TIP3    H248047   4.139   4.035  15.480 -2.0275  0.0131  0.9576
 8878TIP3   OH248048   1.490   5.900  14.799  0.5353  0.2262 -0.0413
 8878TIP3    H148049   1.403   5.898  14.759  0.4070 -1.8241  0.2660
 8878TIP3    H248050   1.550   5.886  14.725  0.6638  1.8593 -0.2887
 8879TIP3   OH248051   3.104   1.985  17.243  0.5279  0.1235  0.3043
 8879TIP3    H148052   3.095   1.890  17.238  0.1363  0.0568  1.8431
 8879TIP3    H248053   3.199   2.000  17.242  0.5908 -0.2629 -0.0267
 8880TIP3   OH248054   2.770   0.702  11.509 -0.1827 -0.1002 -0.1649
 8880TIP3    H148055   2.705   0.766  11.537 -1.5530 -2.2162  1.9749
 8880TIP3    H248056   2.724   0.649  11.443  0.1352 -0.2437 -0.2733
 8881TIP3   OH248057   5.430   1.437  10.752  0.0424  1.2187  0.2607
 8881TIP3    H148058   5.501   1.480  10.703 -0.6240  2.4862  0.3588
 8881TIP3    H248059   5.472   1.364  10.796  0.8710  0.6391 -1.3927
 8882TIP3   OH248060   1.814   4.097  13.475  0.2001 -0.7543  0.2127
 8882TIP3    H148061   1.800   4.155  13.400  1.6930  0.1340  0.5775
 8882TIP3    H248062   1.886   4.040  13.448  1.3087  0.1189  1.2287
 8883TIP3   OH248063   5.652   5.275   4.724  0.4023 -0.1716 -0.2316
 8883TIP3    H148064   5.649   5.283   4.819 -1.0482  1.2846 -0.3580
 8883TIP3    H248065   5.741   5.304   4.701 -0.2164  2.6220  0.5013
 8884TIP3   OH248066   5.543   5.809   2.027  0.3381  0.3532  0.1541
 8884TIP3    H148067   5.593   5.883   1.994  3.7894 -2.4042 -1.3953
 8884TIP3    H248068   5.532   5.827   2.121  0.9345  2.7915 -0.1823
 8885TIP3   OH248069   1.056   5.248  14.883 -0.5430  0.2111 -0.2768
 8885TIP3    H148070   1.051   5.321  14.945  0.1753  0.0038  0.0376
 8885TIP3    H248071   1.115   5.185  14.925  0.0488  0.1141 -1.2276
 8886TIP3   OH248072   3.797   5.814   3.738  0.2947 -0.3757  0.3349
 8886TIP3    H148073   3.885   5.835   3.770  1.7231 -0.9897 -2.8297
 8886TIP3    H248074   3.763   5.898   3.706  0.9652 -0.6059 -1.0587
 8887TIP3   OH248075   6.159   0.610  10.730 -0.1637  0.0130  0.4259
 8887TIP3    H148076   6.213   0.576  10.801  1.3671  2.6834  0.6859
 8887TIP3    H248077   6.207   0.589  10.650 -0.0873  0.0717  0.4562
 8888TIP3   OH248078   1.609   3.670   4.334  0.4838 -0.4496  0.4242
 8888TIP3    H148079   1.546   3.734   4.301 -0.2547 -1.1497  0.4503
 8888TIP3    H248080   1.646   3.711   4.412  1.0639  0.5376 -0.3482
 8889TIP3   OH248081   1.917   1.360   5.348  0.7792  0.1838 -0.1532
 8889TIP3    H148082   1.962   1.404   5.277 -0.9324 -0.8073 -1.9386
 8889TIP3    H248083   1.909   1.426   5.417  2.0935  1.2881 -1.0252
 8890TIP3   OH248084   4.442   4.529   2.421 -0.3661  0.6470 -0.1278
 8890TIP3    H148085   4.436   4.479   2.502 -1.9016  2.6443  1.1032
 8890TIP3    H248086   4.377   4.489   2.364 -0.6655  0.4369  0.3523
 8891TIP3   OH248087   3.198   5.157  13.095  0.0425 -0.1041 -0.1755
 8891TIP3    H148088   3.120   5.132  13.145 -0.4206 -1.5464 -1.5191
 8891TIP3    H248089   3.204   5.090  13.026  1.0843  1.3595 -1.5769
 8892TIP3   OH248090   4.479   1.141  15.712 -0.7816  0.1608 -0.0942
 8892TIP3    H148091   4.462   1.222  15.761 -1.6668 -1.0245  1.6708
 8892TIP3    H248092   4.425   1.075  15.755 -0.1753 -1.3682 -1.5603
 8893TIP3   OH248093   4.672   0.338  16.600  0.5821  0.2158 -0.6037
 8893TIP3    H148094   4.752   0.295  16.569  2.0935  2.5710 -0.1912
 8893TIP3    H248095   4.694   0.431  16.602 -1.7010  0.7927  0.9683
 8894TIP3   OH248096   2.440   4.396  13.882  0.3567 -0.5605  0.1026
 8894TIP3    H148097   2.405   4.392  13.971 -0.8620 -2.4700 -0.4045
 8894TIP3    H248098   2.506   4.327  13.878  0.2926 -0.5985 -0.5165
 8895TIP3   OH248099   4.077   2.502  12.542  0.0794  0.6672 -0.1879
 8895TIP3    H148100   4.065   2.441  12.615  1.9919  1.1949  0.6308
 8895TIP3    H248101   4.140   2.566  12.575  0.8566  1.0207 -2.2454
 8896TIP3   OH248102   0.635   0.301  14.224 -0.3842  0.5727  0.0853
 8896TIP3    H148103   0.691   0.375  14.199 -0.9601  0.6936 -0.9146
 8896TIP3    H248104   0.554   0.315  14.176 -0.8797 -0.1755  0.6830
 8897TIP3   OH248105   4.672   3.348   6.646 -0.0886  0.2995 -0.1058
 8897TIP3    H148106   4.706   3.263   6.674  2.8313  1.0492 -0.9611
 8897TIP3    H248107   4.667   3.343   6.551  0.2184  1.0820 -0.1747
 8898TIP3   OH248108   4.477   0.264  16.332  0.2281  0.1028  0.3787
 8898TIP3    H148109   4.394   0.312  16.328  0.5524  0.6059 -0.3008
 8898TIP3    H248110   4.542   0.330  16.353  0.0535 -0.7519  4.7735
 8899TIP3   OH248111   5.327   3.144  13.873 -0.5142  0.0362  0.4154
 8899TIP3    H148112   5.395   3.210  13.858 -3.1343  2.6239 -1.0241
 8899TIP3    H248113   5.329   3.090  13.794  1.3718 -1.5114  1.4276
 8900TIP3   OH248114   4.797   5.946   6.437 -0.1018  0.1383  0.0383
 8900TIP3    H148115   4.752   6.006   6.497  1.1984  1.4608 -0.2537
 8900TIP3    H248116   4.776   5.979   6.350  1.2861  0.7074 -0.1036
 8901TIP3   OH248117   0.901   2.965   6.118 -0.2825  0.1608 -0.0597
 8901TIP3    H148118   0.831   2.923   6.168 -1.7382  1.4411 -0.9064
 8901TIP3    H248119   0.885   3.059   6.129  0.3879  0.4743 -1.4898
 8902TIP3   OH248120   4.231   0.752   1.166 -0.1512 -0.1954 -0.4389
 8902TIP3    H148121   4.220   0.676   1.110  1.8334 -1.0641  0.2647
 8902TIP3    H248122   4.324   0.753   1.189 -0.3009  1.8715  0.3882
 8903TIP3   OH248123   4.600   4.811  12.798 -0.2305 -0.3070 -0.3926
 8903TIP3    H148124   4.607   4.792  12.704  1.1004  0.3584 -0.4571
 8903TIP3    H248125   4.507   4.826  12.813 -0.3182  0.9839 -1.9104
 8904TIP3   OH248126   3.932   5.252  16.326 -0.1312  0.3147  0.3712
 8904TIP3    H148127   3.840   5.249  16.298 -0.1701  1.9135  0.2093
 8904TIP3    H248128   3.973   5.177  16.284 -1.3602 -0.4129  0.4282
 8905TIP3   OH248129   4.394   6.075   2.288 -0.6376  0.0187  0.1008
 8905TIP3    H148130   4.458   6.005   2.275  0.1905  0.4887  1.3613
 8905TIP3    H248131   4.367   6.101   2.200  2.1040  0.8600 -0.5942
 8906TIP3   OH248132   0.187   3.400  12.149  0.2941 -0.1876 -0.3422
 8906TIP3    H148133   0.092   3.389  12.147  0.1523  0.8957 -0.6742
 8906TIP3    H248134   0.217   3.362  12.067 -0.0304  0.7650 -0.9177
 8907TIP3   OH248135   3.212   5.605   2.710  0.1326  0.0292  0.4258
 8907TIP3    H148136   3.130   5.651   2.724  0.5552  1.4091 -1.3726
 8907TIP3    H248137   3.187   5.513   2.699 -0.9993  0.2155  1.3168
 8908TIP3   OH248138   1.593   2.430  17.264  0.0042  0.3355 -0.2054
 8908TIP3    H148139   1.520   2.476  17.222  0.5184 -0.6094 -2.2460
 8908TIP3    H248140   1.624   2.368  17.198  0.4481 -1.7447  1.8239
 8909TIP3   OH248141   3.268   0.585   5.857 -0.0386  0.3157  0.1023
 8909TIP3    H148142   3.330   0.519   5.886 -2.3462 -1.8971  0.3511
 8909TIP3    H248143   3.284   0.660   5.914  0.8988 -1.0059  1.6740
 8910TIP3   OH248144   5.785   3.815  16.822 -0.0078  0.1559 -0.0450
 8910TIP3    H148145   5.773   3.910  16.818 -0.1934  0.1132 -0.5374
 8910TIP3    H248146   5.696   3.780  16.827  0.0309 -0.0230 -0.5872
 8911TIP3   OH248147   2.493   0.439   1.357  0.6551  0.0207 -0.1982
 8911TIP3    H148148   2.508   0.354   1.317 -2.4668  0.3470 -2.4351
 8911TIP3    H248149   2.576   0.486   1.347  2.0304 -2.2651 -0.0852
 8912TIP3   OH248150   0.410   3.716  17.163 -0.0865 -0.1431 -0.2362
 8912TIP3    H148151   0.316   3.721  17.175 -0.0407  0.6603 -0.1202
 8912TIP3    H248152   0.445   3.780  17.226  0.4258  0.8524 -1.4886
 8913TIP3   OH248153   0.820   3.128  15.017  0.0333 -0.0721 -0.1990
 8913TIP3    H148154   0.893   3.070  14.994  1.3057  1.2069  0.4613
 8913TIP3    H248155   0.843   3.162  15.103 -2.0573 -0.6912  0.6791
 8914TIP3   OH248156   6.512   2.010  13.968  0.0028 -0.6164  0.0377
 8914TIP3    H148157   6.472   1.924  13.954 -0.4407 -1.0871  3.3694
 8914TIP3    H248158   6.604   1.997  13.946 -0.4899 -1.1937 -1.9047
 8915TIP3   OH248159   1.603   5.905  12.651  0.0576 -0.2705  0.5793
 8915TIP3    H148160   1.602   5.814  12.623  1.1025 -0.7271  1.9218
 8915TIP3    H248161   1.559   5.905  12.736 -0.5260  0.5924  0.2887
 8916TIP3   OH248162   4.303   6.462  14.925 -0.0277  0.0643 -0.4952
 8916TIP3    H148163   4.291   6.381  14.876  0.9332 -0.2141 -0.2816
 8916TIP3    H248164   4.333   6.525  14.859  1.6681 -0.4173 -0.2132
 8917TIP3   OH248165   4.978   6.403  14.124  0.4363 -0.0910 -0.1137
 8917TIP3    H148166   4.982   6.398  14.028 -2.0874  0.1722 -0.3018
 8917TIP3    H248167   4.938   6.320  14.150 -0.5111  0.5524  0.5379
 8918TIP3   OH248168   4.330   2.242   5.774  0.3448 -0.4898 -0.3224
 8918TIP3    H148169   4.398   2.211   5.714 -0.5631 -0.4154 -1.4425
 8918TIP3    H248170   4.248   2.216   5.731 -0.3580  0.5617  0.3478
 8919TIP3   OH248171   5.090   5.236   1.318 -0.0559 -0.1977  0.0084
 8919TIP3    H148172   5.125   5.286   1.245 -0.4130 -0.9513 -0.6981
 8919TIP3    H248173   5.063   5.153   1.279 -0.6138 -0.4617  0.9286
 8920TIP3   OH248174   0.486   3.470  14.043  0.0786 -0.2891  0.0876
 8920TIP3    H148175   0.431   3.529  13.991  1.0612 -1.0543 -1.9053
 8920TIP3    H248176   0.556   3.444  13.984  1.3837 -1.0592  1.8934
 8921TIP3   OH248177   5.033   3.767   5.063  0.5244  0.2423  0.7192
 8921TIP3    H148178   5.063   3.686   5.022 -0.6192  0.3013 -0.3002
 8921TIP3    H248179   5.104   3.792   5.122  1.3307 -0.9576  0.2967
 8922TIP3   OH248180   2.580   2.694  16.074  0.5128  0.3683  0.0238
 8922TIP3    H148181   2.562   2.606  16.040 -0.6699  1.0926 -1.3263
 8922TIP3    H248182   2.672   2.710  16.051  0.2385  0.1558 -1.3369
 8923TIP3   OH248183   2.820   3.406   3.818 -0.2108 -0.0952 -0.2340
 8923TIP3    H148184   2.824   3.460   3.738 -0.8344 -0.2676 -0.3844
 8923TIP3    H248185   2.772   3.328   3.791 -0.2665 -0.2324  0.2692
 8924TIP3   OH248186   0.197   1.497   2.787 -0.1981  0.1382 -0.1389
 8924TIP3    H148187   0.171   1.426   2.845  0.0787  0.5981  0.5542
 8924TIP3    H248188   0.259   1.456   2.725 -0.5175 -0.3564 -0.1361
 8925TIP3   OH248189   3.044   0.637   3.259  0.1537 -0.6733 -0.3552
 8925TIP3    H148190   3.064   0.546   3.281  0.3880 -0.2935  1.0983
 8925TIP3    H248191   2.979   0.664   3.324  1.5711  0.7870  0.5552
 8926TIP3   OH248192   5.526   0.773   2.964  1.3885 -0.0917 -0.0865
 8926TIP3    H148193   5.550   0.685   2.994 -0.2559 -0.3862  0.4778
 8926TIP3    H248194   5.576   0.786   2.884  2.6879 -0.9939  0.5539
 8927TIP3   OH248195   0.993   6.266  16.660  0.2142 -0.0736 -0.6863
 8927TIP3    H148196   1.038   6.195  16.614  1.9373  1.0518 -0.8157
 8927TIP3    H248197   0.962   6.324  16.589 -1.5862 -0.8791 -0.6067
 8928TIP3   OH248198   5.344   3.739  13.473  0.1353 -0.2635 -0.3972
 8928TIP3    H148199   5.314   3.817  13.520  1.4000  0.1563 -0.2278
 8928TIP3    H248200   5.315   3.666  13.527  1.9244  0.2212  1.3574
 8929TIP3   OH248201   2.178   1.821  12.158  0.3778 -0.9536  0.5111
 8929TIP3    H148202   2.206   1.802  12.248  0.1501 -1.7824  0.4127
 8929TIP3    H248203   2.094   1.865  12.167  0.6868 -0.3897  0.7237
 8930TIP3   OH248204   1.872   6.327   1.381  0.2767 -0.1133 -1.0155
 8930TIP3    H148205   1.811   6.399   1.400  1.9736  0.5172  3.2446
 8930TIP3    H248206   1.852   6.261   1.446  0.9776 -2.1231 -2.7317
 8931TIP3   OH248207   1.070   0.450  13.694  0.3299 -0.9417 -0.8376
 8931TIP3    H148208   1.077   0.354  13.689  0.6040 -0.9136 -1.0300
 8931TIP3    H248209   1.143   0.476  13.750 -0.2906 -0.9166 -0.0251
 8932TIP3   OH248210   1.991   1.265   4.406 -0.2703 -0.1202  0.9081
 8932TIP3    H148211   2.066   1.324   4.399 -0.9945  0.7804  0.6168
 8932TIP3    H248212   1.920   1.311   4.362 -0.5254 -1.7923 -0.5415
 8933TIP3   OH248213   4.996   4.291  16.408  0.1107 -0.2525  0.9862
 8933TIP3    H148214   5.042   4.282  16.492 -0.6161 -0.1914  1.4080
 8933TIP3    H248215   5.003   4.205  16.367  2.4207  0.3316  0.0487
 8934TIP3   OH248216   2.908   4.312  12.764  0.6911  0.1545  0.3373
 8934TIP3    H148217   2.978   4.314  12.699 -1.1983 -1.4197 -1.9187
 8934TIP3    H248218   2.870   4.224  12.757 -3.5695  1.8246 -0.9866
 8935TIP3   OH248219   0.946   0.982   2.954  0.6447 -0.3799  0.1657
 8935TIP3    H148220   0.973   1.055   3.010  0.7094  0.5070 -0.9935
 8935TIP3    H248221   1.000   0.909   2.983  0.5310 -0.0061  1.3978
 8936TIP3   OH248222   3.395   1.263  11.732  0.6290  0.1145  0.3687
 8936TIP3    H148223   3.477   1.308  11.754  1.1089 -0.7835  0.4485
 8936TIP3    H248224   3.420   1.171  11.722 -0.3983 -0.1944  0.5476
 8937TIP3   OH248225   4.525   1.447  14.725  0.3265 -0.2499  0.0872
 8937TIP3    H148226   4.545   1.382  14.657  0.4734  1.5387 -1.6847
 8937TIP3    H248227   4.609   1.487  14.745  0.1271 -0.0877  0.6014
 8938TIP3   OH248228   2.390   0.513  15.333 -0.3226  0.3581  0.2118
 8938TIP3    H148229   2.417   0.427  15.300 -0.6810  0.0579  0.6948
 8938TIP3    H248230   2.460   0.572  15.304  0.4782 -0.2779  0.7904
 8939TIP3   OH248231   1.446   3.930   2.926  0.1017 -0.4678 -0.2626
 8939TIP3    H148232   1.485   4.001   2.875 -2.0357  0.1935 -1.0880
 8939TIP3    H248233   1.454   3.958   3.017 -1.0532  1.0800 -0.5906
 8940TIP3   OH248234   5.848   6.039   0.101 -0.1982 -0.0724 -0.4397
 8940TIP3    H148235   5.913   5.981   0.061 -1.2895 -1.6652  0.0060
 8940TIP3    H248236   5.897   6.085   0.169  0.7158 -0.4776 -0.8060
 8941TIP3   OH248237   1.355   5.262   5.850  0.4665 -0.6690  0.2782
 8941TIP3    H148238   1.370   5.352   5.876  1.4414 -0.0326 -2.1910
 8941TIP3    H248239   1.322   5.268   5.760 -1.7329 -2.6985  0.8409
 8942TIP3   OH248240   3.186   6.606   6.802 -0.3817 -0.4780  0.3516
 8942TIP3    H148241   3.153   6.585   6.715 -2.5889 -0.0209  1.0366
 8942TIP3    H248242   3.223   6.523   6.833  1.8789 -0.2917 -1.5488
 8943TIP3   OH248243   2.262   2.717  14.868  0.4974  0.5111  0.0326
 8943TIP3    H148244   2.270   2.759  14.954  0.9026  0.1471  0.1797
 8943TIP3    H248245   2.319   2.767  14.811  0.9663  0.1839  0.2040
 8944TIP3   OH248246   6.544   3.458   0.334 -0.2077  0.0554  0.5923
 8944TIP3    H148247   6.557   3.368   0.361  0.5404  0.5167  1.8578
 8944TIP3    H248248   6.629   3.487   0.302 -0.6151  0.1084 -0.4672
 8945TIP3   OH248249   5.615   1.547   1.601 -0.3357 -0.6303  0.1045
 8945TIP3    H148250   5.524   1.517   1.600  0.0722 -1.8963 -0.8151
 8945TIP3    H248251   5.652   1.510   1.681 -0.6018 -0.1592  0.4513
 8946TIP3   OH248252   2.124   2.291   5.883 -0.2952  0.2651 -0.3561
 8946TIP3    H148253   2.203   2.255   5.923  0.1074  0.2259 -1.1727
 8946TIP3    H248254   2.052   2.245   5.926  0.1791 -0.8862 -0.7608
 8947TIP3   OH248255   0.702   3.868  13.234 -0.0439  0.6216 -0.7667
 8947TIP3    H148256   0.697   3.962  13.215  0.3848  0.6128 -0.9363
 8947TIP3    H248257   0.794   3.847  13.222 -0.5062 -0.3576 -3.3470
 8948TIP3   OH248258   4.973   4.766   5.524  0.4029  0.1486 -0.1502
 8948TIP3    H148259   4.951   4.680   5.490 -1.3571  0.3509  0.3988
 8948TIP3    H248260   5.047   4.795   5.469  0.5241 -1.3603 -0.8358
 8949TIP3   OH248261   1.028   0.247  16.293 -0.3773 -0.4099  0.3834
 8949TIP3    H148262   0.943   0.278  16.261  1.1550  2.7583 -1.0173
 8949TIP3    H248263   1.013   0.229  16.386 -2.5214  0.3382  0.2434
 8950TIP3   OH248264   1.301   3.948  16.639  0.0682 -0.0406 -0.4799
 8950TIP3    H148265   1.308   3.853  16.650 -2.9380 -0.4349 -1.2155
 8950TIP3    H248266   1.304   3.982  16.729  0.7333 -0.8273 -0.1862
 8951TIP3   OH248267   2.810   3.754   1.425 -0.1108  0.3926  0.0885
 8951TIP3    H148268   2.865   3.824   1.461  0.8477  0.0241 -0.6321
 8951TIP3    H248269   2.726   3.764   1.470  0.9911  0.0256  2.3706
 8952TIP3   OH248270   1.561   6.070  13.132 -0.4012 -0.1926 -0.3129
 8952TIP3    H148271   1.554   6.020  13.213 -1.6287 -0.3081 -0.4760
 8952TIP3    H248272   1.512   6.151  13.148  2.7778  1.7536  0.4760
 8953TIP3   OH248273   4.514   6.326  15.041  0.4860  0.1000 -0.0554
 8953TIP3    H148274   4.456   6.396  15.012 -1.3980 -1.3216  0.0573
 8953TIP3    H248275   4.473   6.246  15.009  1.9962 -1.0522  0.7155
 8954TIP3   OH248276   3.320   4.893   3.114  0.1077 -0.0230  0.3129
 8954TIP3    H148277   3.362   4.839   3.181  1.0094  0.8281  0.4605
 8954TIP3    H248278   3.288   4.830   3.049 -1.1496 -0.8962  1.7137
 8955TIP3   OH248279   5.616   5.130   0.662 -0.1197 -0.4963  0.8383
 8955TIP3    H148280   5.651   5.204   0.712 -0.0081 -0.0945  0.1806
 8955TIP3    H248281   5.534   5.108   0.706  0.5523 -0.9256  1.9116
 8956TIP3   OH248282   5.967   1.887  12.498  0.1549  0.5982 -0.4280
 8956TIP3    H148283   5.916   1.827  12.443 -0.2588  0.7210 -0.1812
 8956TIP3    H248284   5.980   1.839  12.580  0.8062  0.3984 -0.6407
 8957TIP3   OH248285   0.153   4.546  12.115  0.2284 -0.1322  0.4036
 8957TIP3    H148286   0.096   4.622  12.128 -1.2707 -1.1577  0.0911
 8957TIP3    H248287   0.229   4.581  12.068  0.7558  1.6099  2.3896
 8958TIP3   OH248288   1.519   6.217   3.833 -0.1009  0.6722  0.1474
 8958TIP3    H148289   1.489   6.195   3.745 -1.7684  0.7612  0.6693
 8958TIP3    H248290   1.574   6.143   3.858 -1.5773 -0.5422 -0.0522
 8959TIP3   OH248291   2.145   5.003   1.708 -0.2672  0.7220  0.2526
 8959TIP3    H148292   2.092   4.940   1.758  0.4113  0.4859  0.6907
 8959TIP3    H248293   2.179   4.952   1.634  0.3839  0.5193  0.6749
 8960TIP3   OH248294   0.489   3.193  13.280 -0.3834  0.2312  0.4161
 8960TIP3    H148295   0.413   3.251  13.270 -0.6145 -0.1526 -0.0975
 8960TIP3    H248296   0.559   3.251  13.310  0.0149  1.2549 -2.1935
 8961TIP3   OH248297   0.233   2.751  15.294  0.0581  0.1982  0.3397
 8961TIP3    H148298   0.138   2.763  15.296  0.1336  1.4831 -1.2608
 8961TIP3    H248299   0.268   2.839  15.282  1.3649 -0.3918 -0.4093
 8962TIP3   OH248300   0.235   2.939   3.097  0.7536 -0.2857 -0.0519
 8962TIP3    H148301   0.145   2.941   3.130  0.3260 -2.9868 -0.7799
 8962TIP3    H248302   0.263   3.031   3.097 -2.6637  0.9077 -1.6623
 8963TIP3   OH248303   3.917   3.951   5.821 -0.0935  0.0989  0.0233
 8963TIP3    H148304   3.946   3.912   5.904  1.3603  0.3091 -0.3559
 8963TIP3    H248305   3.822   3.941   5.822 -0.0118 -0.8474  1.2433
 8964TIP3   OH248306   2.815   0.709   4.670 -0.2071  0.6239  0.0275
 8964TIP3    H148307   2.830   0.636   4.610 -0.8205  0.7706 -0.3158
 8964TIP3    H248308   2.760   0.672   4.739 -0.1912  0.6607  0.0598
 8965TIP3   OH248309   4.538   4.639  16.644  0.4578  0.0809  0.3146
 8965TIP3    H148310   4.556   4.623  16.551  0.7144  2.1378 -0.0353
 8965TIP3    H248311   4.443   4.625  16.652 -0.0070  2.0874 -0.8352
 8966TIP3   OH248312   5.873   2.450   3.884 -0.4068  0.3391 -0.2727
 8966TIP3    H148313   5.796   2.444   3.940  0.4735  0.3556  0.9680
 8966TIP3    H248314   5.890   2.359   3.858  0.0800  0.1379  0.7346
 8967TIP3   OH248315   2.051   4.430  12.104  0.1429  0.0344 -0.1396
 8967TIP3    H148316   2.023   4.489  12.174  0.3513 -0.9197  0.7608
 8967TIP3    H248317   2.010   4.466  12.025  1.7679  2.5097  0.0130
 8968TIP3   OH248318   5.134   4.634   1.256 -0.1732 -0.4385  0.2055
 8968TIP3    H148319   5.167   4.590   1.178 -0.8053  0.4891 -0.6025
 8968TIP3    H248320   5.213   4.663   1.303  0.2482 -2.0897  0.5880
 8969TIP3   OH248321   6.260   3.107   5.242  0.1185  0.1322 -0.1448
 8969TIP3    H148322   6.251   3.016   5.213  1.9256 -0.2326  0.3178
 8969TIP3    H248323   6.218   3.158   5.173 -0.9761 -1.0394 -0.3863
 8970TIP3   OH248324   6.629   5.382  15.251  0.0007 -0.1592 -0.3449
 8970TIP3    H148325   6.674   5.414  15.330  1.0438 -1.0626 -0.5493
 8970TIP3    H248326   6.675   5.424  15.179 -0.5130  0.1326 -0.5085
 8971TIP3   OH248327   4.536   3.635   0.501  0.2776 -0.6842 -0.0789
 8971TIP3    H148328   4.530   3.702   0.433 -0.1373 -0.7739 -0.1334
 8971TIP3    H248329   4.621   3.650   0.543 -0.3503  0.7089  0.7612
 8972TIP3   OH248330   3.002   3.497  17.199  0.0416 -1.0075 -0.2772
 8972TIP3    H148331   3.079   3.498  17.142 -0.1713 -0.4473 -0.5609
 8972TIP3    H248332   2.950   3.423  17.167  0.2911 -1.1714 -0.3114
 8973TIP3   OH248333   1.914   3.822  12.599 -0.4431 -0.3001  0.2216
 8973TIP3    H148334   1.946   3.855  12.683  0.5706 -1.0136  0.1214
 8973TIP3    H248335   1.950   3.733  12.592  0.1076  0.0183 -1.3088
 8974TIP3   OH248336   0.234   4.795  14.889 -0.7069 -0.2404 -0.7520
 8974TIP3    H148337   0.186   4.865  14.844 -1.3499 -1.6969 -2.4454
 8974TIP3    H248338   0.319   4.793  14.846  0.0870  0.8296  0.7060
 8975TIP3   OH248339   0.637   4.471   0.424 -0.5329  0.2592 -0.0973
 8975TIP3    H148340   0.576   4.427   0.365 -1.2559  1.0378  0.0542
 8975TIP3    H248341   0.671   4.401   0.480 -0.1929 -0.4092 -1.1159
 8976TIP3   OH248342   2.113   0.949   1.652  0.0747 -0.5692 -0.3182
 8976TIP3    H148343   2.134   1.001   1.730 -1.0905  0.6595 -0.7935
 8976TIP3    H248344   2.198   0.923   1.617  0.6516  0.1156  0.5323
 8977TIP3   OH248345   5.937   1.726   3.490 -0.0460 -0.2056 -0.2451
 8977TIP3    H148346   5.997   1.671   3.541  0.9330  1.3566  0.3722
 8977TIP3    H248347   5.969   1.720   3.400  1.1490  0.6836  0.0933
 8978TIP3   OH248348   4.778   2.447   1.650  0.2196  0.2762 -0.8070
 8978TIP3    H148349   4.700   2.391   1.662  0.0159  0.6621 -0.2807
 8978TIP3    H248350   4.765   2.488   1.565  0.3750 -0.4821 -1.2085
 8979TIP3   OH248351   0.386   1.967   0.321  0.2125 -0.6362 -0.1811
 8979TIP3    H148352   0.319   1.975   0.253  0.2444  1.3279 -0.0526
 8979TIP3    H248353   0.349   1.905   0.384 -1.2623 -0.0470 -0.4071
 8980TIP3   OH248354   5.398   0.821  15.622  0.0024 -0.3872 -0.5112
 8980TIP3    H148355   5.475   0.771  15.652  0.6094  1.5070  1.3784
 8980TIP3    H248356   5.426   0.912  15.629 -2.1023  0.3139 -0.7465
 8981TIP3   OH248357   4.219   6.257   0.393  0.8422 -0.0745 -0.6053
 8981TIP3    H148358   4.248   6.207   0.470 -0.5169  1.1372  0.7686
 8981TIP3    H248359   4.209   6.191   0.324 -1.3496 -1.8719  1.2561
 8982TIP3   OH248360   1.138   6.749  13.512  0.2860  0.1874 -0.8001
 8982TIP3    H148361   1.194   6.764  13.436 -1.0687  0.6085 -1.7513
 8982TIP3    H248362   1.087   6.671  13.490 -0.8623  0.9081 -0.8140
 8983TIP3   OH248363   4.119   4.548  13.774 -0.2491 -0.3594 -0.5518
 8983TIP3    H148364   4.155   4.555  13.862  0.0473 -1.2337 -0.5993
 8983TIP3    H248365   4.030   4.583  13.782 -0.2771 -0.5765  0.1267
 8984TIP3   OH248366   5.624   5.323   0.871 -0.6570  0.0701 -0.0483
 8984TIP3    H148367   5.637   5.298   0.962 -0.1371  1.8625  0.4070
 8984TIP3    H248368   5.538   5.365   0.869 -0.7238 -0.0782 -0.4100
 8985TIP3   OH248369   6.608   2.445   1.471  0.4194  0.3101 -0.2398
 8985TIP3    H148370   6.704   2.446   1.470  0.4249  1.8879 -0.3394
 8985TIP3    H248371   6.586   2.422   1.561  0.8836  0.2201 -0.1430
 8986TIP3   OH248372   5.257   6.136   1.249 -0.1657 -0.0765 -0.1575
 8986TIP3    H148373   5.300   6.094   1.174 -0.7857 -2.1473  0.5915
 8986TIP3    H248374   5.174   6.169   1.214  0.1836  0.2802 -0.6795
 8987TIP3   OH248375   0.283   2.128   4.365 -0.3490 -0.3705 -0.5884
 8987TIP3    H148376   0.284   2.034   4.345 -0.1559 -0.2268 -1.2488
 8987TIP3    H248377   0.334   2.168   4.295 -0.9878  0.3081 -0.6697
 8988TIP3   OH248378   4.602   4.577  16.390  0.1329  0.7901  0.2724
 8988TIP3    H148379   4.683   4.528  16.404  1.1121  2.1138 -0.4130
 8988TIP3    H248380   4.614   4.617  16.303 -0.0279  3.2366  1.3064
 8989TIP3   OH248381   0.536   6.489  11.637 -0.2094  0.6778 -0.3858
 8989TIP3    H148382   0.543   6.398  11.608 -1.3321  0.7234 -0.8707
 8989TIP3    H248383   0.626   6.516  11.658  0.2640 -0.2110 -1.2480
 8990TIP3   OH248384   0.057   2.432   2.353  0.9016  0.4417 -0.1730
 8990TIP3    H148385   0.098   2.371   2.292  1.5630  2.1630 -1.5171
 8990TIP3    H248386   0.020   2.501   2.298  1.4108  1.9967  1.3230
 8991TIP3   OH248387   1.112   5.959  15.579  0.2554 -0.3193 -0.5622
 8991TIP3    H148388   1.038   5.988  15.526  0.2071  0.8830  0.1313
 8991TIP3    H248389   1.087   5.982  15.669  1.3099 -0.2588 -0.2765
 8992TIP3   OH248390   3.593   4.813  14.440 -0.1892  0.1029  0.4616
 8992TIP3    H148391   3.626   4.724  14.453 -0.5110  0.0660  1.0465
 8992TIP3    H248392   3.521   4.804  14.378  0.9908  0.2073 -0.9873
 8993TIP3   OH248393   1.528   2.877  13.494 -0.7605  0.1726  0.2992
 8993TIP3    H148394   1.582   2.889  13.571 -0.4741  0.0257  0.1257
 8993TIP3    H248395   1.447   2.923  13.513 -0.7283  0.0555  0.7257
 8994TIP3   OH248396   3.108   6.582  14.621 -0.1483  0.6815 -0.8322
 8994TIP3    H148397   3.070   6.602  14.707 -2.1471 -0.0485 -1.4746
 8994TIP3    H248398   3.201   6.602  14.630 -0.2811  0.5068  1.5306
 8995TIP3   OH248399   3.374   2.110  15.876  0.2369 -0.5493  0.0361
 8995TIP3    H148400   3.297   2.082  15.927  1.2301 -1.2744  1.2029
 8995TIP3    H248401   3.337   2.153  15.799 -1.3546 -1.8666 -0.0029
 8996TIP3   OH248402   0.798   2.058   0.805  0.0832 -0.0918 -0.0194
 8996TIP3    H148403   0.826   2.056   0.896  1.0027 -0.9134 -0.3014
 8996TIP3    H248404   0.752   2.142   0.795 -0.8500 -0.4075  1.4141
 8997TIP3   OH248405   2.744   5.102   4.664  0.0815 -0.0321 -0.6603
 8997TIP3    H148406   2.763   5.194   4.679 -1.5064  0.1836  0.2485
 8997TIP3    H248407   2.649   5.094   4.678  0.1242 -1.7250 -1.0834
 8998TIP3   OH248408   3.811   4.764   4.336  0.1504  0.1781 -0.1617
 8998TIP3    H148409   3.790   4.855   4.317 -0.9334  0.0638  0.3913
 8998TIP3    H248410   3.862   4.768   4.417 -0.5668  0.2530  0.2952
 8999TIP3   OH248411   2.180   4.981   1.072  0.0368  0.0909  0.0292
 8999TIP3    H148412   2.111   4.941   1.124 -1.8466  1.1308 -1.5537
 8999TIP3    H248413   2.228   5.037   1.133  0.8956 -2.2336  1.6139
 9000TIP3   OH248414   5.967   2.426  11.844  0.1285 -0.4943 -0.4077
 9000TIP3    H148415   5.925   2.489  11.904  1.0131 -0.8939  0.6720
 9000TIP3    H248416   5.931   2.447  11.758 -0.1895  0.9826  0.0496
 9001TIP3   OH248417   0.561   6.157  12.684  1.0224  0.2514 -0.1225
 9001TIP3    H148418   0.627   6.096  12.718  1.1282  0.8226  0.7486
 9001TIP3    H248419   0.555   6.137  12.591  2.9992  0.7056 -0.3855
 9002TIP3   OH248420   4.055   1.008   3.720  0.0204 -1.2076  0.0723
 9002TIP3    H148421   3.998   1.085   3.709 -1.3048 -1.5578  3.3640
 9002TIP3    H248422   4.024   0.946   3.654 -0.7682  0.0452 -0.7825
 9003TIP3   OH248423   6.098   3.079  12.616  0.3354 -0.1396  0.0178
 9003TIP3    H148424   6.136   2.995  12.642 -1.7661 -0.7203  1.4733
 9003TIP3    H248425   6.004   3.070  12.635 -0.5135  1.4125 -2.7473
 9004TIP3   OH248426   4.457   6.107  10.792  0.0200 -0.2035 -0.0414
 9004TIP3    H148427   4.363   6.117  10.797  0.0681  0.2912 -0.1068
 9004TIP3    H248428   4.486   6.178  10.734  0.5828  0.4949  1.0565
 9005TIP3   OH248429   2.452   4.122  16.366 -0.2707  0.3538  0.0241
 9005TIP3    H148430   2.521   4.088  16.309 -1.4886  0.0381 -1.3338
 9005TIP3    H248431   2.437   4.211  16.333  0.1883  0.8137  1.0047
 9006TIP3   OH248432   4.947   2.767   3.912  0.5671  0.1041 -0.1442
 9006TIP3    H148433   5.021   2.722   3.873  1.2244  0.5440  0.5719
 9006TIP3    H248434   4.931   2.842   3.855  2.1562  1.3082  0.9140
 9007TIP3   OH248435   6.338   4.844  15.622 -0.2418 -0.0507  0.0275
 9007TIP3    H148436   6.331   4.826  15.716  0.3572  1.9649  0.5039
 9007TIP3    H248437   6.283   4.777  15.580  1.4415 -2.5920  1.5991
 9008TIP3   OH248438   5.043   3.219   5.422 -0.0322  0.2618  0.2751
 9008TIP3    H148439   4.956   3.206   5.460 -0.5524 -0.3907 -1.0833
 9008TIP3    H248440   5.101   3.224   5.498 -1.2270  0.5978  1.2034
 9009TIP3   OH248441   6.134   0.485   2.056  0.4326  0.1122 -0.1421
 9009TIP3    H148442   6.207   0.468   2.116  0.6144 -0.0888 -0.4171
 9009TIP3    H248443   6.122   0.403   2.009  0.0738  0.1681 -0.1453
 9010TIP3   OH248444   0.306   6.359   3.384  0.1569 -0.1512  0.2681
 9010TIP3    H148445   0.257   6.374   3.304  2.0280 -0.6949 -1.0390
 9010TIP3    H248446   0.327   6.266   3.382  1.1490  0.0440  0.8291
 9011TIP3   OH248447   0.987   0.219   3.474  0.5966 -0.3341 -0.1088
 9011TIP3    H148448   0.942   0.158   3.533  1.3011 -1.6287 -0.8555
 9011TIP3    H248449   0.928   0.294   3.469  0.2464 -0.4392  1.7503
 9012TIP3   OH248450   4.775   1.855  16.664  0.1661 -0.2902 -0.7295
 9012TIP3    H148451   4.795   1.825  16.575  0.2381 -1.6915 -0.2683
 9012TIP3    H248452   4.858   1.849  16.711  0.0666  0.1753 -0.4829
 9013TIP3   OH248453   6.044   2.718   5.186  0.3288 -0.0716  0.7414
 9013TIP3    H148454   5.964   2.712   5.133  1.0250  0.4262 -0.4016
 9013TIP3    H248455   6.056   2.629   5.220  0.0505 -0.4928 -0.2215
 9014TIP3   OH248456   5.083   0.357  14.145  0.2073 -0.2710  0.1314
 9014TIP3    H148457   5.043   0.385  14.062 -0.9885 -0.7905  0.5051
 9014TIP3    H248458   5.070   0.262  14.148 -2.1854  0.0015  2.0707
 9015TIP3   OH248459   4.155   2.379   3.490 -0.0184 -0.6615 -0.6714
 9015TIP3    H148460   4.124   2.340   3.409  0.4149 -2.8175  0.1428
 9015TIP3    H248461   4.080   2.376   3.549 -0.4000  1.1010 -1.0079
 9016TIP3   OH248462   3.623   2.172  15.369  1.0072  0.2516 -0.0138
 9016TIP3    H148463   3.575   2.254  15.376  0.6062 -0.0768  1.3799
 9016TIP3    H248464   3.702   2.186  15.422  0.1621 -0.7644  1.5959
 9017TIP3   OH248465   3.842   1.100  14.515  0.2944 -0.5389 -0.5556
 9017TIP3    H148466   3.881   1.177  14.475  0.7539  0.8484  2.3019
 9017TIP3    H248467   3.916   1.043  14.537  0.0753 -1.1318 -1.2908
 9018TIP3   OH248468   3.259   5.302  12.338  0.5154  0.1651 -0.2730
 9018TIP3    H148469   3.354   5.300  12.335  0.5030  0.7017 -2.0206
 9018TIP3    H248470   3.238   5.392  12.364  0.4590 -0.2919  1.3954
 9019TIP3   OH248471   2.459   4.336   3.677 -0.2842  0.5371  0.0210
 9019TIP3    H148472   2.554   4.344   3.687 -0.2619  3.6549 -1.4101
 9019TIP3    H248473   2.424   4.412   3.723 -2.1225 -0.5375  0.4754
 9020TIP3   OH248474   4.371   6.415  11.450 -0.1983 -0.5152 -0.2248
 9020TIP3    H148475   4.300   6.411  11.514 -0.8390  0.1258 -0.8774
 9020TIP3    H248476   4.337   6.469  11.379  0.8639 -0.3843 -0.6598
 9021TIP3   OH248477   0.910   2.405   4.724  0.3379  0.9661 -0.1651
 9021TIP3    H148478   0.966   2.332   4.696  0.8096  0.8012  1.1265
 9021TIP3    H248479   0.930   2.475   4.661  3.3029  1.4845  1.1579
 9022TIP3   OH248480   5.295   2.040   2.500 -0.6443  0.2798 -0.0310
 9022TIP3    H148481   5.293   1.988   2.420 -0.5754 -1.4496  1.0410
 9022TIP3    H248482   5.227   2.106   2.487  0.6126  1.2441 -2.2490
 9023TIP3   OH248483   4.614   3.337  16.917  0.1161  0.5234  0.2972
 9023TIP3    H148484   4.622   3.249  16.880 -0.3590  0.4994  0.2476
 9023TIP3    H248485   4.570   3.324  17.001  0.1070  0.7094  0.3220
 9024TIP3   OH248486   0.878   1.301   5.455 -0.1174  0.4354  0.2795
 9024TIP3    H148487   0.858   1.344   5.538 -2.1209  0.3270 -0.0892
 9024TIP3    H248488   0.817   1.339   5.393  0.7246 -0.1557 -0.9518
 9025TIP3   OH248489   3.041   4.900  16.472 -0.4740 -0.2094  0.5608
 9025TIP3    H148490   3.084   4.939  16.396  1.5311  0.0074  1.7477
 9025TIP3    H248491   2.947   4.911  16.454 -0.0607  0.4703 -1.5266
 9026TIP3   OH248492   5.570   3.945  15.181 -0.0729 -0.5251 -0.0032
 9026TIP3    H148493   5.578   3.850  15.171  2.1801 -0.4926  0.9896
 9026TIP3    H248494   5.571   3.979  15.092  1.4555 -1.3073 -0.3118
 9027TIP3   OH248495   3.108   2.011   1.602  0.0485 -0.1018 -1.1288
 9027TIP3    H148496   3.103   1.976   1.513  2.2699 -1.1581 -0.9063
 9027TIP3    H248497   3.184   1.968   1.640 -0.9016  0.2723  1.3414
 9028TIP3   OH248498   5.855   6.110  16.703  0.0682  0.0534  0.1749
 9028TIP3    H148499   5.907   6.188  16.721  0.2507 -0.2296  0.9053
 9028TIP3    H248500   5.813   6.089  16.786  0.2108 -0.7739  0.0508
 9029TIP3   OH248501   5.022   4.507  11.248  0.2610 -0.3431 -0.2306
 9029TIP3    H148502   5.049   4.595  11.224  1.0414 -0.1719  1.1694
 9029TIP3    H248503   5.104   4.461  11.268 -0.2647 -0.3864  2.2133
 9030TIP3   OH248504   2.441   4.735   5.106  0.3325 -0.2690 -0.2855
 9030TIP3    H148505   2.400   4.818   5.131 -2.1490 -1.3393 -0.5337
 9030TIP3    H248506   2.528   4.738   5.146  0.6389  2.7590 -0.9287
 9031TIP3   OH248507   0.116   3.777   0.417  0.0589 -0.7498 -0.0142
 9031TIP3    H148508   0.063   3.846   0.458  0.8178 -0.4260  0.4477
 9031TIP3    H248509   0.151   3.728   0.491 -1.4535 -2.4305 -0.3411
 9032TIP3   OH248510   1.275   6.005  14.413 -0.4827 -0.3746  0.3354
 9032TIP3    H148511   1.204   5.979  14.354  1.2754 -2.3699 -1.0783
 9032TIP3    H248512   1.277   5.935  14.480 -0.0537 -0.1721  0.5400
 9033TIP3   OH248513   1.571   5.165   4.210 -0.0033 -0.3298  0.3182
 9033TIP3    H148514   1.615   5.080   4.216 -0.6766 -0.5957  2.0096
 9033TIP3    H248515   1.593   5.197   4.122  2.2204 -1.1619  0.4953
 9034TIP3   OH248516   4.992   1.966   2.301 -0.3263 -0.2143  0.5146
 9034TIP3    H148517   4.903   1.952   2.334 -0.1799 -0.8187  0.6733
 9034TIP3    H248518   4.984   2.037   2.239 -0.9334 -0.2915  0.5008
 9035TIP3   OH248519   2.559   6.217  17.086 -0.0542 -1.2061  0.3254
 9035TIP3    H148520   2.478   6.235  17.037  1.3230 -1.2453 -2.1238
 9035TIP3    H248521   2.569   6.293  17.144 -0.3579  0.3023 -1.4820
 9036TIP3   OH248522   4.467   1.417   3.577  0.0486  0.3749 -0.4526
 9036TIP3    H148523   4.535   1.415   3.645 -1.5710  0.4880  1.2670
 9036TIP3    H248524   4.403   1.351   3.606  0.1402 -0.8794 -2.8644
 9037TIP3   OH248525   4.496   6.735  10.930  0.5015 -0.2045  0.4423
 9037TIP3    H148526   4.588   6.718  10.910 -0.0373 -2.1050 -0.6589
 9037TIP3    H248527   4.493   6.827  10.957  3.0950 -0.7295  2.9607
 9038TIP3   OH248528   6.768   3.709  13.716 -0.2142 -0.4134  0.4920
 9038TIP3    H148529   6.857   3.691  13.686 -0.5149 -0.4322 -0.4247
 9038TIP3    H248530   6.752   3.644  13.784 -0.0876 -1.4580 -0.4414
 9039TIP3   OH248531   0.493   6.312   2.641 -0.0996 -0.7276  0.1712
 9039TIP3    H148532   0.408   6.324   2.684  0.1133 -3.4533  1.5670
 9039TIP3    H248533   0.551   6.279   2.710  1.5396 -0.9681 -1.2294
 9040TIP3   OH248534   1.178   4.813   3.941 -0.1088 -0.1752 -0.3253
 9040TIP3    H148535   1.263   4.833   3.979  0.1694 -1.4769 -0.2043
 9040TIP3    H248536   1.191   4.819   3.847  0.1788 -0.5505 -0.3126
 9041TIP3   OH248537   6.186   0.168  16.674  0.2533 -0.2038  0.2845
 9041TIP3    H148538   6.260   0.116  16.706  0.5432  0.0409  0.0030
 9041TIP3    H248539   6.184   0.244  16.732  0.3728 -0.0899  0.1409
 9042TIP3   OH248540   2.100   5.680   1.796 -0.6726 -0.1726  0.6549
 9042TIP3    H148541   2.050   5.631   1.731 -0.0086  1.0778 -0.8903
 9042TIP3    H248542   2.119   5.617   1.865  0.5844 -2.2772 -1.4513
 9043TIP3   OH248543   4.278   6.629  13.658  0.2570  0.8049 -0.0792
 9043TIP3    H148544   4.314   6.552  13.702 -0.2423  1.0972  0.8536
 9043TIP3    H248545   4.307   6.703  13.711 -0.4288  1.1577 -0.1910
 9044TIP3   OH248546   3.251   0.054   0.725 -0.1848  0.0966 -0.5322
 9044TIP3    H148547   3.317   0.008   0.674  0.5035  0.1066  0.3161
 9044TIP3    H248548   3.171   0.002   0.714  0.2247 -0.4969 -0.7453
 9045TIP3   OH248549   2.187   4.129  12.503  0.3308  0.4217  0.3817
 9045TIP3    H148550   2.111   4.126  12.445  0.6158  0.8880 -0.0230
 9045TIP3    H248551   2.187   4.044  12.547 -0.0273  0.1596 -0.1174
 9046TIP3   OH248552   1.031   3.028   3.745 -0.4558 -0.6092  0.3173
 9046TIP3    H148553   1.090   3.005   3.817 -0.2877 -2.1310 -0.2600
 9046TIP3    H248554   1.058   3.115   3.718 -1.1316  0.4245  2.6834
 9047TIP3   OH248555   6.651   2.253   5.141  0.1806  0.5295 -0.4839
 9047TIP3    H148556   6.678   2.165   5.169 -1.1685 -0.1432 -1.1881
 9047TIP3    H248557   6.729   2.290   5.101  1.5894  0.7337  2.1770
 9048TIP3   OH248558   4.703   3.464  16.258  0.1198  0.2729 -0.5557
 9048TIP3    H148559   4.740   3.457  16.170 -1.5132 -0.0626 -1.2421
 9048TIP3    H248560   4.774   3.436  16.316  0.0677 -3.2561 -1.9885
 9049TIP3   OH248561   6.053   2.847   4.560  0.6017  0.2376  0.3585
 9049TIP3    H148562   6.008   2.789   4.498  0.2726  0.6827  0.1751
 9049TIP3    H248563   5.991   2.855   4.633  1.0227 -0.3544  0.7935
 9050TIP3   OH248564   1.435   0.578   4.306  0.1714  0.7744  0.2518
 9050TIP3    H148565   1.423   0.671   4.327  0.9528  1.3399 -1.6368
 9050TIP3    H248566   1.378   0.563   4.230 -2.7038 -1.2484  2.5699
 9051TIP3   OH248567   4.251   3.566  14.537 -0.0855 -0.0207 -0.5517
 9051TIP3    H148568   4.201   3.576  14.456 -0.5172  1.6483 -0.1148
 9051TIP3    H248569   4.206   3.623  14.600  0.7102 -0.6704  0.6444
 9052TIP3   OH248570   0.554   0.869   1.019  0.0049  0.2249  0.0793
 9052TIP3    H148571   0.552   0.793   0.962  3.1808 -0.5567  0.7696
 9052TIP3    H248572   0.573   0.942   0.961  0.0899 -0.0570 -0.2491
 9053TIP3   OH248573   0.517   6.611  16.508  0.4522  0.1908 -0.1998
 9053TIP3    H148574   0.433   6.567  16.512  1.0999 -1.6292 -3.3906
 9053TIP3    H248575   0.509   6.674  16.437  1.6283  0.3791 -0.2007
 9054TIP3   OH248576   0.804   1.889  14.942 -0.6408  0.0681 -1.3114
 9054TIP3    H148577   0.785   1.808  14.988 -1.6458  1.9509  1.9583
 9054TIP3    H248578   0.899   1.893  14.937 -0.5673 -0.8986 -0.7031
 9055TIP3   OH248579   4.361   0.824  17.153 -0.1415  0.1718  0.2489
 9055TIP3    H148580   4.321   0.739  17.138  0.1222  0.0015  0.5034
 9055TIP3    H248581   4.446   0.819  17.109 -0.3927  0.5304 -0.2871
 9056TIP3   OH248582   1.023   3.524  10.858 -0.5180 -0.0656  0.0625
 9056TIP3    H148583   0.944   3.577  10.844  0.6676  1.5250 -0.9055
 9056TIP3    H248584   0.993   3.434  10.848 -2.0274  0.5393 -1.3175
 9057TIP3   OH248585   2.539   0.064   1.548 -0.1692  0.7566 -0.0210
 9057TIP3    H148586   2.599   0.068   1.474 -1.0109  0.4884 -0.7472
 9057TIP3    H248587   2.489  -0.017   1.534 -0.6510  0.9416  0.5796
 9058TIP3   OH248588   6.175   0.968  16.406  0.2015  0.3717 -0.1157
 9058TIP3    H148589   6.162   1.011  16.490  0.4065 -0.5951  0.4250
 9058TIP3    H248590   6.170   1.039  16.341  2.7964  1.5978  0.8825
 9059TIP3   OH248591   0.255   5.880   1.783 -0.0354  0.6036  1.0637
 9059TIP3    H148592   0.339   5.836   1.772 -0.6627 -0.2866 -0.5985
 9059TIP3    H248593   0.276   5.963   1.827  1.2697 -0.9502  3.5569
 9060TIP3   OH248594   1.892   5.801   5.280 -0.0691  0.1218 -0.1883
 9060TIP3    H148595   1.905   5.798   5.375 -1.0027  2.4532  0.0873
 9060TIP3    H248596   1.797   5.802   5.269  0.0176  1.6617 -1.0178
 9061TIP3   OH248597   0.406   0.032  17.102  0.1932  0.4817  0.1441
 9061TIP3    H148598   0.456  -0.034  17.054 -0.9401  0.3127 -0.8530
 9061TIP3    H248599   0.447   0.115  17.077  1.2669  0.2091  0.9607
 9062TIP3   OH248600   0.749   1.896  14.679  0.4116  0.0884  0.6158
 9062TIP3    H148601   0.786   1.910  14.766  1.7445  0.5864 -0.0033
 9062TIP3    H248602   0.825   1.879  14.623 -0.4957 -1.4557 -0.2382
 9063TIP3   OH248603   0.980   6.486   0.558  0.0851 -0.0938  0.2681
 9063TIP3    H148604   0.939   6.561   0.601 -1.1471  0.6767 -2.0671
 9063TIP3    H248605   1.072   6.510   0.551 -0.2978  1.2766 -0.4847
 9064TIP3   OH248606   3.502   2.357  14.927  0.6078  0.0387 -0.4694
 9064TIP3    H148607   3.588   2.371  14.887  0.3753  1.4325 -0.5501
 9064TIP3    H248608   3.470   2.276  14.888  2.5318 -1.3830  0.7281
 9065TIP3   OH248609   0.173   5.476   1.141 -0.4325 -0.9852 -0.3461
 9065TIP3    H148610   0.247   5.534   1.124 -0.1127 -1.2363  0.1859
 9065TIP3    H248611   0.123   5.477   1.059 -1.4204  1.4813  0.1920
 9066TIP3   OH248612   3.599   6.501   0.395 -0.1859  0.4032 -0.5683
 9066TIP3    H148613   3.570   6.561   0.326 -0.2948 -0.3396 -1.1794
 9066TIP3    H248614   3.694   6.496   0.385 -0.1365  0.7433 -0.2894
 9067TIP3   OH248615   0.402   6.381  15.665 -0.2336 -0.0182 -0.5273
 9067TIP3    H148616   0.408   6.334  15.582  0.3818  0.0462 -0.5228
 9067TIP3    H248617   0.336   6.448  15.649 -0.8638 -0.6513 -0.6427
 9068TIP3   OH248618   6.073   6.679  16.703  0.1698  0.9129 -0.1182
 9068TIP3    H148619   6.086   6.771  16.677  0.1318  0.9786  0.0897
 9068TIP3    H248620   5.987   6.678  16.744  0.0833  0.7411 -0.3099
 9069TIP3   OH248621   0.487   0.431   0.173  0.1914 -0.0171 -0.4078
 9069TIP3    H148622   0.460   0.374   0.101  1.5491 -0.7523 -0.3525
 9069TIP3    H248623   0.466   0.381   0.252 -0.5536  0.4552 -0.2934
 9070TIP3   OH248624   0.329   1.306  12.615  0.6482  0.5472  0.0657
 9070TIP3    H148625   0.378   1.377  12.655  0.0776  1.1970 -0.3550
 9070TIP3    H248626   0.328   1.327  12.521 -1.7628  1.4611  0.2020
 9071TIP3   OH248627   3.366   5.174   3.166  0.1179  0.3890 -0.0952
 9071TIP3    H148628   3.434   5.168   3.233  0.0199  0.4817  0.0129
 9071TIP3    H248629   3.345   5.083   3.146 -0.9152  0.3362  1.0871
 9072TIP3   OH248630   6.672   5.091   1.605 -0.3264 -0.2125 -0.1167
 9072TIP3    H148631   6.623   5.053   1.678  0.8170  1.4479  1.6097
 9072TIP3    H248632   6.651   5.184   1.608 -0.7685 -0.1850 -2.3880
 9073TIP3   OH248633   6.298   2.852  15.251  0.1789  0.1119  0.1093
 9073TIP3    H148634   6.292   2.823  15.160 -0.0666 -0.1359  0.2023
 9073TIP3    H248635   6.273   2.945  15.249 -0.9046 -0.1739  0.0766
 9074TIP3   OH248636   5.622   0.115   1.483  0.2509  0.3252  0.7457
 9074TIP3    H148637   5.543   0.167   1.468  2.4557  3.3903 -1.3059
 9074TIP3    H248638   5.662   0.106   1.397  2.4389 -0.6944  1.7884
 9075TIP3   OH248639   5.836   2.142   1.579 -0.1194  0.0387  0.4264
 9075TIP3    H148640   5.828   2.049   1.555  0.3991 -0.1511  0.9683
 9075TIP3    H248641   5.926   2.151   1.611 -0.2942  0.6404  0.7617
 9076TIP3   OH248642   1.282   1.558  16.817  0.0358 -0.2052 -0.6296
 9076TIP3    H148643   1.364   1.565  16.769  0.5187  0.2193  0.2417
 9076TIP3    H248644   1.291   1.619  16.889 -1.2879  0.2941 -0.8563
 9077TIP3   OH248645   0.809   6.297   3.078 -0.4622 -0.3744  0.4000
 9077TIP3    H148646   0.797   6.277   3.171  0.8292 -1.6069  0.3382
 9077TIP3    H248647   0.890   6.349   3.076  0.0187 -1.1274 -0.1032
 9078TIP3   OH248648   2.949   5.894  11.808  0.3872 -0.0626  0.0228
 9078TIP3    H148649   2.933   5.806  11.772 -3.5656 -0.3535  1.8674
 9078TIP3    H248650   2.909   5.953  11.744 -0.2330  0.0147  0.4661
 9079TIP3   OH248651   5.226   6.169   3.312  0.3151 -0.5413  0.6265
 9079TIP3    H148652   5.222   6.079   3.280  0.6396 -0.3571  0.0540
 9079TIP3    H248653   5.162   6.172   3.383 -1.3437 -0.6639 -0.7712
 9080TIP3   OH248654   0.019   3.630   1.004 -0.4103 -0.4782 -0.0263
 9080TIP3    H148655   0.013   3.686   0.926  1.6642 -0.9352 -0.5754
 9080TIP3    H248656   0.110   3.639   1.033  0.1717 -3.8691 -0.4047
 9081TIP3   OH248657   3.351   6.425   2.454  0.0082 -0.5419 -0.6058
 9081TIP3    H148658   3.308   6.458   2.375 -0.7352 -1.8614 -0.7932
 9081TIP3    H248659   3.423   6.371   2.421  0.5834  0.0543 -0.3373
 9082TIP3   OH248660   0.174   4.735  17.155 -0.6051  0.1483 -0.2046
 9082TIP3    H148661   0.185   4.661  17.096 -1.5624  1.1625 -1.7533
 9082TIP3    H248662   0.246   4.795  17.132 -0.7619  0.3866 -0.0849
 9083TIP3   OH248663   4.167   5.167   5.696 -0.0803 -0.5042 -0.1946
 9083TIP3    H148664   4.170   5.122   5.612 -1.3683 -3.0733  1.0471
 9083TIP3    H248665   4.117   5.109   5.754  1.3426  0.8047  2.5680
 9084TIP3   OH248666   4.580   2.142  11.619 -0.8970 -0.7313 -0.6554
 9084TIP3    H148667   4.674   2.151  11.635 -1.2332  0.7856  0.7985
 9084TIP3    H248668   4.573   2.133  11.524  0.7408 -1.3840 -0.7441
 9085TIP3   OH248669   1.789   4.682  16.240 -0.1250  0.2374  0.4311
 9085TIP3    H148670   1.844   4.741  16.292  1.3448  0.2155 -0.9874
 9085TIP3    H248671   1.739   4.739  16.183 -0.8660  0.2149  1.0508
 9086TIP3   OH248672   3.324   0.598  12.232 -0.5263  0.1378 -0.2292
 9086TIP3    H148673   3.313   0.689  12.202 -0.3009 -0.0906 -1.0318
 9086TIP3    H248674   3.419   0.584  12.229 -0.4442  0.2954  1.1874
 9087TIP3   OH248675   3.118   0.790   0.510  0.4540 -0.2725  0.0592
 9087TIP3    H148676   3.142   0.719   0.569 -0.7144 -1.8909 -1.3055
 9087TIP3    H248677   3.189   0.794   0.446  0.1939 -0.7248 -0.2685
 9088TIP3   OH248678   6.597   0.112  11.171 -0.0144  0.1929  0.5237
 9088TIP3    H148679   6.648   0.064  11.106  0.6903  0.2360  1.0337
 9088TIP3    H248680   6.514   0.065  11.176  0.1036 -0.0857 -0.0660
 9089TIP3   OH248681   4.267   6.771   6.152 -0.3968 -0.0029 -0.3810
 9089TIP3    H148682   4.208   6.834   6.194 -1.6410 -1.0146 -0.5613
 9089TIP3    H248683   4.355   6.805   6.170 -1.0205  2.0335 -0.8730
 9090TIP3   OH248684   2.877   2.207  11.817  0.1152 -0.1374  0.1087
 9090TIP3    H148685   2.820   2.160  11.876 -0.5862  0.8131  0.2100
 9090TIP3    H248686   2.889   2.148  11.743 -0.8138 -0.4443  0.1920
 9091TIP3   OH248687   5.704   4.104  11.309 -0.1237 -0.3479  0.2436
 9091TIP3    H148688   5.784   4.107  11.361  0.1434  0.9385 -0.1942
 9091TIP3    H248689   5.727   4.053  11.232  0.8812  1.5302 -0.7719
 9092TIP3   OH248690   6.288   1.204   0.307  0.7616 -0.2392 -0.5381
 9092TIP3    H148691   6.236   1.156   0.243  1.3960  2.2287 -3.0973
 9092TIP3    H248692   6.226   1.264   0.348  0.8673  0.1750 -0.9685
 9093TIP3   OH248693   0.149   4.392  15.751  0.3090  0.0041  0.1136
 9093TIP3    H148694   0.083   4.456  15.721 -0.4151 -0.0563  1.5234
 9093TIP3    H248695   0.187   4.359  15.670 -0.6240  0.8533 -0.7102
 9094TIP3   OH248696   0.924   2.968  15.527  0.2806 -0.1918  0.0487
 9094TIP3    H148697   0.848   2.961  15.585  0.9225  0.2239  0.9688
 9094TIP3    H248698   0.907   2.905  15.457 -0.7772 -0.2990  0.3877
 9095TIP3   OH248699   1.412   0.487  16.848  0.4910  0.0114  0.2245
 9095TIP3    H148700   1.505   0.500  16.830  0.4440  1.3835  0.8336
 9095TIP3    H248701   1.382   0.572  16.880 -0.5968 -0.8556  1.6235
 9096TIP3   OH248702   1.208   1.491   2.596 -0.4174 -0.6566  0.0014
 9096TIP3    H148703   1.173   1.522   2.679 -0.1389 -1.4655  0.4309
 9096TIP3    H248704   1.142   1.429   2.565 -0.3129 -0.6810 -0.1700
 9097TIP3   OH248705   4.287   3.326  14.248 -0.1130 -0.1750 -0.0601
 9097TIP3    H148706   4.237   3.249  14.222 -1.4645  0.7828 -0.4377
 9097TIP3    H248707   4.226   3.378  14.300  0.8306  0.5419  0.3690
 9098TIP3   OH248708   3.953   1.338  10.808 -0.3451 -0.1868 -0.8970
 9098TIP3    H148709   3.964   1.370  10.898  0.0405 -0.7922 -0.7189
 9098TIP3    H248710   3.998   1.403  10.754 -1.2902  0.6116 -0.7331
 9099TIP3   OH248711   4.070   3.198  12.295  0.0100  0.3753  0.3216
 9099TIP3    H148712   4.144   3.138  12.309  1.4382  1.5662 -1.7115
 9099TIP3    H248713   4.105   3.284  12.315 -0.1664  1.1963 -2.5294
 9100TIP3   OH248714   0.871   2.506   3.136 -0.1830 -0.4581 -0.4027
 9100TIP3    H148715   0.811   2.512   3.210  0.1143  0.4293 -0.2100
 9100TIP3    H248716   0.831   2.561   3.068  0.5225  0.3718 -0.1742
 9101TIP3   OH248717   4.803   3.149  15.695  0.0953  0.0250 -1.0495
 9101TIP3    H148718   4.708   3.153  15.689  0.0956  0.2079 -0.9403
 9101TIP3    H248719   4.827   3.223  15.751  0.2189 -0.6507 -0.1740
 9102TIP3   OH248720   6.321   6.296   4.345  0.1677  0.1080 -0.5476
 9102TIP3    H148721   6.268   6.263   4.272  1.1639  0.7961 -1.6111
 9102TIP3    H248722   6.285   6.383   4.364 -0.5449 -0.3483  0.2806
 9103TIP3   OH248723   3.366   0.434   4.345  0.1902 -0.1862  0.3142
 9103TIP3    H148724   3.345   0.343   4.322  0.9790 -0.3915  0.3638
 9103TIP3    H248725   3.401   0.428   4.434 -3.3272  0.6589  1.9010
 9104TIP3   OH248726   1.278   0.800   6.254  0.6390 -0.4767  0.3374
 9104TIP3    H148727   1.227   0.867   6.300  1.6009  0.1009  0.5936
 9104TIP3    H248728   1.349   0.780   6.315  0.0677 -2.1410  0.4972
 9105TIP3   OH248729   4.770   0.507  13.616  0.5804 -0.3062 -0.0650
 9105TIP3    H148730   4.726   0.422  13.613  0.8480 -0.4521  0.1097
 9105TIP3    H248731   4.716   0.560  13.674 -0.6387  0.2484 -1.6607
 9106TIP3   OH248732   4.527   5.371  11.621  0.2470 -0.5004  0.6993
 9106TIP3    H148733   4.595   5.378  11.555 -1.6666  0.4424 -1.2839
 9106TIP3    H248734   4.530   5.454  11.668  0.1434 -0.2595  0.2812
 9107TIP3   OH248735   2.231   2.051   5.003  0.2194 -0.1370  0.5602
 9107TIP3    H148736   2.182   2.084   4.928  1.2677  0.5418  0.1520
 9107TIP3    H248737   2.275   2.128   5.040 -0.7996 -0.3379  2.3042
 9108TIP3   OH248738   2.895   0.050   1.051  0.4324 -0.0677  0.1049
 9108TIP3    H148739   2.884   0.071   0.958 -1.8579  2.3513  0.7801
 9108TIP3    H248740   2.986   0.070   1.070 -0.0139  3.4348 -0.8265
 9109TIP3   OH248741   5.408   1.520  14.115  0.8198 -0.1948  0.3415
 9109TIP3    H148742   5.501   1.519  14.140  0.9059  1.5269  0.2006
 9109TIP3    H248743   5.398   1.445  14.056  2.3416  0.1159 -0.3642
 9110TIP3   OH248744   2.653   5.595  14.346 -0.3457  0.2319 -0.1888
 9110TIP3    H148745   2.618   5.577  14.433  0.3238  0.5279  0.1486
 9110TIP3    H248746   2.748   5.606  14.360 -0.3948  1.5801 -0.7329
 9111TIP3   OH248747   6.389   6.147   1.338 -0.1857 -0.5270 -0.1245
 9111TIP3    H148748   6.312   6.090   1.338 -1.2441  0.8609  0.3887
 9111TIP3    H248749   6.390   6.186   1.425 -0.6866  1.7971 -1.1009
 9112TIP3   OH248750   3.789   4.201  15.541  0.1640  0.2950 -0.2806
 9112TIP3    H148751   3.705   4.211  15.498 -0.0313  3.2973  0.5298
 9112TIP3    H248752   3.851   4.187  15.470 -0.6884  0.8299 -1.1515
 9113TIP3   OH248753   2.484   1.474   2.288  0.1240 -0.1099  0.1680
 9113TIP3    H148754   2.459   1.511   2.373  1.0348 -0.5262  0.6417
 9113TIP3    H248755   2.413   1.498   2.229 -1.0965 -0.7761  1.3041
 9114TIP3   OH248756   6.483   5.373  10.748 -0.8687 -0.0123 -0.7525
 9114TIP3    H148757   6.406   5.430  10.750 -0.0722  1.0829  1.2698
 9114TIP3    H248758   6.465   5.306  10.814  0.3237  0.9207  0.5903
 9115TIP3   OH248759   2.220   4.258  13.493  0.7356  0.0609 -0.3270
 9115TIP3    H148760   2.195   4.205  13.417  0.8615  1.2718 -1.2563
 9115TIP3    H248761   2.314   4.273  13.481  0.6076  0.8878 -0.3568
 9116TIP3   OH248762   1.020   0.164  13.253 -0.2069 -0.1181 -0.3596
 9116TIP3    H148763   1.057   0.249  13.277  0.7144 -0.3131 -1.0192
 9116TIP3    H248764   1.089   0.101  13.277 -0.6700 -0.6278 -0.3506
 9117TIP3   OH248765   6.116   2.689  15.754 -0.3737  0.1340 -0.0088
 9117TIP3    H148766   6.064   2.749  15.808  0.0654  1.1121 -0.6510
 9117TIP3    H248767   6.202   2.688  15.797 -0.6810 -0.9197  0.6340
 9118TIP3   OH248768   5.419   3.225  12.339 -0.2039  0.5343  0.0654
 9118TIP3    H148769   5.432   3.159  12.270 -0.5122 -0.1219  0.6158
 9118TIP3    H248770   5.460   3.304  12.305 -0.9779  0.4223 -1.1701
 9119TIP3   OH248771   2.660   3.507  12.076  0.0298 -0.3314  0.7946
 9119TIP3    H148772   2.736   3.554  12.041 -0.1400 -0.3452  0.4055
 9119TIP3    H248773   2.633   3.559  12.152  0.0360  0.0259  0.5532
 9120TIP3   OH248774   3.212   5.555   4.665  0.0616 -0.5029 -0.4229
 9120TIP3    H148775   3.188   5.569   4.573  0.0031 -0.2264 -0.3655
 9120TIP3    H248776   3.221   5.460   4.673 -3.2606 -0.8913  0.1153
 9121TIP3   OH248777   3.810   0.261  15.910  0.3409 -0.1627  0.0610
 9121TIP3    H148778   3.780   0.308  15.988 -0.6573 -2.0562  0.8954
 9121TIP3    H248779   3.731   0.251  15.857  1.0671  1.3514 -1.3811
 9122TIP3   OH248780   1.812   2.958   5.759 -0.7023 -0.1298 -0.5795
 9122TIP3    H148781   1.797   2.897   5.687  0.0349 -1.6676  0.5320
 9122TIP3    H248782   1.884   3.014   5.729 -1.0111 -0.1540 -1.3861
 9123TIP3   OH248783   4.863   3.059  17.047 -0.5146  0.5204 -0.0273
 9123TIP3    H148784   4.940   3.009  17.073 -0.5693  0.6069  0.3151
 9123TIP3    H248785   4.789   3.006  17.075 -0.5878  0.2457 -0.7231
 9124TIP3   OH248786   0.787   6.556   2.771 -0.1411  0.2361 -0.1805
 9124TIP3    H148787   0.733   6.538   2.848 -0.1141  1.1385  0.0580
 9124TIP3    H248788   0.733   6.527   2.697 -0.6949  0.5559  0.0917
 9125TIP3   OH248789   0.024   3.558  14.720  0.7342  0.1418  0.2952
 9125TIP3    H148790  -0.007   3.611  14.646  1.6316  1.6141  0.9297
 9125TIP3    H248791   0.039   3.472  14.683  0.1586  0.5672 -1.0004
 9126TIP3   OH248792   5.028   4.899   5.216 -0.6350 -0.0962 -0.2745
 9126TIP3    H148793   4.984   4.816   5.197 -0.2534 -0.6156  1.0140
 9126TIP3    H248794   4.992   4.927   5.300  1.0947 -0.2868  0.5717
 9127TIP3   OH248795   5.723   0.179   3.100  0.4876 -0.3608  0.2265
 9127TIP3    H148796   5.765   0.232   3.167  0.7479 -0.6599  0.2997
 9127TIP3    H248797   5.724   0.090   3.135 -1.7370 -0.1388  1.0067
 9128TIP3   OH248798   0.633   5.882  16.618  0.5136  0.2253 -0.6431
 9128TIP3    H148799   0.690   5.944  16.664  1.6390 -0.2671 -1.3231
 9128TIP3    H248800   0.687   5.850  16.546 -0.4906 -0.6007 -1.0455
 9129TIP3   OH248801   1.057   2.060   3.632 -0.0804  0.1419  0.4027
 9129TIP3    H148802   0.967   2.068   3.601 -0.4939  0.2484  1.5650
 9129TIP3    H248803   1.089   2.150   3.637  0.3938  0.0606 -0.8007
 9130TIP3   OH248804   5.638   5.627   4.859 -0.1878  0.3117 -0.1675
 9130TIP3    H148805   5.564   5.621   4.798  0.1974  0.6337 -0.6703
 9130TIP3    H248806   5.635   5.717   4.891  0.4105  0.5348 -0.7303
 9131TIP3   OH248807   0.665   4.249   4.519 -0.1728 -0.4789  0.3024
 9131TIP3    H148808   0.701   4.331   4.553 -1.3928  0.6629 -1.0083
 9131TIP3    H248809   0.621   4.210   4.595 -0.5323  0.6491  0.7068
 9132TIP3   OH248810   6.195   4.092   3.421 -0.2178 -0.3807  0.5315
 9132TIP3    H148811   6.279   4.104   3.376 -1.0100  0.2225 -0.8453
 9132TIP3    H248812   6.217   4.099   3.514  1.2390 -0.0983  0.1981
 9133TIP3   OH248813   1.193   6.100  12.798 -0.7255 -0.5727  0.3272
 9133TIP3    H148814   1.262   6.160  12.825  0.0114 -0.5058 -1.5598
 9133TIP3    H248815   1.223   6.014  12.827 -0.5436 -0.3665  0.7595
 9134TIP3   OH248816   6.195   0.193  13.288 -0.2288 -0.5131  0.6237
 9134TIP3    H148817   6.181   0.105  13.324  2.5153 -1.5661 -0.5627
 9134TIP3    H248818   6.266   0.229  13.342  0.0946  0.1183 -0.2148
 9135TIP3   OH248819   5.436   0.007   4.956  0.4178 -0.2443  0.2201
 9135TIP3    H148820   5.497  -0.013   5.026 -0.4330 -2.8421  0.3083
 9135TIP3    H248821   5.425  -0.075   4.908 -3.2539 -0.0916  0.4571
 9136TIP3   OH248822   6.608   2.351  13.337  0.2788  0.0233  0.4258
 9136TIP3    H148823   6.616   2.259  13.362 -0.7650 -0.3994 -0.6646
 9136TIP3    H248824   6.653   2.357  13.253  0.4708  0.5502  0.5611
 9137TIP3   OH248825   5.610   0.066   2.840  0.6532  0.1991 -0.1311
 9137TIP3    H148826   5.635  -0.018   2.801  1.1585 -0.0760  0.7614
 9137TIP3    H248827   5.618   0.052   2.934  0.9233  1.3099  0.0222
 9138TIP3   OH248828   5.567   4.214  10.996  0.0525 -0.3018 -0.0088
 9138TIP3    H148829   5.504   4.212  11.068  1.3451 -2.7486  1.2026
 9138TIP3    H248830   5.554   4.130  10.951  1.0686  0.0505 -1.0036
 9139TIP3   OH248831   3.891   3.375  12.419  0.2220  0.2938 -0.0802
 9139TIP3    H148832   3.947   3.414  12.486  2.2916  0.1787 -1.6357
 9139TIP3    H248833   3.890   3.439  12.348 -1.2168  0.0432 -0.3223
 9140TIP3   OH248834   2.668   4.151  12.639 -0.6026  1.2552 -0.1927
 9140TIP3    H148835   2.691   4.097  12.714  2.0203  0.2009 -1.6072
 9140TIP3    H248836   2.627   4.229  12.676 -1.8256 -0.3644  2.1004
 9141TIP3   OH248837   4.126   1.206   5.151 -0.1556  0.5712 -0.5514
 9141TIP3    H148838   4.158   1.178   5.237  0.8919 -0.2584 -1.1906
 9141TIP3    H248839   4.090   1.293   5.166  1.6641  1.2140  0.3858
 9142TIP3   OH248840   5.210   3.717  15.961 -0.1613 -0.1513  0.1023
 9142TIP3    H148841   5.206   3.697  16.054 -1.0654  0.5859  0.2271
 9142TIP3    H248842   5.120   3.738  15.936  0.5612  3.1574 -0.1427
 9143TIP3   OH248843   2.415   2.195   5.561 -0.3397  1.0451  0.3713
 9143TIP3    H148844   2.425   2.213   5.654  0.5614 -1.3806  0.8260
 9143TIP3    H248845   2.498   2.154   5.535 -1.0046  0.6213 -1.2122
 9144TIP3   OH248846   2.949   1.880  11.462  0.0806 -0.2912 -0.0520
 9144TIP3    H148847   2.971   1.793  11.429 -0.3907 -1.2616  2.0214
 9144TIP3    H248848   3.027   1.907  11.511  0.4425  0.7391 -1.1492
 9145TIP3   OH248849   5.339   5.194   0.746  0.6280  0.4868 -0.1602
 9145TIP3    H148850   5.348   5.155   0.833  0.8601  1.9403  0.4992
 9145TIP3    H248851   5.258   5.156   0.711  0.3727  0.1148  0.8108
 9146TIP3   OH248852   0.664   4.956  15.029  0.7706  0.8411  0.3133
 9146TIP3    H148853   0.583   4.978  15.075 -0.0623  0.7762 -1.0609
 9146TIP3    H248854   0.647   4.870  14.990  0.3041  2.1021 -2.5143
 9147TIP3   OH248855   0.759   1.854   0.569 -0.4403 -0.1263 -0.6260
 9147TIP3    H148856   0.794   1.943   0.567  1.2225 -0.5864  2.4074
 9147TIP3    H248857   0.682   1.860   0.626 -0.9959 -0.4644 -1.3263
 9148TIP3   OH248858   1.218   4.004  15.586  0.0405 -0.1222 -0.0739
 9148TIP3    H148859   1.248   3.969  15.502 -2.6759 -1.8614 -0.4641
 9148TIP3    H248860   1.266   3.954  15.652  1.5247  0.6249 -0.5436
 9149TIP3   OH248861   3.665   4.448  15.530  0.0505 -0.3982 -0.3701
 9149TIP3    H148862   3.724   4.459  15.456 -1.2706 -0.6859 -1.5147
 9149TIP3    H248863   3.595   4.513  15.515 -0.8015 -1.2009  0.0130
 9150TIP3   OH248864   0.063   3.897  14.624  1.0132  0.3468  0.0823
 9150TIP3    H148865   0.080   3.972  14.680  0.3519  1.7037 -1.4424
 9150TIP3    H248866  -0.032   3.893  14.617  0.9460 -1.5769  1.2958
 9151TIP3   OH248867   4.312   6.485   4.708 -0.0562 -0.0703  0.0817
 9151TIP3    H148868   4.404   6.494   4.682 -0.3445  0.2049 -0.8880
 9151TIP3    H248869   4.314   6.487   4.804  0.8856  0.6019  0.0682
 9152TIP3   OH248870   1.955   1.580   3.328 -0.3291  0.6410 -0.7493
 9152TIP3    H148871   1.977   1.662   3.284 -0.6268  0.7864 -0.6301
 9152TIP3    H248872   1.958   1.601   3.421  2.3776 -0.1700 -0.5633
 9153TIP3   OH248873   6.314   3.532  12.863 -0.0796  0.5033  0.5104
 9153TIP3    H148874   6.389   3.551  12.806  0.1484  0.2201  0.7134
 9153TIP3    H248875   6.284   3.446  12.833  0.0865  0.3214  0.8704
 9154TIP3   OH248876   3.435   2.763   0.369  0.3101 -0.1417  0.6238
 9154TIP3    H148877   3.408   2.690   0.423  0.6528 -0.1335  0.8039
 9154TIP3    H248878   3.512   2.732   0.321  0.0053 -0.1548  0.1301
 9155TIP3   OH248879   5.584   5.842  13.522  0.0423  0.5038  0.5528
 9155TIP3    H148880   5.589   5.906  13.450  1.7089  0.2193  0.3808
 9155TIP3    H248881   5.644   5.772  13.496 -1.3732 -0.9204  0.9837
 9156TIP3   OH248882   6.349   1.938  16.011 -0.5395  0.2535  0.0519
 9156TIP3    H148883   6.301   2.013  16.045  0.5350  1.1015 -0.2361
 9156TIP3    H248884   6.313   1.925  15.923 -0.7276  0.4370  0.1005
 9157TIP3   OH248885   0.437   5.478   1.268  0.3783 -0.5595  0.7018
 9157TIP3    H148886   0.414   5.494   1.177 -1.2458  2.4081  1.5084
 9157TIP3    H248887   0.368   5.422   1.302  0.8058 -1.3885  0.2392
 9158TIP3   OH248888   5.101   5.180  15.354  0.2676  0.3972  0.0120
 9158TIP3    H148889   5.171   5.130  15.396 -1.2357 -1.3927  0.5173
 9158TIP3    H248890   5.131   5.191  15.264  1.5616  0.3837  0.4191
 9159TIP3   OH248891   3.486   4.554  13.720 -0.5160  0.1686  0.0754
 9159TIP3    H148892   3.463   4.585  13.807  0.1191 -1.4175  0.8452
 9159TIP3    H248893   3.402   4.537  13.677 -0.8668  2.1099 -0.1179
 9160TIP3   OH248894   5.621   1.321   2.130  0.0395  0.3528  0.1972
 9160TIP3    H148895   5.642   1.313   2.223  0.3827 -0.7618  0.0354
 9160TIP3    H248896   5.525   1.324   2.127  0.0246  0.2985  0.5729
 9161TIP3   OH248897   1.897   3.581  14.077  0.2976  0.6962 -0.2632
 9161TIP3    H148898   1.925   3.581  13.985 -1.3906  0.1570 -0.8161
 9161TIP3    H248899   1.875   3.672  14.095 -0.2107  0.6732 -0.7023
 9162TIP3   OH248900   5.588   4.765  14.377 -0.3269  0.0530  0.3949
 9162TIP3    H148901   5.609   4.693  14.318 -1.9806 -0.2375  0.1101
 9162TIP3    H248902   5.636   4.839  14.342  0.3966 -0.6138 -0.0625
 9163TIP3   OH248903   3.408   4.751  16.020 -0.7646  0.4454 -0.1755
 9163TIP3    H148904   3.498   4.718  16.030 -0.4189  1.3276 -0.2864
 9163TIP3    H248905   3.386   4.786  16.106 -1.4628 -0.8566  0.1949
 9164TIP3   OH248906   3.227   2.163   4.082  0.5529 -0.6971 -0.2798
 9164TIP3    H148907   3.243   2.071   4.105 -2.0475 -0.5808  2.6279
 9164TIP3    H248908   3.227   2.164   3.986  3.6888 -3.0468 -0.4643
 9165TIP3   OH248909   5.810   2.349  14.136  0.4607  0.3400 -0.2982
 9165TIP3    H148910   5.905   2.345  14.133  0.5158 -1.0878  1.4604
 9165TIP3    H248911   5.787   2.312  14.221 -1.5773  3.1113  0.5139
 9166TIP3   OH248912   6.459   4.274   5.566  0.2439 -0.2535 -0.4272
 9166TIP3    H148913   6.544   4.295   5.604 -0.0416 -1.4946  1.0057
 9166TIP3    H248914   6.472   4.281   5.472  1.1083  2.4941 -0.1745
 9167TIP3   OH248915   0.206   1.747   2.904 -0.4690 -0.4623 -0.2821
 9167TIP3    H148916   0.190   1.660   2.868  0.7247 -1.0399  0.5240
 9167TIP3    H248917   0.191   1.736   2.998 -0.7378  0.3217 -0.2259
 9168TIP3   OH248918   6.204   1.352   1.827 -0.3170  0.3818  0.3098
 9168TIP3    H148919   6.137   1.284   1.824 -1.2435  1.2242  1.3454
 9168TIP3    H248920   6.278   1.314   1.780 -0.9490 -1.1925  0.5277
 9169TIP3   OH248921   4.431   2.244  16.676  0.0849 -0.0086  0.6492
 9169TIP3    H148922   4.504   2.272  16.732 -0.2379  0.5908  0.7813
 9169TIP3    H248923   4.471   2.189  16.610  0.6256  0.1108  0.8708
 9170TIP3   OH248924   1.635   2.358  15.644 -0.3176 -0.2215 -0.4616
 9170TIP3    H148925   1.716   2.313  15.623 -0.9154 -0.6323 -2.0219
 9170TIP3    H248926   1.656   2.410  15.722  1.1200 -1.1347 -0.2014
 9171TIP3   OH248927   5.048   4.807  14.584 -0.0107  0.1745 -0.3041
 9171TIP3    H148928   5.132   4.853  14.580  1.6688 -2.4621  1.7485
 9171TIP3    H248929   4.993   4.863  14.639  0.0137  2.2949 -2.2514
 9172TIP3   OH248930   3.758   3.703  13.238  0.2716  0.0369 -0.2841
 9172TIP3    H148931   3.789   3.765  13.305 -0.6667  1.2242 -0.8952
 9172TIP3    H248932   3.676   3.742  13.207  0.4828 -0.7038 -1.8298
 9173TIP3   OH248933   5.305   2.103  12.047  0.3529 -0.2227 -0.5123
 9173TIP3    H148934   5.385   2.075  12.091 -0.0068  0.5124  0.6472
 9173TIP3    H248935   5.336   2.138  11.963  1.3134  0.4261  0.0866
 9174TIP3   OH248936   3.863   0.975   0.094 -0.3878  0.7884  0.0176
 9174TIP3    H148937   3.922   1.046   0.121  2.0677 -0.0464 -2.5826
 9174TIP3    H248938   3.800   1.017   0.035 -0.1154  1.1268 -0.0353
 9175TIP3   OH248939   3.607   2.094   0.050  0.0317  0.1002 -0.7033
 9175TIP3    H148940   3.670   2.165   0.043  2.1101 -1.5703 -0.1490
 9175TIP3    H248941   3.621   2.041  -0.028  0.1631 -0.9151 -0.0217
 9176TIP3   OH248942   1.636   3.285   1.298 -0.4650 -0.2270 -0.2631
 9176TIP3    H148943   1.629   3.194   1.269  2.2092 -0.4186 -0.5863
 9176TIP3    H248944   1.705   3.284   1.364  0.6783  1.7290 -1.3153
 9177TIP3   OH248945   3.399   5.343  16.024 -0.2292 -0.0642  0.1133
 9177TIP3    H148946   3.308   5.365  16.044  0.4959  2.9060  0.7102
 9177TIP3    H248947   3.450   5.404  16.078  2.0266  0.4041 -2.3515
 9178TIP3   OH248948   5.270   4.303   4.875  0.2267  0.2713  0.8766
 9178TIP3    H148949   5.184   4.303   4.916  0.3003 -0.2590  1.0415
 9178TIP3    H248950   5.288   4.395   4.856 -0.8461  0.2884 -0.1712
 9179TIP3   OH248951   5.589   1.200   5.478  0.4535 -0.6102 -0.5774
 9179TIP3    H148952   5.678   1.190   5.444  0.9274  0.5740  0.2228
 9179TIP3    H248953   5.558   1.283   5.441 -0.2199 -0.8693 -0.6165
 9180TIP3   OH248954   2.437   4.027  13.033 -0.2520 -0.1906  0.4141
 9180TIP3    H148955   2.394   3.979  13.104 -0.1606  0.0662  0.6489
 9180TIP3    H248956   2.434   4.119  13.061  0.4412 -0.1699  0.4326
 9181TIP3   OH248957   0.311   4.898  13.941 -0.3392 -0.3843 -0.0778
 9181TIP3    H148958   0.313   4.909  14.036  0.1163  1.0526 -0.2321
 9181TIP3    H248959   0.218   4.889  13.920 -0.3570 -2.3170  0.6320
 9182TIP3   OH248960   2.550   0.262   0.582  0.1486 -0.0700 -0.0817
 9182TIP3    H148961   2.540   0.330   0.648 -2.2744 -0.8754  0.4937
 9182TIP3    H248962   2.644   0.244   0.580  0.9026  3.2850 -0.3422
 9183TIP3   OH248963   3.534   6.012   3.034  0.1726 -0.2617  0.4948
 9183TIP3    H148964   3.536   5.920   3.059 -1.6473 -0.7916 -1.0721
 9183TIP3    H248965   3.446   6.041   3.056  0.5169  0.9294  0.3724
 9184TIP3   OH248966   3.522   1.946   5.042 -0.6625 -0.0526 -0.1480
 9184TIP3    H148967   3.578   2.007   5.090  1.3226 -2.3166  0.6177
 9184TIP3    H248968   3.572   1.923   4.964 -0.3733 -2.2042  0.6031
 9185TIP3   OH248969   6.260   2.757  12.487  0.6450  0.1304 -0.1000
 9185TIP3    H148970   6.215   2.705  12.554  0.1799 -0.1345 -0.6068
 9185TIP3    H248971   6.287   2.694  12.421  1.6853  0.3080  0.1445
 9186TIP3   OH248972   2.293   4.283  16.570  0.7456 -0.5721 -0.6105
 9186TIP3    H148973   2.219   4.326  16.526 -0.2554 -0.5906  0.9763
 9186TIP3    H248974   2.361   4.277  16.503  0.3092  1.9319 -1.3754
 9187TIP3   OH248975   6.055   4.326   3.531  0.2816  0.3627  0.1787
 9187TIP3    H148976   5.973   4.370   3.551 -0.8554 -0.5585 -2.1632
 9187TIP3    H248977   6.033   4.232   3.533  1.2760  0.1013 -0.4633
 9188TIP3   OH248978   4.442   0.037   4.794  0.2855  0.1319  0.4269
 9188TIP3    H148979   4.516   0.040   4.733  0.5988 -0.9505  0.7234
 9188TIP3    H248980   4.365   0.044   4.739  0.5532 -1.2416 -0.1787
 9189TIP3   OH248981   6.445   2.889   2.024 -0.4028 -0.3653 -0.4967
 9189TIP3    H148982   6.358   2.910   1.991 -1.3123 -2.6692  0.1739
 9189TIP3    H248983   6.500   2.884   1.946 -1.4354 -1.1772 -1.1984
 9190TIP3   OH248984   3.424   5.574  10.624 -0.5018  0.0816 -0.5948
 9190TIP3    H148985   3.437   5.576  10.718 -2.3170 -1.8516 -0.2164
 9190TIP3    H248986   3.408   5.665  10.599  0.6215  0.6976  0.8157
 9191TIP3   OH248987   4.737   1.689  14.564  0.8286  0.3652 -0.1540
 9191TIP3    H148988   4.750   1.622  14.631  0.8849  0.7762  0.2525
 9191TIP3    H248989   4.801   1.757  14.585 -1.0104  1.8282  1.1217
 9192TIP3   OH248990   3.745   2.688   4.577 -0.2741 -0.0954 -0.3271
 9192TIP3    H148991   3.727   2.659   4.667 -0.2666  0.8597 -0.0066
 9192TIP3    H248992   3.752   2.783   4.584 -1.3340  0.0914 -1.5229
 9193TIP3   OH248993   2.534   2.509  13.470  0.5977  0.2366  0.4150
 9193TIP3    H148994   2.594   2.484  13.540 -0.5877  0.9333  1.7368
 9193TIP3    H248995   2.509   2.599  13.491 -0.6161  0.0826 -0.2797
 9194TIP3   OH248996   3.969   3.617  16.653 -0.3081 -0.2696 -0.1553
 9194TIP3    H148997   3.900   3.594  16.590  1.2423 -1.2595 -1.5747
 9194TIP3    H248998   4.023   3.538  16.659  1.3529  0.8366  0.0254
 9195TIP3   OH248999   2.213   1.508  14.973  0.0357 -0.2390 -0.4705
 9195TIP3    H149000   2.136   1.551  14.936 -0.2230 -0.1984  0.0919
 9195TIP3    H249001   2.258   1.577  15.022 -0.6200 -0.6662  0.8088
 9196TIP3   OH249002   1.026   1.689   2.058  0.2634  0.0318  0.4409
 9196TIP3    H149003   1.105   1.741   2.074  0.2269  0.4805 -0.7685
 9196TIP3    H249004   0.971   1.706   2.135  1.4990 -0.6232  1.5051
 9197TIP3   OH249005   2.522   1.156   2.193  0.1691 -0.1498  0.5369
 9197TIP3    H149006   2.581   1.173   2.266 -0.4891  0.4117  0.9514
 9197TIP3    H249007   2.483   1.241   2.173 -0.2527 -0.4486  0.0538
 9198TIP3   OH249008   5.223   6.250   2.218  0.1366  0.2451 -0.3021
 9198TIP3    H149009   5.132   6.279   2.207  0.0330  0.2653  0.5257
 9198TIP3    H249010   5.267   6.325   2.258  0.6084  0.3668 -1.0440
 9199TIP3   OH249011   6.459   5.521   3.253  0.5678  0.3881 -0.1576
 9199TIP3    H149012   6.502   5.464   3.189  0.4602  0.3705 -0.2152
 9199TIP3    H249013   6.382   5.555   3.207  1.0354  1.1648 -0.3630
 9200TIP3   OH249014   4.064   2.350   1.951 -0.4968  0.0135 -0.7493
 9200TIP3    H149015   4.102   2.437   1.940  0.0734 -0.2541 -0.9460
 9200TIP3    H249016   4.133   2.299   1.994 -0.3611 -0.6724 -1.7435
 9201TIP3   OH249017   5.665   1.433   1.849  0.1592 -0.2457  0.6343
 9201TIP3    H149018   5.665   1.347   1.808 -0.3746 -0.0703  0.2528
 9201TIP3    H249019   5.678   1.416   1.942  2.3856 -0.5959  0.3030
 9202TIP3   OH249020   5.312   2.021  13.975  0.2728 -0.5095 -0.2526
 9202TIP3    H149021   5.302   1.933  14.011 -1.2919 -0.4267 -0.4185
 9202TIP3    H249022   5.284   2.013  13.884  1.5541 -0.1403 -0.6934
 9203TIP3   OH249023   3.534   6.489   5.066  0.1187 -0.5740  0.1755
 9203TIP3    H149024   3.571   6.573   5.035  0.5559 -1.5423 -2.1399
 9203TIP3    H249025   3.611   6.438   5.093 -0.0813 -0.5407  0.8303
 9204TIP3   OH249026   2.963   4.173  16.722  0.0787 -0.5726  0.0953
 9204TIP3    H149027   3.002   4.204  16.640  3.6437 -0.4801  1.6396
 9204TIP3    H249028   3.022   4.103  16.751  0.0067  0.5786  3.4099
 9205TIP3   OH249029   2.241   6.563   6.021  0.4915  0.5247  0.0423
 9205TIP3    H149030   2.332   6.536   6.034  0.3688  0.1833  0.1940
 9205TIP3    H249031   2.216   6.523   5.938  0.5279  0.7546 -0.0822
 9206TIP3   OH249032   6.135   1.198  16.658  0.0545 -0.5001 -0.2015
 9206TIP3    H149033   6.048   1.189  16.696  1.0837 -1.7138  2.1428
 9206TIP3    H249034   6.135   1.283  16.614 -1.9133  0.0798  0.8408
 9207TIP3   OH249035   0.729   3.927   3.789 -0.2032  0.3739  0.5633
 9207TIP3    H149036   0.799   3.864   3.770 -0.5736  0.1175  0.0001
 9207TIP3    H249037   0.656   3.873   3.817 -0.5313  0.5460  0.0548
 9208TIP3   OH249038   1.800   6.012  11.996 -0.0781  0.4166  0.2737
 9208TIP3    H149039   1.836   5.935  12.039 -0.5974  0.5724  0.9919
 9208TIP3    H249040   1.726   5.978  11.946  0.5554  0.2278 -0.5710
 9209TIP3   OH249041   2.006   6.172  14.985  0.2800 -0.3313 -0.7034
 9209TIP3    H149042   2.064   6.183  15.061 -0.7904 -1.9417  0.4148
 9209TIP3    H249043   2.001   6.077  14.973 -0.9881 -0.1650 -1.6690
 9210TIP3   OH249044   2.159   5.101   0.161  0.0809  0.9145 -0.1762
 9210TIP3    H149045   2.146   5.015   0.122 -3.1228  1.7620 -1.3418
 9210TIP3    H249046   2.211   5.149   0.097  0.6693  0.2732 -0.1842
 9211TIP3   OH249047   5.108   0.208   1.707  0.2706 -0.1665 -0.1166
 9211TIP3    H149048   5.045   0.151   1.663 -1.0307  0.1230  1.3125
 9211TIP3    H249049   5.192   0.162   1.697 -0.2923 -1.0153 -1.2507
 9212TIP3   OH249050   5.976   0.637   5.463  0.0546  0.1700 -0.6601
 9212TIP3    H149051   5.897   0.690   5.456  0.8742  1.5065 -0.0560
 9212TIP3    H249052   5.964   0.585   5.542  0.3897  1.4795  0.2882
 9213TIP3   OH249053   6.579   3.383  16.106  0.3948  0.5188 -0.3567
 9213TIP3    H149054   6.615   3.294  16.112 -0.1349  0.3937  1.5522
 9213TIP3    H249055   6.569   3.397  16.012  0.7652 -1.3325 -0.7312
 9214TIP3   OH249056   5.665   3.740   0.145  0.1079  0.1990 -0.0411
 9214TIP3    H149057   5.579   3.727   0.103 -0.4688 -1.1795  1.4514
 9214TIP3    H249058   5.644   3.766   0.234  1.2208 -0.7476  0.5129
 9215TIP3   OH249059   6.440   3.023  10.901  0.3255 -0.4507 -0.2964
 9215TIP3    H149060   6.384   3.075  10.843 -1.3778 -1.4727  0.3329
 9215TIP3    H249061   6.513   3.081  10.923  0.4818  0.3134 -2.5904
 9216TIP3   OH249062   0.414   1.020   0.553 -0.0438  0.1521  0.3509
 9216TIP3    H149063   0.479   0.981   0.612 -0.3488  1.0909  1.3391
 9216TIP3    H249064   0.403   0.955   0.483  1.2185 -0.4520  0.6907
 9217TIP3   OH249065   2.182   1.534   1.535 -0.7551  0.4506 -0.2108
 9217TIP3    H149066   2.149   1.456   1.579 -1.7816  1.6745  1.2786
 9217TIP3    H249067   2.132   1.539   1.454 -0.5103 -0.5442 -0.4356
 9218TIP3   OH249068   3.659   1.271  16.847  0.6460 -0.1048 -0.2741
 9218TIP3    H149069   3.736   1.322  16.871  0.5825 -0.6985  1.3145
 9218TIP3    H249070   3.691   1.182  16.836 -0.0962 -0.8050  2.5732
 9219TIP3   OH249071   4.263   5.486  12.293  0.0928 -0.0272  0.0041
 9219TIP3    H149072   4.340   5.542  12.296 -0.5438  0.9125 -0.5253
 9219TIP3    H249073   4.209   5.523  12.222 -0.3801 -1.2671 -0.3208
 9220TIP3   OH249074   4.761   1.277   2.766  0.1354  0.5013  0.8972
 9220TIP3    H149075   4.718   1.361   2.754  0.6963  0.6701 -0.0897
 9220TIP3    H249076   4.832   1.277   2.701 -0.5263 -1.1752  0.1146
 9221TIP3   OH249077   0.084   4.657   3.761  0.0818 -0.2926  0.3096
 9221TIP3    H149078   0.125   4.744   3.760  0.7692 -0.5866 -1.5039
 9221TIP3    H249079  -0.005   4.673   3.794  0.3999  0.9926  0.5921
 9222TIP3   OH249080   4.332   4.865  12.887  0.0973 -0.3071 -0.4999
 9222TIP3    H149081   4.300   4.797  12.946 -0.2576  1.4813  1.5415
 9222TIP3    H249082   4.252   4.906  12.852  0.1138  1.3827  1.2340
 9223TIP3   OH249083   0.938   0.021   3.879  0.3849  0.3135 -0.0896
 9223TIP3    H149084   0.943  -0.074   3.876  1.1579  0.2598  1.4854
 9223TIP3    H249085   1.029   0.050   3.875  0.2903  0.8644  1.1788
 9224TIP3   OH249086   4.115   1.796  15.632  0.1241  0.2173  0.1017
 9224TIP3    H149087   4.022   1.817  15.632 -0.0913 -0.6990 -1.0141
 9224TIP3    H249088   4.141   1.800  15.540  1.0057 -0.3026  0.3194
 9225TIP3   OH249089   3.644   1.981   2.554 -0.0793  0.4907  0.4508
 9225TIP3    H149090   3.730   1.943   2.574 -1.1134 -3.4054 -1.3698
 9225TIP3    H249091   3.598   1.983   2.638  0.9599  0.0865  1.0440
 9226TIP3   OH249092   2.395   1.558  15.374 -0.4049 -0.1296  0.6509
 9226TIP3    H149093   2.407   1.563  15.279 -1.7540  0.3527  0.4824
 9226TIP3    H249094   2.372   1.647  15.400 -2.8004 -0.7709  0.9836
 9227TIP3   OH249095   2.204   4.814   2.613 -0.3796 -0.0098  0.4496
 9227TIP3    H149096   2.264   4.740   2.607 -0.1345  0.0289  1.9691
 9227TIP3    H249097   2.139   4.798   2.544  0.2978 -1.0380  0.0266
 9228TIP3   OH249098   1.069   2.133  13.546  0.2999  0.4737 -0.9279
 9228TIP3    H149099   1.121   2.208  13.576 -0.2920  0.8581 -0.8366
 9228TIP3    H249100   0.981   2.151  13.578  0.1271 -0.2108 -1.0084
 9229TIP3   OH249101   4.048   1.628  16.741 -0.0847 -0.1049  0.5593
 9229TIP3    H149102   4.103   1.549  16.743 -0.0135 -0.0733  0.0404
 9229TIP3    H249103   4.086   1.681  16.671 -0.4777  0.1380  0.5301
 9230TIP3   OH249104   1.810   1.531  12.442  0.0433 -0.3383 -0.0998
 9230TIP3    H149105   1.715   1.533  12.437 -0.0538  0.6869  1.4240
 9230TIP3    H249106   1.836   1.455  12.389 -1.6370 -0.9309 -0.1209
 9231TIP3   OH249107   5.080   2.189  14.973  0.1287 -0.1484 -0.1835
 9231TIP3    H149108   5.112   2.205  14.884 -2.4732  1.0104 -0.9949
 9231TIP3    H249109   5.035   2.105  14.967  0.1217 -0.1642  0.0981
 9232TIP3   OH249110   1.039   0.832  16.797 -0.0897  0.4219 -0.2559
 9232TIP3    H149111   1.023   0.854  16.705  0.3277  2.3028  0.0812
 9232TIP3    H249112   0.953   0.843  16.839 -0.3779 -0.8631 -0.4711
 9233TIP3   OH249113   3.430   2.630  15.927 -0.1799 -0.0346 -0.4770
 9233TIP3    H149114   3.492   2.646  15.856 -1.1270  0.4576 -1.2242
 9233TIP3    H249115   3.372   2.706  15.926  1.3426  1.3164  2.5707
 9234TIP3   OH249116   3.722   5.967  14.785 -0.4102 -0.0972 -0.8779
 9234TIP3    H149117   3.755   6.039  14.731 -0.5762  2.0391  1.6927
 9234TIP3    H249118   3.688   6.010  14.864 -1.5259 -2.9362  0.3043
 9235TIP3   OH249119   4.121   6.445  11.783 -0.3407 -0.3258 -0.3363
 9235TIP3    H149120   4.203   6.397  11.796 -1.4557 -1.5607  3.5484
 9235TIP3    H249121   4.133   6.526  11.832 -1.3007 -0.3585 -0.0295
 9236TIP3   OH249122   2.328   2.932  11.287  0.1272 -0.3610  0.0769
 9236TIP3    H149123   2.348   2.860  11.227 -1.5109 -0.0476 -0.9130
 9236TIP3    H249124   2.324   2.890  11.373  2.7922 -0.7618  0.0895
 9237TIP3   OH249125   1.637   5.366  13.099 -0.0512  0.3726 -0.0875
 9237TIP3    H149126   1.640   5.280  13.140  0.7834  0.0005 -0.8781
 9237TIP3    H249127   1.678   5.425  13.162  0.1825  0.0212  0.0889
 9238TIP3   OH249128   3.786   1.620   2.322  0.3746  0.2495 -0.1283
 9238TIP3    H149129   3.865   1.567   2.336  0.3256  0.3040  0.3824
 9238TIP3    H249130   3.748   1.586   2.242  0.1712 -0.7040  0.3644
 9239TIP3   OH249131   6.081   0.927  15.044 -0.1978  0.4696  0.5865
 9239TIP3    H149132   6.004   0.870  15.054  0.2740 -0.4314 -0.7424
 9239TIP3    H249133   6.155   0.872  15.070  0.2919  0.3647 -0.9565
 9240TIP3   OH249134   1.036   4.375   1.146 -0.2781  0.5334  0.6389
 9240TIP3    H149135   1.015   4.465   1.123  2.2528  0.9523 -0.3235
 9240TIP3    H249136   1.082   4.382   1.229 -0.9132 -0.0130  1.0528
 9241TIP3   OH249137   1.269   3.357   6.472  0.4794  0.1391  0.1643
 9241TIP3    H149138   1.296   3.354   6.563  0.0951  0.2844  0.2867
 9241TIP3    H249139   1.208   3.284   6.463 -1.1844  1.3912  0.6002
 9242TIP3   OH249140   0.763   6.409   0.020 -0.3673  0.3822  0.7891
 9242TIP3    H149141   0.690   6.461   0.053 -0.4175 -0.3521  1.8937
 9242TIP3    H249142   0.830   6.416   0.088 -0.4388 -1.1041  1.0481
 9243TIP3   OH249143   4.939   4.323  15.009  0.0240  0.1158  0.5091
 9243TIP3    H149144   4.923   4.281  15.093  0.6018 -0.1194  0.5091
 9243TIP3    H249145   4.872   4.286  14.951 -0.2958  0.1837  0.8307
 9244TIP3   OH249146   2.133   2.637  16.111  0.6367 -0.1672  0.1076
 9244TIP3    H149147   2.176   2.636  16.025 -0.3049  1.4160 -0.4268
 9244TIP3    H249148   2.059   2.577  16.101 -0.0894  0.8196 -0.5492
 9245TIP3   OH249149   0.238   5.590  12.026 -0.0982 -0.5121  0.5557
 9245TIP3    H149150   0.286   5.508  12.039  1.1809  0.1973  0.4494
 9245TIP3    H249151   0.148   5.562  12.012 -0.4103 -1.7384  4.0231
 9246TIP3   OH249152   0.579   3.893  15.709 -0.2988  0.8209  0.4049
 9246TIP3    H149153   0.629   3.895  15.627 -2.2603  0.1712 -0.8922
 9246TIP3    H249154   0.581   3.802  15.737  0.6001  1.0926  1.2573
 9247TIP3   OH249155   6.664   0.833  12.434  0.8497  0.5927 -0.0260
 9247TIP3    H149156   6.675   0.872  12.347 -1.6108 -0.7973 -1.0719
 9247TIP3    H249157   6.662   0.738  12.418  1.0124  0.2660  1.6659
 9248TIP3   OH249158   5.987   6.570  15.198 -0.1085  0.4930  0.5166
 9248TIP3    H149159   5.951   6.502  15.254  1.7257 -0.4658  0.6151
 9248TIP3    H249160   6.000   6.526  15.113 -0.9021  1.3351 -0.0531
 9249TIP3   OH249161   2.630   2.243  13.866 -0.5949  0.1934  0.9104
 9249TIP3    H149162   2.661   2.160  13.901  0.9582 -0.7675 -2.3435
 9249TIP3    H249163   2.536   2.229  13.851 -0.3078 -1.0930  0.1718
 9250TIP3   OH249164   6.460   2.916   1.078  0.6400  0.0452 -0.3583
 9250TIP3    H149165   6.374   2.873   1.087  0.7829 -0.0436  0.7858
 9250TIP3    H249166   6.449   2.978   1.006 -0.4407  0.1494 -0.1193
 9251TIP3   OH249167   5.325   2.472  15.091 -0.0275  0.2174  0.2159
 9251TIP3    H149168   5.251   2.458  15.032 -0.8796  0.3314  1.2236
 9251TIP3    H249169   5.373   2.389  15.090 -0.8294 -0.2620  0.4250
 9252TIP3   OH249170   0.948   5.040  16.273  0.0636 -0.1484  0.2158
 9252TIP3    H149171   0.923   5.103  16.341  0.3944  0.0936  0.1172
 9252TIP3    H249172   1.043   5.033  16.281  0.7506  2.9373 -2.7577
 9253TIP3   OH249173   4.798   5.948   3.201  0.0695 -0.4831 -0.0828
 9253TIP3    H149174   4.711   5.983   3.221  1.1336  0.9681  2.5810
 9253TIP3    H249175   4.788   5.853   3.213 -1.2512 -0.4087 -0.3692
 9254TIP3   OH249176   3.016   3.650   3.349  0.1103 -0.1539 -0.4311
 9254TIP3    H149177   3.023   3.682   3.439  1.3864  0.8838 -0.8619
 9254TIP3    H249178   2.937   3.692   3.314 -0.5426 -0.7790  0.2767
 9255TIP3   OH249179   4.979   3.247   0.973 -0.0078 -0.3176  0.1288
 9255TIP3    H149180   4.915   3.285   0.912  1.0330  1.4030  0.0282
 9255TIP3    H249181   5.047   3.211   0.916  0.1107 -0.2806  0.2469
 9256TIP3   OH249182   3.669   3.548   3.595 -0.0080  0.1078  0.0018
 9256TIP3    H149183   3.713   3.616   3.543 -0.2913  0.2405 -0.0677
 9256TIP3    H249184   3.718   3.469   3.576  2.3345  0.8215  2.5251
 9257TIP3   OH249185   1.291   2.832   5.887  0.3094  0.2729  0.7969
 9257TIP3    H149186   1.285   2.737   5.896 -2.5133  0.2959  0.2217
 9257TIP3    H249187   1.340   2.845   5.806 -0.6618 -0.7819  0.0055
 9258TIP3   OH249188   0.168   2.684  16.556  0.7082 -0.4343  0.4447
 9258TIP3    H149189   0.257   2.667  16.524 -0.1667 -0.5961 -2.2195
 9258TIP3    H249190   0.118   2.607  16.528 -0.8275  0.9306 -0.8068
 9259TIP3   OH249191   6.161   0.786   2.673  0.4700 -0.4803 -0.3842
 9259TIP3    H149192   6.124   0.842   2.605 -1.6387  0.4126  1.3977
 9259TIP3    H249193   6.105   0.708   2.673  1.4755 -1.2402 -0.7213
 9260TIP3   OH249194   2.579   1.386   4.167 -0.0028 -0.8955  0.2681
 9260TIP3    H149195   2.549   1.401   4.257  0.6816 -0.5514  0.4480
 9260TIP3    H249196   2.507   1.340   4.125 -0.4512 -0.7965  0.9120
 9261TIP3   OH249197   1.359   0.555   5.532  0.7784 -0.2559  0.0102
 9261TIP3    H149198   1.273   0.563   5.493  0.4805  0.6338  0.7959
 9261TIP3    H249199   1.368   0.462   5.553 -0.4821 -0.1930  0.9564
 9262TIP3   OH249200   0.620   3.269  12.365 -0.2112  0.3365 -0.8031
 9262TIP3    H149201   0.556   3.318  12.313  0.5047  0.1568 -1.8995
 9262TIP3    H249202   0.572   3.192  12.395 -0.7702  0.6711 -0.8352
 9263TIP3   OH249203   3.316   5.222   0.402 -0.2120 -0.3034 -0.1722
 9263TIP3    H149204   3.336   5.236   0.494 -0.2105  0.4268 -0.2771
 9263TIP3    H249205   3.398   5.243   0.356  0.4992 -2.7810 -0.2122
 9264TIP3   OH249206   1.479   0.232   4.895 -0.1712 -0.6076  0.0656
 9264TIP3    H149207   1.491   0.284   4.816 -0.4315  0.7166  0.8677
 9264TIP3    H249208   1.426   0.157   4.868 -2.3892  1.0984 -0.5334
 9265TIP3   OH249209   3.038   3.723  15.656 -0.4194  0.0125  0.2525
 9265TIP3    H149210   2.978   3.791  15.627 -1.2574 -0.9560 -0.3814
 9265TIP3    H249211   3.027   3.719  15.751 -1.6973 -0.4232  0.1104
 9266TIP3   OH249212   0.370   0.236   1.877 -0.0596  0.6667  0.3859
 9266TIP3    H149213   0.345   0.316   1.831  0.7303  0.2875 -0.7574
 9266TIP3    H249214   0.360   0.167   1.811  2.2318  0.2616  0.3882
 9267TIP3   OH249215   5.595   4.505  12.205  0.2786  0.0024 -0.1971
 9267TIP3    H149216   5.544   4.546  12.275  2.7240  3.2733 -0.0436
 9267TIP3    H249217   5.600   4.573  12.137  3.3693 -0.5162 -0.6313
 9268TIP3   OH249218   3.727   0.574   5.504  0.4509 -0.3530  0.6498
 9268TIP3    H149219   3.720   0.487   5.464 -0.0799 -0.4453  0.9262
 9268TIP3    H249220   3.777   0.625   5.440 -0.0969 -0.5857  0.0146
 9269TIP3   OH249221   4.680   5.641   3.969  0.1707 -0.5994 -0.3309
 9269TIP3    H149222   4.586   5.652   3.952 -0.3609 -2.3747  1.1958
 9269TIP3    H249223   4.693   5.546   3.972  2.0973 -0.3919 -0.7803
 9270TIP3   OH249224   6.709   0.318   3.855  0.2659  0.6397 -0.4508
 9270TIP3    H149225   6.694   0.404   3.815  1.2238  0.6791 -0.7611
 9270TIP3    H249226   6.661   0.257   3.798 -1.0065  1.0265  0.1733
 9271TIP3   OH249227   4.845   1.970  15.901 -0.1266 -0.4246 -0.2440
 9271TIP3    H149228   4.866   1.918  15.824  0.9741  2.6383 -2.1753
 9271TIP3    H249229   4.901   1.934  15.970  2.4168 -0.3606 -2.1285
 9272TIP3   OH249230   2.191   4.606  11.620 -0.1754 -0.0820  0.1798
 9272TIP3    H149231   2.165   4.635  11.532 -0.9420  1.1222  0.7710
 9272TIP3    H249232   2.268   4.551  11.606 -0.8284 -0.6654 -1.3208
 9273TIP3   OH249233   1.147   1.784   0.617 -0.0045 -0.1891  0.4505
 9273TIP3    H149234   1.139   1.857   0.556 -0.3913  0.3261  1.0994
 9273TIP3    H249235   1.190   1.715   0.567 -1.3670 -0.2014 -0.7655
 9274TIP3   OH249236   5.494   5.831  11.584 -0.0612 -0.0360  0.0068
 9274TIP3    H149237   5.531   5.916  11.606  0.7516 -0.4635  0.3136
 9274TIP3    H249238   5.484   5.786  11.668 -2.0254  0.3466  0.0333
 9275TIP3   OH249239   5.199   4.145  11.994  0.0185 -0.3655  0.4485
 9275TIP3    H149240   5.258   4.212  12.029 -0.4617  0.8369 -0.9192
 9275TIP3    H249241   5.112   4.172  12.025 -0.7074  1.8040 -2.8948
 9276TIP3   OH249242   0.080   6.439   6.559  0.9333  0.3551 -0.0455
 9276TIP3    H149243   0.159   6.403   6.519  1.0304  1.1326 -0.5789
 9276TIP3    H249244   0.037   6.363   6.600  1.2032 -0.3464 -1.0131
 9277TIP3   OH249245   5.447   5.042   5.255  0.0778  0.1473 -0.1015
 9277TIP3    H149246   5.446   5.037   5.159 -1.0387 -2.4362 -0.0484
 9277TIP3    H249247   5.382   5.108   5.277 -0.4670 -0.0332 -1.1186
 9278TIP3   OH249248   2.995   6.455  12.655 -0.4514 -0.2334 -0.1119
 9278TIP3    H149249   3.072   6.490  12.610 -1.3587  0.9759 -0.7720
 9278TIP3    H249250   2.958   6.391  12.594 -0.2863 -0.4252 -0.0148
 9279TIP3   OH249251   5.674   3.213   4.241  0.4872 -0.3291 -0.3095
 9279TIP3    H149252   5.699   3.120   4.235  1.4585 -0.0924 -0.1145
 9279TIP3    H249253   5.584   3.211   4.273  0.7354 -1.2004  0.3960
 9280TIP3   OH249254   3.929   3.923  15.443  0.3323 -0.0541  0.1454
 9280TIP3    H149255   3.945   3.890  15.531 -1.1930  1.4770  1.0474
 9280TIP3    H249256   3.892   3.848  15.396  0.6069 -0.7190  0.9703
 9281TIP3   OH249257   3.288   6.638  14.975 -0.0560 -0.4510  0.2237
 9281TIP3    H149258   3.195   6.636  15.000 -0.3129  1.0556 -0.5174
 9281TIP3    H249259   3.335   6.644  15.059 -0.7967  2.0490  0.5370
 9282TIP3   OH249260   4.405   1.830  11.148  0.3345  0.5048  0.0468
 9282TIP3    H149261   4.444   1.775  11.216 -1.2226 -0.8328 -0.0747
 9282TIP3    H249262   4.461   1.908  11.144  1.7067 -0.3738  1.3170
 9283TIP3   OH249263   2.763   3.790  14.925 -0.1460  0.5098 -0.1619
 9283TIP3    H149264   2.843   3.738  14.932 -1.1602 -0.9534  1.4467
 9283TIP3    H249265   2.783   3.858  14.861  1.1863 -2.0003 -2.5749
 9284TIP3   OH249266   4.365   3.935   5.066 -0.6699 -0.1797  0.4837
 9284TIP3    H149267   4.331   3.855   5.105  1.4000 -1.7125 -0.6220
 9284TIP3    H249268   4.423   3.972   5.132 -0.0160 -0.7740  0.2618
 9285TIP3   OH249269   3.236   0.363  12.043 -0.0402 -0.5117 -0.3520
 9285TIP3    H149270   3.322   0.328  12.065  0.4871  0.5239 -0.6780
 9285TIP3    H249271   3.218   0.427  12.111 -0.5657 -0.7421 -0.2725
 9286TIP3   OH249272   4.976   0.280  14.926  0.2101  0.4781 -0.4806
 9286TIP3    H149273   4.901   0.285  14.867 -0.2187  1.8789  0.1582
 9286TIP3    H249274   5.039   0.224  14.879 -0.8516  0.0308 -1.4189
 9287TIP3   OH249275   1.512   3.998  10.608  0.2753 -0.0935 -0.2555
 9287TIP3    H149276   1.482   4.053  10.681  0.0934  0.6663 -0.8951
 9287TIP3    H249277   1.436   3.992  10.550  0.2952 -1.0300 -0.1985
 9288TIP3   OH249278   0.822   3.887  12.633  0.0364 -0.3504 -0.5229
 9288TIP3    H149279   0.794   3.809  12.585 -2.1916  0.3841 -0.5471
 9288TIP3    H249280   0.808   3.959  12.571 -1.7741  0.4730  0.7500
 9289TIP3   OH249281   2.905   6.165  14.369  0.3903 -1.0758  0.2641
 9289TIP3    H149282   2.962   6.175  14.292  0.6951 -0.5835  0.5494
 9289TIP3    H249283   2.904   6.251  14.409 -2.3979 -0.4213 -0.9816
 9290TIP3   OH249284   5.844   6.181  14.891  0.1415  0.2833  0.3651
 9290TIP3    H149285   5.912   6.142  14.836  0.4800  0.9878  0.2696
 9290TIP3    H249286   5.848   6.130  14.972 -1.5221 -1.9063 -0.8172
 9291TIP3   OH249287   6.688   6.253  15.093  0.0020  0.2151  0.0343
 9291TIP3    H149288   6.701   6.314  15.019 -0.3655 -3.0634 -3.0121
 9291TIP3    H249289   6.596   6.264  15.116 -0.3512  0.0999 -1.2397
 9292TIP3   OH249290   4.721   1.292   2.391  0.0779  0.2753  0.4159
 9292TIP3    H149291   4.803   1.283   2.439  0.0642 -0.1368  0.3667
 9292TIP3    H249292   4.653   1.268   2.454  0.0459 -0.0661  0.2533
 9293TIP3   OH249293   3.540   1.311   6.379  0.4963 -0.0659 -0.0991
 9293TIP3    H149294   3.554   1.257   6.302 -0.4777  0.5115 -0.6993
 9293TIP3    H249295   3.596   1.272   6.446  1.8623 -0.1778 -1.2694
 9294TIP3   OH249296   5.238   1.341  12.586  0.2570  0.0167 -0.0585
 9294TIP3    H149297   5.308   1.399  12.555 -1.1251  2.0675  0.4347
 9294TIP3    H249298   5.235   1.357  12.680  0.5637 -1.7372  0.2738
 9295TIP3   OH249299   4.580   3.480   1.833  0.4568 -0.3891 -0.3154
 9295TIP3    H149300   4.504   3.422   1.832 -0.3391  0.6348 -0.7036
 9295TIP3    H249301   4.549   3.561   1.792  1.6868  0.1345 -0.2498
 9296TIP3   OH249302   6.388   4.008   5.067 -0.1586  0.3403 -0.2458
 9296TIP3    H149303   6.356   3.936   5.013  1.5862 -2.3444  2.0205
 9296TIP3    H249304   6.321   4.019   5.134 -0.4113  0.8447 -0.5755
 9297TIP3   OH249305   2.435   5.594   0.283 -0.0465 -0.4630  0.5401
 9297TIP3    H149306   2.387   5.531   0.229  0.3705  0.3209 -0.7915
 9297TIP3    H249307   2.474   5.655   0.220  0.3975  0.5365  1.7406
 9298TIP3   OH249308   2.345   5.816   0.855 -0.7009 -0.0824 -0.0637
 9298TIP3    H149309   2.364   5.722   0.857  0.5697  0.1661  0.3308
 9298TIP3    H249310   2.390   5.852   0.932 -1.1499  0.8555 -0.2207
 9299TIP3   OH249311   5.680   6.207   3.457  0.0642 -0.0989 -0.2657
 9299TIP3    H149312   5.690   6.131   3.400  1.4653 -0.1597  0.0259
 9299TIP3    H249313   5.691   6.283   3.399  1.1128 -0.1578 -0.1645
 9300TIP3   OH249314   3.944   5.469   3.558 -0.5087 -0.4037 -0.3547
 9300TIP3    H149315   3.932   5.374   3.554  0.8370 -0.5626 -1.1811
 9300TIP3    H249316   4.038   5.482   3.551 -0.6754  1.0088 -0.3457
 9301TIP3   OH249317   3.013   3.927   6.594  0.4333 -0.1142  0.5030
 9301TIP3    H149318   3.034   3.837   6.568  0.6853 -0.3054  1.3480
 9301TIP3    H249319   3.002   3.923   6.689 -1.0400  0.4554  0.3818
 9302TIP3   OH249320   2.405   5.935  16.854  0.3799 -0.3588 -0.0489
 9302TIP3    H149321   2.309   5.942  16.858  0.1707 -0.6282 -2.6647
 9302TIP3    H249322   2.436   6.025  16.863 -0.2251 -0.0882 -0.5610
 9303TIP3   OH249323   2.997   0.979   5.734  0.4073  0.3268 -0.7035
 9303TIP3    H149324   3.054   1.047   5.769  1.0153 -0.6606  0.2900
 9303TIP3    H249325   2.971   0.927   5.810 -1.2030  0.2704 -1.2440
 9304TIP3   OH249326   5.265   6.646  12.455 -0.0789  0.1304  0.1860
 9304TIP3    H149327   5.293   6.732  12.487  0.0394  0.5171 -0.9153
 9304TIP3    H249328   5.316   6.632  12.376  0.6757 -1.4476  0.9083
 9305TIP3   OH249329   6.276   4.957  14.263 -0.0136  0.2299 -0.2927
 9305TIP3    H149330   6.215   4.969  14.190  1.1492  1.5253 -1.1234
 9305TIP3    H249331   6.251   5.024  14.327 -0.1324  0.0542 -0.1558
 9306TIP3   OH249332   2.208   3.207   0.202 -0.3167 -0.0965  0.8060
 9306TIP3    H149333   2.150   3.282   0.191 -1.2719 -0.7895  1.0296
 9306TIP3    H249334   2.177   3.144   0.137  0.8367 -0.0981  0.2334
 9307TIP3   OH249335   2.855   0.641   3.072 -0.3193 -0.2143 -0.8218
 9307TIP3    H149336   2.928   0.624   3.132  0.2716 -1.1703 -1.7692
 9307TIP3    H249337   2.788   0.577   3.098 -0.3010 -0.2195 -0.7867
 9308TIP3   OH249338   2.457   3.340   1.349  0.2851  0.1513 -0.0685
 9308TIP3    H149339   2.497   3.372   1.430  2.1075  0.5742 -1.0740
 9308TIP3    H249340   2.488   3.249   1.342  0.7753  0.3564 -0.6571
 9309TIP3   OH249341   2.993   6.632  14.921 -0.0316  0.0028  0.0218
 9309TIP3    H149342   2.984   6.661  15.012  0.3505 -1.6054  0.6050
 9309TIP3    H249343   2.913   6.664  14.878  0.5108  2.1639  0.4858
 9310TIP3   OH249344   1.700   2.758   1.910  0.1570  0.2528  0.3912
 9310TIP3    H149345   1.723   2.714   1.992 -1.1684 -0.0963  0.6048
 9310TIP3    H249346   1.606   2.742   1.900  0.7549 -2.2253 -2.6689
 9311TIP3   OH249347   1.201   4.479  12.976  0.6034 -0.3441 -0.7597
 9311TIP3    H149348   1.274   4.475  12.915  2.2986  0.8669  1.0761
 9311TIP3    H249349   1.230   4.428  13.052  0.1004  1.2180  0.5307
 9312TIP3   OH249350   6.267   4.810   3.224 -0.8670 -0.2226  0.0159
 9312TIP3    H149351   6.297   4.863   3.298 -0.3876 -1.6595  0.9099
 9312TIP3    H249352   6.199   4.862   3.182  0.7387  1.8070 -0.1892
 9313TIP3   OH249353   6.454   3.971  11.011 -0.0780 -0.1209 -0.9027
 9313TIP3    H149354   6.457   3.893  11.066  3.2643 -0.1482 -0.8700
 9313TIP3    H249355   6.363   3.980  10.985 -1.0834 -2.3577  1.4368
 9314TIP3   OH249356   6.779   2.021   3.500  0.2899 -0.2345 -0.2171
 9314TIP3    H149357   6.802   2.113   3.508  0.5854 -0.4223  1.7529
 9314TIP3    H249358   6.752   1.996   3.589  1.1808 -2.2704 -0.4634
 9315TIP3   OH249359   4.685   4.461  14.635  0.0764 -0.3652 -0.0071
 9315TIP3    H149360   4.715   4.549  14.610  0.3334 -0.0300  1.3959
 9315TIP3    H249361   4.618   4.477  14.701 -0.4683 -1.2231 -0.3397
 9316TIP3   OH249362   1.452   4.630  15.848 -0.2843  0.4062  0.4031
 9316TIP3    H149363   1.362   4.637  15.814 -0.6258 -0.2298  1.1618
 9316TIP3    H249364   1.487   4.552  15.806  0.0006  0.7884 -0.0760
 9317TIP3   OH249365   2.194   5.973  13.463  0.2211 -0.1304 -0.9918
 9317TIP3    H149366   2.202   5.903  13.398 -0.3649 -1.2167  0.0637
 9317TIP3    H249367   2.271   5.963  13.519 -1.0002 -1.4740  0.5609
 9318TIP3   OH249368   5.939   4.290  12.101  0.1053 -0.0846 -0.0967
 9318TIP3    H149369   5.936   4.384  12.118  0.4972  0.2825 -1.8004
 9318TIP3    H249370   5.856   4.257  12.135  0.1307  0.8108  0.8711
 9319TIP3   OH249371   1.684   3.095   4.522 -0.1779  0.1512 -0.9116
 9319TIP3    H149372   1.623   3.032   4.560  0.1620  0.4102  0.0977
 9319TIP3    H249373   1.738   3.044   4.462 -0.0342 -0.4821 -0.2472
 9320TIP3   OH249374   4.991   5.031  13.894 -0.0655  0.1147  0.3298
 9320TIP3    H149375   5.049   5.099  13.927 -2.1443  0.5200  3.5807
 9320TIP3    H249376   4.950   5.069  13.816  2.1569  0.7124 -0.6189
 9321TIP3   OH249377   1.359   4.688   2.023  0.0344  0.7135  0.0447
 9321TIP3    H149378   1.393   4.698   1.934  0.6785  0.8424  0.3001
 9321TIP3    H249379   1.287   4.624   2.015 -0.4741  1.3638 -0.7001
 9322TIP3   OH249380   0.109   0.094  10.679 -0.5891  1.1960  0.3185
 9322TIP3    H149381   0.144   0.061  10.596 -2.5600 -2.6236  0.7712
 9322TIP3    H249382   0.181   0.082  10.742 -0.9313 -1.9093  0.2859
 9323TIP3   OH249383   0.565   6.735  14.476 -0.3888 -0.6010 -0.2214
 9323TIP3    H149384   0.611   6.699  14.401  0.6906 -0.5335  0.4004
 9323TIP3    H249385   0.553   6.661  14.536  0.1163 -0.3362  0.2106
 9324TIP3   OH249386   0.865   3.330   3.953 -0.3869  0.2624 -0.8765
 9324TIP3    H149387   0.842   3.363   3.867 -0.3179  0.4553 -0.8213
 9324TIP3    H249388   0.960   3.321   3.952 -0.1688  2.0205 -0.2168
 9325TIP3   OH249389   3.162   5.180  14.154  0.5209  0.0953 -0.2221
 9325TIP3    H149390   3.257   5.170  14.162  0.5237 -2.0267 -2.0012
 9325TIP3    H249391   3.143   5.158  14.063 -1.3748  3.7880 -0.9000
 9326TIP3   OH249392   2.172   0.353   4.059 -0.3976  0.1310  0.7554
 9326TIP3    H149393   2.129   0.318   3.981  1.3720 -2.7567  0.9321
 9326TIP3    H249394   2.171   0.448   4.046  0.7068 -0.2181 -3.3545
 9327TIP3   OH249395   4.939   2.141   4.682 -0.2689 -0.2805  0.4520
 9327TIP3    H149396   4.915   2.233   4.673  2.1295  0.6171  2.3050
 9327TIP3    H249397   5.010   2.128   4.620  0.5287 -0.3767  1.3566
 9328TIP3   OH249398   2.080   4.205  14.806 -0.3291 -0.1797 -0.1758
 9328TIP3    H149399   2.149   4.262  14.838  1.6349 -1.9539 -0.9991
 9328TIP3    H249400   2.029   4.259  14.745 -2.8801  2.6497  3.9795
 9329TIP3   OH249401   5.231   6.606   0.428 -0.3316  0.0812 -0.3866
 9329TIP3    H149402   5.309   6.635   0.475  0.5626  0.3611 -1.9686
 9329TIP3    H249403   5.164   6.672   0.449  0.1793  0.4396  0.1225
 9330TIP3   OH249404   0.203   4.191  14.261 -0.1642  0.5348  0.0626
 9330TIP3    H149405   0.216   4.196  14.356 -1.0555  0.9394  0.1639
 9330TIP3    H249406   0.286   4.155  14.228  1.0274  2.5269  0.7431
 9331TIP3   OH249407   4.108   5.901   4.118  0.2847  0.4309 -0.0133
 9331TIP3    H149408   4.084   5.887   4.026 -2.5276  0.8995  0.5759
 9331TIP3    H249409   4.198   5.932   4.114 -0.1633  1.6699 -2.7179
 9332TIP3   OH249410   5.740   4.230   0.203  0.3588 -0.4277  0.0730
 9332TIP3    H149411   5.699   4.196   0.123  0.2360  0.0929 -0.0868
 9332TIP3    H249412   5.684   4.303   0.229 -0.0631 -1.0963  1.0907
 9333TIP3   OH249413   1.657   0.369   4.385 -0.3420  0.1970  0.2356
 9333TIP3    H149414   1.597   0.431   4.344 -0.5119  1.8929  2.8379
 9333TIP3    H249415   1.744   0.396   4.354 -0.3352  2.3163  1.8619
 9334TIP3   OH249416   2.266   1.453  11.350  0.5073 -0.1973  0.9608
 9334TIP3    H149417   2.237   1.471  11.260  2.4165  2.4371  0.7661
 9334TIP3    H249418   2.326   1.379  11.342  0.7919  0.1263  0.0562
 9335TIP3   OH249419   1.934   4.544   5.828 -0.0489 -0.4100 -0.3809
 9335TIP3    H149420   1.853   4.561   5.877  0.2058 -0.5980  0.1149
 9335TIP3    H249421   1.936   4.449   5.819  0.1013 -0.4022 -0.4235
 9336TIP3   OH249422   3.811   0.797  10.810 -0.6685 -0.1601 -0.0751
 9336TIP3    H149423   3.752   0.859  10.766 -0.8893 -0.7824 -0.6730
 9336TIP3    H249424   3.766   0.775  10.891  0.0218  1.4669  0.8004
 9337TIP3   OH249425   3.575   5.031  11.133 -0.0029 -0.8964 -0.0375
 9337TIP3    H149426   3.579   5.024  11.037  2.7588  4.9961 -0.8054
 9337TIP3    H249427   3.644   4.973  11.164  1.5219 -0.3120 -2.0696
 9338TIP3   OH249428   5.997   5.332  12.538 -0.0031 -0.0949 -0.0786
 9338TIP3    H149429   6.050   5.382  12.476  1.2046 -1.4910 -0.2255
 9338TIP3    H249430   6.041   5.345  12.622 -0.6896  0.4746  0.1976
 9339TIP3   OH249431   0.608   5.135  14.223 -0.0998  0.2926  0.0653
 9339TIP3    H149432   0.648   5.049  14.215 -1.9016 -0.4787 -1.4780
 9339TIP3    H249433   0.548   5.128  14.297 -2.9767 -1.0784 -2.1863
 9340TIP3   OH249434   0.409   4.715  11.163  0.4341  0.1917  0.3059
 9340TIP3    H149435   0.419   4.663  11.242 -0.7461  0.0442  0.3695
 9340TIP3    H249436   0.496   4.751  11.147  0.8121 -0.2344  1.3442
 9341TIP3   OH249437   6.755   4.702   0.801  0.7994  0.0372  0.4198
 9341TIP3    H149438   6.831   4.645   0.800  0.2461 -0.8078  2.4292
 9341TIP3    H249439   6.780   4.775   0.857  0.1117 -0.3267  1.2267
 9342TIP3   OH249440   3.515   0.332  11.754  0.2247  0.4276 -0.0977
 9342TIP3    H149441   3.607   0.347  11.731  0.6920  0.6296  1.7931
 9342TIP3    H249442   3.474   0.418  11.745  0.3637  0.4771 -0.2712
 9343TIP3   OH249443   1.023   6.442   4.115 -0.0981 -0.9518  0.1687
 9343TIP3    H149444   1.114   6.427   4.087  0.7917  0.3578  2.1088
 9343TIP3    H249445   1.015   6.391   4.196 -0.4969  0.3338  0.9585
 9344TIP3   OH249446   1.547   2.422  12.260  0.3610 -0.3845  0.1869
 9344TIP3    H149447   1.605   2.498  12.259  1.4100 -1.1554 -0.7583
 9344TIP3    H249448   1.472   2.450  12.312  0.0065  1.7996 -1.3545
 9345TIP3   OH249449   3.133   4.731  12.303 -0.1270 -0.4877  0.2529
 9345TIP3    H149450   3.210   4.736  12.246 -0.7449  1.3835 -0.5092
 9345TIP3    H249451   3.166   4.754  12.390  0.3090 -0.3804  0.0650
 9346TIP3   OH249452   3.658   0.125  14.758  0.2441 -0.9220  0.3387
 9346TIP3    H149453   3.582   0.127  14.815  0.5641 -0.3151  0.7442
 9346TIP3    H249454   3.624   0.148  14.671 -0.2800 -2.0613  0.2192
 9347TIP3   OH249455   4.927   6.440   6.053 -0.2225  0.1167 -0.4224
 9347TIP3    H149456   4.970   6.357   6.076 -0.2865  0.0754 -0.4514
 9347TIP3    H249457   4.893   6.473   6.136 -0.7156 -0.1819 -0.5020
 9348TIP3   OH249458   3.154   3.052  16.681  0.1505  0.4560 -0.0236
 9348TIP3    H149459   3.061   3.058  16.657  0.0928 -0.1917  0.0152
 9348TIP3    H249460   3.198   3.113  16.622 -0.2658  0.5499 -0.2441
 9349TIP3   OH249461   2.284   6.219   5.641 -0.6807  0.0233 -0.0383
 9349TIP3    H149462   2.284   6.302   5.595 -0.7202 -0.2583 -0.5530
 9349TIP3    H249463   2.373   6.186   5.632 -0.4219  0.4181  0.9276
 9350TIP3   OH249464   3.250   6.435  16.362  0.1973  0.1380 -0.2642
 9350TIP3    H149465   3.265   6.491  16.439  0.3502  0.0184 -0.2061
 9350TIP3    H249466   3.330   6.444  16.310  1.7595 -2.6801  1.3929
 9351TIP3   OH249467   2.693   3.818  15.771  0.0947  0.4423 -0.0742
 9351TIP3    H149468   2.607   3.857  15.789  1.0617  2.4901  0.4484
 9351TIP3    H249469   2.693   3.805  15.676 -1.2888 -0.9439  0.0745
 9352TIP3   OH249470   5.392   5.892  16.756  0.9415  0.6064 -0.3907
 9352TIP3    H149471   5.366   5.984  16.756 -1.3564  0.0412 -1.8346
 9352TIP3    H249472   5.412   5.873  16.664 -1.9560 -1.0832 -0.8068
 9353TIP3   OH249473   3.875   5.980  11.244 -0.2840 -0.7922 -0.0323
 9353TIP3    H149474   3.909   6.056  11.290 -2.9789 -1.2192  2.9964
 9353TIP3    H249475   3.952   5.926  11.226  1.6108  2.1981 -1.6850
 9354TIP3   OH249476   1.519   2.583   2.700 -0.2752  0.4382 -0.5243
 9354TIP3    H149477   1.567   2.638   2.638 -0.8643  1.9177  0.2717
 9354TIP3    H249478   1.467   2.645   2.751  0.9392 -0.5671  2.1550
 9355TIP3   OH249479   2.527   6.117   5.657 -0.0218 -0.2630  0.7230
 9355TIP3    H149480   2.581   6.189   5.690 -0.9220  0.3616  0.8711
 9355TIP3    H249481   2.588   6.064   5.605  0.6046  0.7523  0.3804
 9356TIP3   OH249482   6.361   0.525  10.572 -0.5216 -0.2537  0.0052
 9356TIP3    H149483   6.422   0.467  10.617  1.6689  1.4199 -0.6738
 9356TIP3    H249484   6.357   0.492  10.482 -0.2004 -0.0491 -0.0833
 9357TIP3   OH249485   0.734   2.677  11.128 -0.3154 -0.1164  0.6562
 9357TIP3    H149486   0.783   2.597  11.105 -1.4933 -1.6831  3.1506
 9357TIP3    H249487   0.655   2.673  11.073  0.9565  1.0078 -1.4022
 9358TIP3   OH249488   3.004   5.481   4.315 -0.7227  0.2991 -0.0467
 9358TIP3    H149489   3.031   5.412   4.254 -1.7485 -0.0137 -0.1699
 9358TIP3    H249490   3.041   5.561   4.278 -2.5918  0.3540 -1.9583
 9359TIP3   OH249491   5.205   5.557   0.987  0.1018 -0.0115  0.2344
 9359TIP3    H149492   5.161   5.494   0.930 -0.3236 -0.0269  0.5778
 9359TIP3    H249493   5.248   5.618   0.927 -2.6903  1.6760 -0.1884
 9360TIP3   OH249494   4.661   4.351   2.116  0.4228 -0.3499 -0.2026
 9360TIP3    H149495   4.700   4.315   2.036  0.6944  0.3020 -0.3763
 9360TIP3    H249496   4.670   4.281   2.181  0.5943 -0.7275 -0.6275
 9361TIP3   OH249497   4.547   5.845   2.232  0.4128  0.1460  0.7634
 9361TIP3    H149498   4.617   5.799   2.279 -1.9278 -0.8419  3.6046
 9361TIP3    H249499   4.500   5.775   2.186 -0.1350  0.4617  0.8446
 9362TIP3   OH249500   3.608   6.507  12.026 -0.1140 -0.4793  0.3460
 9362TIP3    H149501   3.697   6.532  12.000  0.1365 -1.0369  0.6313
 9362TIP3    H249502   3.555   6.518  11.947 -0.0329  0.9719  0.4756
 9363TIP3   OH249503   3.145   2.630  15.645 -0.2438 -0.4210 -0.3592
 9363TIP3    H149504   3.082   2.641  15.574  0.2948 -0.1494 -0.8009
 9363TIP3    H249505   3.224   2.675  15.615 -0.0894 -0.0787  0.5238
 9364TIP3   OH249506   3.278   4.577   4.213 -0.3281  0.2827 -0.1734
 9364TIP3    H149507   3.352   4.629   4.245 -0.4778 -0.0942  0.8163
 9364TIP3    H249508   3.277   4.593   4.118  0.7353  0.6501 -0.1367
 9365TIP3   OH249509   2.470   6.358  14.846 -0.4355  0.0571  0.0953
 9365TIP3    H149510   2.415   6.437  14.846 -0.8595 -0.2338 -0.2620
 9365TIP3    H249511   2.429   6.300  14.782  0.4261 -0.0745 -0.3515
 9366TIP3   OH249512   2.540   0.310  13.036  0.1195  0.1348  0.5317
 9366TIP3    H149513   2.550   0.309  12.941 -0.5467  1.6253  0.4206
 9366TIP3    H249514   2.596   0.382  13.065  0.0335 -0.0761  1.2399
 9367TIP3   OH249515   6.274   5.964   4.167 -0.2887  0.3982 -0.0128
 9367TIP3    H149516   6.207   5.910   4.209 -1.2840  2.1001  0.6544
 9367TIP3    H249517   6.354   5.942   4.215 -0.5685 -0.8087 -0.0640
 9368TIP3   OH249518   1.281   0.007  15.944 -0.4205  0.4920 -0.0719
 9368TIP3    H149519   1.312   0.095  15.919  1.7433  0.4902  2.2207
 9368TIP3    H249520   1.334  -0.016  16.020 -1.0366 -2.7852 -0.5052
 9369TIP3   OH249521   4.843   5.654  12.007 -0.8839 -0.3041 -0.4380
 9369TIP3    H149522   4.880   5.739  12.030  0.5043 -0.6956 -1.0975
 9369TIP3    H249523   4.913   5.591  12.026 -0.7020 -0.9501 -2.8881
 9370TIP3   OH249524   2.185   2.123  16.412 -0.1669 -0.6484 -0.3075
 9370TIP3    H149525   2.140   2.168  16.483 -0.7717 -0.4669 -0.7945
 9370TIP3    H249526   2.273   2.161  16.411 -1.0118  1.4314 -1.4892
 9371TIP3   OH249527   6.249   0.428  12.551 -0.1729  0.2840 -0.2225
 9371TIP3    H149528   6.343   0.411  12.565 -0.4878 -0.6321  0.9678
 9371TIP3    H249529   6.244   0.460  12.461  1.3626  1.0265 -0.0825
 9372TIP3   OH249530   1.259   4.382   0.631  0.8013  0.2023  0.0359
 9372TIP3    H149531   1.338   4.384   0.577  2.0086 -0.7295  1.6491
 9372TIP3    H249532   1.237   4.290   0.637 -0.9389  0.5106 -1.0475
 9373TIP3   OH249533   6.444   4.544  15.679 -0.4491  0.4556 -0.0280
 9373TIP3    H149534   6.360   4.590  15.676  0.1954  1.7085  0.2943
 9373TIP3    H249535   6.428   4.462  15.632 -2.3246 -0.1512  1.5565
 9374TIP3   OH249536   5.256   0.762   2.997  0.1907  0.5549  0.1231
 9374TIP3    H149537   5.231   0.803   2.914  0.5686 -0.1282 -0.3420
 9374TIP3    H249538   5.350   0.776   3.004  0.7172 -1.8712 -1.0340
 9375TIP3   OH249539   0.013   0.686   1.879 -0.2425 -0.3032 -0.1473
 9375TIP3    H149540   0.054   0.770   1.900  0.3319 -0.3704 -0.9469
 9375TIP3    H249541  -0.070   0.687   1.926 -0.1094  0.5886  0.0821
 9376TIP3   OH249542   0.723   0.038  16.399  0.3781 -0.1801 -0.1421
 9376TIP3    H149543   0.667   0.058  16.474 -0.2570 -0.7711 -0.4426
 9376TIP3    H249544   0.714   0.113  16.340  0.9415  0.3226  0.3917
 9377TIP3   OH249545   1.854   4.669   3.678  0.0549 -0.0257  0.3524
 9377TIP3    H149546   1.919   4.602   3.696  1.5951  0.7377 -1.9798
 9377TIP3    H249547   1.820   4.648   3.591 -2.7160 -0.2603  1.3900
 9378TIP3   OH249548   2.864   1.601   1.261  0.1628 -0.0914 -0.1378
 9378TIP3    H149549   2.802   1.673   1.277  0.4595  0.3344 -0.8274
 9378TIP3    H249550   2.920   1.599   1.338  0.6606  0.9596 -0.4528
 9379TIP3   OH249551   4.887   2.390   0.469 -0.6701 -0.7709  0.1469
 9379TIP3    H149552   4.834   2.312   0.486 -0.9987 -0.3365  1.2639
 9379TIP3    H249553   4.828   2.463   0.488 -0.5109 -0.2340 -1.3369
 9380TIP3   OH249554   4.542   4.536   1.935 -0.5277 -0.1074 -0.0898
 9380TIP3    H149555   4.565   4.489   2.016 -2.7727 -0.0413  0.6299
 9380TIP3    H249556   4.452   4.511   1.918 -0.3773  0.6078 -2.1137
 9381TIP3   OH249557   6.064   6.709   5.341  0.4566 -0.2520 -0.1335
 9381TIP3    H149558   6.037   6.774   5.407 -0.3095  1.3575 -1.9215
 9381TIP3    H249559   6.011   6.632   5.359  1.5862 -0.5496  2.2315
 9382TIP3   OH249560   3.339   3.953  11.676 -0.6805 -0.6841  0.2216
 9382TIP3    H149561   3.287   4.028  11.648  1.0528  0.5360  0.1470
 9382TIP3    H249562   3.365   3.973  11.766  0.2593 -0.9118  0.0156
 9383TIP3   OH249563   3.273   3.689  14.295 -0.1858  0.0614  0.4279
 9383TIP3    H149564   3.319   3.610  14.268  0.0201 -0.3551  1.8967
 9383TIP3    H249565   3.301   3.703  14.385 -0.4537  1.6472  0.2940
 9384TIP3   OH249566   0.150   0.157   3.624  0.3401  0.3224  0.1140
 9384TIP3    H149567   0.181   0.171   3.535 -2.0462  0.3521 -0.7740
 9384TIP3    H249568   0.171   0.238   3.670  0.6164  0.7292 -0.7168
 9385TIP3   OH249569   5.801   6.568   1.514  0.0709  0.2666  0.7195
 9385TIP3    H149570   5.838   6.479   1.522  0.2107  0.3600  1.1388
 9385TIP3    H249571   5.863   6.623   1.562  0.0468  0.6110  0.3561
 9386TIP3   OH249572   4.047   3.637  13.718 -0.0889  0.5229  0.5622
 9386TIP3    H149573   4.033   3.695  13.643 -0.6171  0.1143  0.3358
 9386TIP3    H249574   3.961   3.630  13.759 -0.1638 -0.5299  0.2629
 9387TIP3   OH249575   4.327   5.812  14.809  0.6183 -0.7208 -0.1435
 9387TIP3    H149576   4.419   5.802  14.831  0.4091 -1.1771  0.5862
 9387TIP3    H249577   4.294   5.876  14.872  0.3569 -0.8447 -0.1516
 9388TIP3   OH249578   1.349   2.881  15.287 -0.0808 -0.2543  0.1143
 9388TIP3    H149579   1.398   2.865  15.206  1.1408 -1.3045  1.0074
 9388TIP3    H249580   1.306   2.798  15.306  0.8588 -0.4987  1.2993
 9389TIP3   OH249581   5.169   3.238   0.574 -0.1937  0.0330 -0.0380
 9389TIP3    H149582   5.253   3.230   0.530 -0.6797 -2.0199 -0.6947
 9389TIP3    H249583   5.116   3.292   0.514  0.5119  1.0137  0.2045
 9390TIP3   OH249584   6.261   3.550   2.540 -0.5195  0.5765  0.5139
 9390TIP3    H149585   6.278   3.560   2.446  0.4106 -0.0239  0.6148
 9390TIP3    H249586   6.210   3.470   2.546 -0.8316  0.7716  0.4999
 9391TIP3   OH249587   0.933   5.494  13.742 -0.0831 -0.0902  0.3488
 9391TIP3    H149588   0.924   5.589  13.729 -3.7743 -0.2916  0.1751
 9391TIP3    H249589   0.871   5.456  13.679 -0.9497 -2.4225  2.4767
 9392TIP3   OH249590   4.950   0.198   5.713  0.5503  0.0462 -0.7220
 9392TIP3    H149591   5.032   0.235   5.681  0.5039  1.2984  0.4988
 9392TIP3    H249592   4.897   0.274   5.739 -0.0694 -0.8009  0.6674
 9393TIP3   OH249593   2.494   1.200  12.733  0.0765 -0.8054 -0.2284
 9393TIP3    H149594   2.561   1.195  12.664  0.9639  1.3545  0.3840
 9393TIP3    H249595   2.502   1.289  12.767 -2.1283 -0.9767  0.9062
 9394TIP3   OH249596   5.942   6.188  13.484  0.1760 -0.2095 -0.1861
 9394TIP3    H149597   5.962   6.188  13.390 -0.6903 -0.0728 -0.3848
 9394TIP3    H249598   5.883   6.262  13.496 -1.4863 -1.4953  0.0371
 9395TIP3   OH249599   4.989   0.489  16.466  0.8050 -0.2912  0.2207
 9395TIP3    H149600   5.071   0.522  16.502  1.0094 -1.8750  1.3093
 9395TIP3    H249601   4.921   0.536  16.515  1.0897 -1.2149  1.5664
 9396TIP3   OH249602   6.504   1.664  16.343 -0.3162 -0.2140  0.3934
 9396TIP3    H149603   6.426   1.679  16.397  0.6917  2.4178  1.3011
 9396TIP3    H249604   6.501   1.734  16.278  1.3124 -0.0100  0.5105
 9397TIP3   OH249605   4.706   5.680  15.965 -0.5234 -0.6217 -0.2548
 9397TIP3    H149606   4.674   5.743  15.901 -0.8633 -1.0835 -0.5458
 9397TIP3    H249607   4.676   5.595  15.932 -0.4307 -0.8938  0.3485
 9398TIP3   OH249608   2.940   2.806  16.523  0.0927 -0.1786 -0.4722
 9398TIP3    H149609   3.020   2.755  16.525 -0.7883 -1.5982  0.1035
 9398TIP3    H249610   2.917   2.820  16.615 -0.2245  0.3984 -0.6279
 9399TIP3   OH249611   5.312   2.758   2.494 -0.2109  0.2657 -0.6275
 9399TIP3    H149612   5.348   2.672   2.516  1.3779  1.1053  0.1957
 9399TIP3    H249613   5.299   2.801   2.579 -0.7722  0.9336 -1.0434
 9400TIP3   OH249614   0.377   3.075  14.551  0.2280 -0.5427  0.4772
 9400TIP3    H149615   0.420   3.131  14.486  0.0953  0.1417  0.9727
 9400TIP3    H249616   0.366   3.131  14.628 -1.3282 -0.7717  0.4575
 9401TIP3   OH249617   0.588   1.071   0.820  0.3258  0.7782 -0.1328
 9401TIP3    H149618   0.586   1.151   0.768  0.2958 -0.0566 -1.4648
 9401TIP3    H249619   0.661   1.021   0.785  0.0660  0.0185  0.3814
 9402TIP3   OH249620   4.361   1.937  15.854  0.4068 -0.2198  0.3165
 9402TIP3    H149621   4.453   1.922  15.878  0.6080  2.4852  1.5621
 9402TIP3    H249622   4.332   1.852  15.820  3.4384 -1.0959 -0.4700
 9403TIP3   OH249623   1.538   2.203  16.678  0.7178 -0.0177  0.3315
 9403TIP3    H149624   1.539   2.287  16.722  1.0699 -0.2378  0.7467
 9403TIP3    H249625   1.457   2.204  16.626  1.1544  0.9149 -0.3532
 9404TIP3   OH249626   2.072   1.238  16.893 -0.1032 -0.2526  0.0708
 9404TIP3    H149627   2.090   1.145  16.901  0.1720 -0.3521 -1.2999
 9404TIP3    H249628   2.011   1.244  16.820 -1.4378  0.5307  1.2095
 9405TIP3   OH249629   0.547   1.033   3.939 -0.1965  0.2861  0.2326
 9405TIP3    H149630   0.485   1.056   4.008  0.9289 -0.1863  1.4215
 9405TIP3    H249631   0.619   1.096   3.949  0.4934 -0.4878  0.2073
 9406TIP3   OH249632   3.190   0.747   0.968 -0.0852 -0.5431  0.0450
 9406TIP3    H149633   3.104   0.712   0.945 -0.6634 -0.0577  1.3907
 9406TIP3    H249634   3.191   0.836   0.933 -0.4203 -0.2962  0.6514
 9407TIP3   OH249635   0.967   6.173  13.308 -0.3088 -0.0810 -0.0774
 9407TIP3    H149636   1.049   6.126  13.325 -0.4036  0.3332  1.7275
 9407TIP3    H249637   0.909   6.106  13.271  0.4560 -0.6721 -0.2430
 9408TIP3   OH249638   2.198   2.807   0.546 -0.4314 -0.1701  0.0332
 9408TIP3    H149639   2.186   2.899   0.525  0.5638 -0.2424 -0.9579
 9408TIP3    H249640   2.290   2.800   0.574 -0.4386 -0.8878 -0.0909
 9409TIP3   OH249641   3.786   6.463  14.421 -0.4335  0.9035 -0.1047
 9409TIP3    H149642   3.728   6.535  14.442  0.2153  1.6058 -0.6415
 9409TIP3    H249643   3.731   6.401  14.372 -0.3231  2.4759 -2.3924
 9410TIP3   OH249644   5.123   5.781  13.903 -0.6976  0.1912 -0.7331
 9410TIP3    H149645   5.167   5.865  13.895 -0.8979  0.6298  1.7536
 9410TIP3    H249646   5.189   5.722  13.940 -1.1246 -0.1614 -0.5025
 9411TIP3   OH249647   2.363   4.980   5.199  0.2110  0.3208  0.0668
 9411TIP3    H149648   2.290   5.042   5.204  0.6589  0.8881 -0.2274
 9411TIP3    H249649   2.441   5.036   5.194  0.6577 -0.2742  0.2701
 9412TIP3   OH249650   5.857   1.423  16.081 -0.2209 -0.5425  0.3137
 9412TIP3    H149651   5.829   1.438  15.991 -0.4055 -0.2257  0.4241
 9412TIP3    H249652   5.951   1.406  16.075 -0.0991  0.1673  0.1363
 9413TIP3   OH249653   5.770   0.130  16.438 -0.2326 -0.5694  0.2672
 9413TIP3    H149654   5.858   0.143  16.403 -1.0985 -0.2978 -1.9696
 9413TIP3    H249655   5.753   0.208  16.491  0.6872 -0.4077  0.3349
 9414TIP3   OH249656   6.125   3.678   2.948  0.3192  0.6865  0.1335
 9414TIP3    H149657   6.159   3.766   2.965 -1.0376  1.3081 -0.2801
 9414TIP3    H249658   6.040   3.675   2.992 -0.5266  0.2611 -1.4430
 9415TIP3   OH249659   0.049   5.948  13.444 -0.0550  0.0981  0.4564
 9415TIP3    H149660   0.040   6.042  13.433  2.8505  0.4193  0.2673
 9415TIP3    H249661   0.004   5.929  13.527 -1.6123  1.4172 -0.0344
 9416TIP3   OH249662   5.829   3.402   5.249  0.5621 -0.2271  0.4154
 9416TIP3    H149663   5.814   3.475   5.189 -0.2647  0.6316  1.6206
 9416TIP3    H249664   5.795   3.433   5.333 -0.1623 -2.1476  0.8758
 9417TIP3   OH249665   1.311   4.092  14.598  0.1473  0.6340 -0.4160
 9417TIP3    H149666   1.266   4.176  14.589  0.4189  0.7854 -0.3572
 9417TIP3    H249667   1.393   4.113  14.642 -0.5514  0.0805  1.2189
 9418TIP3   OH249668   0.227   5.558  15.790 -0.1624  0.1014  0.0893
 9418TIP3    H149669   0.213   5.545  15.696 -1.0649  0.0810  0.2113
 9418TIP3    H249670   0.320   5.540  15.804 -0.3551 -1.4912 -0.5326
 9419TIP3   OH249671   4.162   4.233  10.993  0.1704 -0.3864  0.3973
 9419TIP3    H149672   4.162   4.151  10.945  0.2010 -0.1891  0.0613
 9419TIP3    H249673   4.212   4.293  10.938 -0.2306 -0.0169  0.4308
 9420TIP3   OH249674   0.337   1.893  16.888  0.0215 -0.1239 -0.2373
 9420TIP3    H149675   0.331   1.811  16.840 -0.6787  0.8772 -1.9316
 9420TIP3    H249676   0.367   1.957  16.824 -0.4710  1.1697  0.7674
 9421TIP3   OH249677   5.198   5.875  15.590  0.3945  0.2653 -0.2388
 9421TIP3    H149678   5.179   5.934  15.517 -0.6830 -0.5107 -0.6177
 9421TIP3    H249679   5.273   5.915  15.635 -1.3325  2.7987  0.5579
 9422TIP3   OH249680   3.382   0.583   6.726 -0.1553  0.3694 -0.0943
 9422TIP3    H149681   3.319   0.632   6.673  0.6168 -0.7354 -2.1927
 9422TIP3    H249682   3.339   0.568   6.809 -1.7887  1.5075 -0.6953
 9423TIP3   OH249683   5.283   5.219   4.907  0.1410  0.5329 -0.7828
 9423TIP3    H149684   5.199   5.173   4.909  1.1032 -1.2739 -0.3484
 9423TIP3    H249685   5.268   5.298   4.959 -0.6341 -0.9958  1.4521
 9424TIP3   OH249686   5.196   2.149   5.592 -0.6149  0.2411 -0.5894
 9424TIP3    H149687   5.179   2.229   5.543  2.0418  1.6396  0.5837
 9424TIP3    H249688   5.286   2.158   5.623 -0.2001 -3.2026 -0.3588
 9425TIP3   OH249689   3.062   3.373   5.989 -0.4785 -0.6954 -0.0439
 9425TIP3    H149690   3.100   3.444   5.938  0.1335 -1.0914 -0.1476
 9425TIP3    H249691   3.048   3.410   6.076 -2.0819  0.1692 -0.6237
 9426TIP3   OH249692   6.602   1.004  14.010 -0.0090 -0.2782 -0.3070
 9426TIP3    H149693   6.671   0.955  14.056 -0.6095 -1.6921 -0.8517
 9426TIP3    H249694   6.521   0.962  14.038 -0.4143 -0.9912 -2.3609
 9427TIP3   OH249695   4.261   0.657   4.587 -0.6014 -0.4262 -0.1535
 9427TIP3    H149696   4.174   0.621   4.600 -1.3091  1.4627  0.8332
 9427TIP3    H249697   4.295   0.613   4.509 -2.3072 -1.4164 -0.3691
 9428TIP3   OH249698   0.142   1.751  15.807  0.7555 -0.3104  0.4832
 9428TIP3    H149699   0.235   1.759  15.786  0.1032  0.4920 -2.7523
 9428TIP3    H249700   0.100   1.737  15.722 -2.1950  0.2628  1.7241
 9429TIP3   OH249701   2.852   5.016   1.882 -0.2901  0.3043 -0.4242
 9429TIP3    H149702   2.818   5.050   1.965  0.2002 -1.2685  0.4665
 9429TIP3    H249703   2.877   5.094   1.833 -1.4643  1.3132  0.5112
 9430TIP3   OH249704   0.125   4.958  16.234 -0.1511  0.0226  0.2895
 9430TIP3    H149705   0.215   4.930  16.217 -0.3223 -0.2486 -0.2118
 9430TIP3    H249706   0.074   4.877  16.231 -0.6459  0.3497 -1.0868
 9431TIP3   OH249707   3.383   1.182  15.664  0.6446  0.1854 -0.2396
 9431TIP3    H149708   3.290   1.163  15.666  0.4315  1.0285 -1.4584
 9431TIP3    H249709   3.424   1.104  15.703 -0.5678 -0.0020  0.7113
 9432TIP3   OH249710   6.578   4.708  14.022  0.0039  0.3165  0.4624
 9432TIP3    H149711   6.537   4.628  13.992  1.2508 -0.1802  0.0161
 9432TIP3    H249712   6.597   4.693  14.115  0.4044  0.0140  0.3333
 9433TIP3   OH249713   3.000   0.355  10.856 -0.2060 -0.0850 -0.0872
 9433TIP3    H149714   3.045   0.357  10.941  0.1724 -0.3554 -0.2773
 9433TIP3    H249715   3.057   0.302  10.800 -1.2783 -1.3690 -0.0306
 9434TIP3   OH249716   6.426   5.789  13.225  0.2798 -0.0970  0.5831
 9434TIP3    H149717   6.414   5.702  13.265 -0.4098 -0.4545 -0.3627
 9434TIP3    H249718   6.519   5.792  13.203  1.0989  0.7607  3.6131
 9435TIP3   OH249719   1.905   6.493   1.739  0.6051  0.1063  0.1616
 9435TIP3    H149720   1.925   6.538   1.821  1.3955 -2.0516  1.2348
 9435TIP3    H249721   1.811   6.507   1.725  0.7026  1.4735  0.7880
 9436TIP3   OH249722   2.327   2.485   1.124  0.5260  0.0697  0.2659
 9436TIP3    H149723   2.311   2.552   1.191 -0.1990 -0.3863  0.5686
 9436TIP3    H249724   2.384   2.527   1.061 -0.7295  1.3335 -0.0951
 9437TIP3   OH249725   2.943   2.864  12.460  0.3415  0.3594 -0.3564
 9437TIP3    H149726   2.953   2.771  12.437  2.1766  0.5279 -0.3763
 9437TIP3    H249727   3.031   2.892  12.484 -0.7218  1.2944  2.8781
 9438TIP3   OH249728   5.173   3.388   3.298 -0.4843  0.7122 -0.4528
 9438TIP3    H149729   5.171   3.383   3.394  0.1476  1.0176 -0.4198
 9438TIP3    H249730   5.266   3.392   3.276 -0.5786 -0.5801 -1.1551
 9439TIP3   OH249731   4.816   0.427   1.179  0.2284 -0.0854 -0.3888
 9439TIP3    H149732   4.885   0.468   1.127  0.5838 -1.7319 -1.2746
 9439TIP3    H249733   4.747   0.407   1.115 -0.8267  0.9377  0.3758
 9440TIP3   OH249734   4.726   3.376  13.709 -0.1437  0.0129  0.3515
 9440TIP3    H149735   4.787   3.303  13.721  0.7511  0.4627 -1.1243
 9440TIP3    H249736   4.658   3.362  13.774  2.1700  0.2111  2.9674
 9441TIP3   OH249737   2.398   2.671   3.467 -0.0044 -0.7046  0.7863
 9441TIP3    H149738   2.313   2.663   3.425 -0.0488  1.2173  0.4318
 9441TIP3    H249739   2.458   2.626   3.407 -0.1897  1.3045 -1.0283
 9442TIP3   OH249740   6.435   3.544   5.057 -0.6118 -1.0538  0.3062
 9442TIP3    H149741   6.431   3.527   4.962 -0.9042  3.5762 -0.7245
 9442TIP3    H249742   6.347   3.523   5.088 -1.7663  0.9471 -1.3298
 9443TIP3   OH249743   6.361   1.009  15.886  0.2560  0.0097  0.1156
 9443TIP3    H149744   6.314   1.019  15.803  1.2499 -3.1413 -0.9731
 9443TIP3    H249745   6.453   1.005  15.862  0.6925  0.5529  1.5643
 9444TIP3   OH249746   2.233   2.088   2.080  0.1332  0.5927  0.4903
 9444TIP3    H149747   2.220   2.085   2.174  0.0438 -1.2532  0.4543
 9444TIP3    H249748   2.327   2.097   2.068  0.1963  0.2813  0.7575
 9445TIP3   OH249749   6.044   6.609   0.735 -0.2164 -0.0058 -0.2372
 9445TIP3    H149750   5.996   6.692   0.731  1.0265  0.7066 -0.9019
 9445TIP3    H249751   6.024   6.574   0.821 -0.1996  1.3377  0.3350
 9446TIP3   OH249752   1.401   5.559   5.196 -0.0041  0.6544 -0.0041
 9446TIP3    H149753   1.483   5.609   5.198 -0.0745  0.7519  1.4145
 9446TIP3    H249754   1.382   5.541   5.288 -0.2171 -1.6196 -0.4429
 9447TIP3   OH249755   5.439   6.233  13.459 -0.2017  0.7683 -0.0252
 9447TIP3    H149756   5.387   6.309  13.433 -0.9091  0.8761  1.5491
 9447TIP3    H249757   5.450   6.182  13.379 -2.0028  1.2001 -0.6001
 9448TIP3   OH249758   2.547   1.465  14.641 -0.7354 -0.2925 -0.3139
 9448TIP3    H149759   2.600   1.544  14.631 -1.0918  0.0780  0.5569
 9448TIP3    H249760   2.589   1.400  14.585  0.9498 -0.1755  0.7438
 9449TIP3   OH249761   1.598   0.694   3.779 -0.0126 -0.4962  0.5045
 9449TIP3    H149762   1.517   0.744   3.777  0.4488  0.2540 -1.2236
 9449TIP3    H249763   1.578   0.613   3.732  0.7907  0.6796 -2.0121
 9450TIP3   OH249764   0.581   5.929  16.117  0.5023 -0.5861  0.2674
 9450TIP3    H149765   0.601   5.846  16.159  1.3127 -0.3548  0.3631
 9450TIP3    H249766   0.489   5.923  16.093 -0.0012 -0.7320  2.0786
 9451TIP3   OH249767   1.706   5.458   4.754  0.2248  0.3449 -0.0395
 9451TIP3    H149768   1.748   5.543   4.739  1.7235 -0.4455 -0.5995
 9451TIP3    H249769   1.622   5.479   4.795  0.5554  2.0863 -0.1825
 9452TIP3   OH249770   2.995   4.971   6.029  0.4726 -0.6335 -0.0525
 9452TIP3    H149771   2.966   4.895   6.079 -1.6493  0.6613  0.8128
 9452TIP3    H249772   2.924   4.987   5.967  1.1938  0.2565 -0.6730
 9453TIP3   OH249773   2.406   5.077   1.286 -0.6892  0.4094  0.0547
 9453TIP3    H149774   2.417   5.153   1.343 -1.6228  0.1938  0.5432
 9453TIP3    H249775   2.359   5.014   1.340 -0.1939 -0.4068 -0.4487
 9454TIP3   OH249776   0.992   1.915   2.959  0.0962 -0.1222  0.0276
 9454TIP3    H149777   0.908   1.958   2.941  0.0118 -0.5745 -0.6962
 9454TIP3    H249778   0.978   1.869   3.042  0.2697  1.4256  0.9735
 9455TIP3   OH249779   3.954   6.382   2.864 -0.5942  0.2992 -0.0069
 9455TIP3    H149780   4.046   6.366   2.886 -0.3643 -0.3983 -1.3652
 9455TIP3    H249781   3.905   6.341   2.934  0.1204 -0.6432 -0.0364
 9456TIP3   OH249782   3.969   4.744  16.909 -0.2573 -0.1806 -0.3533
 9456TIP3    H149783   3.912   4.693  16.852 -0.6279 -1.0308  0.7305
 9456TIP3    H249784   4.024   4.795  16.850 -0.9825 -0.6323 -1.4452
 9457TIP3   OH249785   2.163   4.906  17.040  0.2196  0.1579  0.1676
 9457TIP3    H149786   2.155   4.999  17.017  1.1791  0.6921  1.7649
 9457TIP3    H249787   2.086   4.888  17.094 -0.9888 -0.5557 -1.6776
 9458TIP3   OH249788   2.920   3.437   2.578 -0.6326 -0.3832 -0.7688
 9458TIP3    H149789   2.914   3.532   2.576 -0.4862 -0.3747 -0.7875
 9458TIP3    H249790   2.831   3.407   2.556 -0.7204 -0.2516 -0.5924
 9459TIP3   OH249791   1.781   3.880   3.765 -0.1351  0.2302  0.1936
 9459TIP3    H149792   1.872   3.868   3.793 -0.5180 -0.2420  1.3087
 9459TIP3    H249793   1.765   3.807   3.705 -0.5907 -1.4132  2.1888
 9460TIP3   OH249794   5.327   2.386  12.650  0.2771 -0.2406 -0.0155
 9460TIP3    H149795   5.316   2.291  12.645 -2.0253  0.0530 -2.4655
 9460TIP3    H249796   5.273   2.412  12.724 -2.5009 -0.5511 -1.7797
 9461TIP3   OH249797   6.075   6.773   0.304  0.1693 -0.2352 -0.4449
 9461TIP3    H149798   6.062   6.700   0.243  0.9489 -1.1447  0.4506
 9461TIP3    H249799   6.139   6.740   0.367 -0.6874  0.6535  0.9316
 9462TIP3   OH249800   5.857   1.484   5.395  0.0402  0.3558  0.5465
 9462TIP3    H149801   5.939   1.436   5.401 -0.4891 -0.5280  0.8200
 9462TIP3    H249802   5.826   1.492   5.485 -0.4465  0.1966  0.3983
 9463TIP3   OH249803   1.167   6.604  15.473 -0.3783 -0.6152  0.2054
 9463TIP3    H149804   1.157   6.695  15.502  1.0348 -1.1223  2.4508
 9463TIP3    H249805   1.082   6.583  15.434 -0.5683  1.8056 -0.9432
 9464TIP3   OH249806   1.057   5.066  10.984  0.3132  0.2458  0.2753
 9464TIP3    H149807   1.091   5.038  10.899 -0.9555 -0.3748 -0.0543
 9464TIP3    H249808   1.051   5.162  10.976  1.6487  0.3560  0.2515
 9465TIP3   OH249809   3.327   4.340  11.580  0.4068 -0.0718  0.7985
 9465TIP3    H149810   3.255   4.280  11.561  0.5537  0.3635 -1.4169
 9465TIP3    H249811   3.380   4.294  11.645  1.5064 -3.2717 -2.0503
 9466TIP3   OH249812   2.451   2.682  17.042 -0.6753 -0.2227  0.1102
 9466TIP3    H149813   2.503   2.736  16.981 -1.6750  1.7970  0.9568
 9466TIP3    H249814   2.463   2.592  17.010  2.4496  0.2384 -0.3702
 9467TIP3   OH249815   4.821   2.035   4.246  0.1239 -0.5569 -0.5016
 9467TIP3    H149816   4.849   2.121   4.215 -0.2625 -0.4372 -0.5270
 9467TIP3    H249817   4.902   1.985   4.256  0.2975 -0.3993 -1.1081
 9468TIP3   OH249818   4.890   0.781   3.716  0.1345  0.2734 -0.0705
 9468TIP3    H149819   4.951   0.709   3.730  1.7862  1.1165 -2.2598
 9468TIP3    H249820   4.868   0.777   3.623 -1.4972  1.2646  0.2366
 9469TIP3   OH249821   4.182   0.467  16.357 -0.3692 -0.0454  0.2741
 9469TIP3    H149822   4.222   0.544  16.317  1.0697 -1.5441 -1.3307
 9469TIP3    H249823   4.137   0.423  16.285 -0.1759 -1.3183  0.9162
 9470TIP3   OH249824   0.484   2.894   0.466  0.3620 -0.3126 -0.2113
 9470TIP3    H149825   0.493   2.829   0.535 -2.4794 -0.0538  0.5266
 9470TIP3    H249826   0.397   2.878   0.428  0.8329  1.1310 -2.0758
 9471TIP3   OH249827   4.200   0.486   3.487  0.3180  0.1615  0.4251
 9471TIP3    H149828   4.122   0.431   3.491 -1.3252  2.3644  1.6074
 9471TIP3    H249829   4.237   0.481   3.575  0.2212  0.7896  0.5112
 9472TIP3   OH249830   0.081   0.688  14.027 -0.9534  0.7840 -0.0131
 9472TIP3    H149831   0.003   0.633  14.025  0.1912 -0.8979  0.4248
 9472TIP3    H249832   0.117   0.682  13.938 -1.2229  1.4348 -0.1720
 9473TIP3   OH249833   0.869   2.952  12.493 -0.3021 -0.4788  0.2106
 9473TIP3    H149834   0.940   2.951  12.558 -0.3424  1.7393  0.3734
 9473TIP3    H249835   0.826   2.868  12.504  0.2126 -0.5247  2.5156
 9474TIP3   OH249836   0.905   6.456   4.710 -0.1598  0.2114  0.5064
 9474TIP3    H149837   0.850   6.384   4.679  1.8433 -0.4478 -1.7850
 9474TIP3    H249838   0.994   6.421   4.711  0.5598  1.9169  1.8826
 9475TIP3   OH249839   0.803   6.427  13.309  0.3820  0.2638  0.9005
 9475TIP3    H149840   0.731   6.392  13.363 -0.6425  0.1120 -0.5070
 9475TIP3    H249841   0.865   6.355  13.301 -0.4937 -0.4242  0.1218
 9476TIP3   OH249842   5.154   5.825  12.517 -0.5348  0.0347 -0.3524
 9476TIP3    H149843   5.099   5.902  12.532 -0.7866  0.1103 -1.5562
 9476TIP3    H249844   5.124   5.789  12.434 -1.8314 -2.6364  1.1546
 9477TIP3   OH249845   2.221   0.353  12.140 -0.1593 -0.3503 -0.1715
 9477TIP3    H149846   2.270   0.383  12.216  0.4652  2.1611 -1.4761
 9477TIP3    H249847   2.281   0.363  12.066 -2.1549  1.6722 -1.6362
 9478TIP3   OH249848   2.250   2.665   2.431 -0.6062  0.2043 -0.1214
 9478TIP3    H149849   2.199   2.618   2.498  1.1359 -0.6283  0.6752
 9478TIP3    H249850   2.275   2.747   2.474  0.6374 -0.3939  0.3512
 9479TIP3   OH249851   3.758   1.976  12.494 -0.5038  0.4392 -0.0354
 9479TIP3    H149852   3.773   2.059  12.539 -0.5500  0.7833 -0.6480
 9479TIP3    H249853   3.845   1.937  12.486 -0.5427  0.2004  0.6855
 9480TIP3   OH249854   2.589   6.538  13.725  0.0795  0.2251 -0.2753
 9480TIP3    H149855   2.508   6.555  13.773  0.5588  2.2153 -0.1135
 9480TIP3    H249856   2.604   6.617  13.673  2.2986  0.2176  0.2683
 9481TIP3   OH249857   6.413   5.296   1.024 -0.3182  0.6546  0.2262
 9481TIP3    H149858   6.476   5.353   0.980  2.8656 -2.4385  0.2602
 9481TIP3    H249859   6.437   5.301   1.117  0.3175 -0.9038  0.1863
 9482TIP3   OH249860   0.246   6.538   3.591  0.4386 -0.2044 -0.1212
 9482TIP3    H149861   0.267   6.488   3.512  0.2902  0.1624 -0.3968
 9482TIP3    H249862   0.329   6.579   3.615  0.8740 -1.5723  0.8365
 9483TIP3   OH249863   2.163   2.849   1.382 -0.0164  0.3044 -0.1566
 9483TIP3    H149864   2.161   2.756   1.403 -0.1289  0.0740 -1.1014
 9483TIP3    H249865   2.110   2.891   1.449  0.3167 -0.2700  0.4683
 9484TIP3   OH249866   5.979   1.871  15.172 -0.1392 -1.1496 -0.2457
 9484TIP3    H149867   6.051   1.842  15.116 -0.5826 -3.2645  0.2003
 9484TIP3    H249868   5.965   1.962  15.147  0.2912 -1.7144 -2.9119
 9485TIP3   OH249869   2.964   3.984   2.465 -0.3467 -0.4735  0.0704
 9485TIP3    H149870   2.990   4.001   2.375  0.4651 -4.2082 -0.5936
 9485TIP3    H249871   2.869   3.978   2.463 -0.6744  2.9865  0.3297
 9486TIP3   OH249872   5.938   3.752   4.421 -0.1037 -0.3755 -0.0316
 9486TIP3    H149873   5.863   3.736   4.477 -1.0410  1.4523 -0.6556
 9486TIP3    H249874   5.904   3.744   4.332  0.7934 -0.9379 -0.3364
 9487TIP3   OH249875   1.665   1.112   2.920 -0.0541  0.3113  0.1729
 9487TIP3    H149876   1.726   1.172   2.962  1.0010  0.3637 -1.3221
 9487TIP3    H249877   1.598   1.168   2.882 -0.1600  0.3877  0.4745
 9488TIP3   OH249878   2.502   2.994  15.082 -0.1998 -0.6445  0.3393
 9488TIP3    H149879   2.497   3.046  15.002  0.5811  0.1076  0.7542
 9488TIP3    H249880   2.439   2.924  15.070 -2.1091  0.9987  0.1912
 9489TIP3   OH249881   0.216   4.021  11.703  0.1904  0.5515  0.0717
 9489TIP3    H149882   0.167   3.949  11.663  1.7772  0.0032 -1.0046
 9489TIP3    H249883   0.219   3.998  11.796 -0.3338 -0.1668 -0.0767
 9490TIP3   OH249884   4.429   1.068   0.315 -0.5285 -0.7030 -0.1511
 9490TIP3    H149885   4.474   1.055   0.231 -2.0864 -2.2535 -0.8103
 9490TIP3    H249886   4.469   1.003   0.373  0.6479  0.4643  0.4074
 9491TIP3   OH249887   2.536   4.703   1.573 -0.1645 -0.0356  0.5387
 9491TIP3    H149888   2.530   4.642   1.646 -0.2936  0.4168  0.9083
 9491TIP3    H249889   2.491   4.659   1.501  2.1978 -1.6494 -0.0671
 9492TIP3   OH249890   0.181   2.867   4.258 -0.1078  0.1056 -0.0685
 9492TIP3    H149891   0.170   2.863   4.353 -1.0972 -0.3155 -0.1921
 9492TIP3    H249892   0.115   2.807   4.224  0.5781 -0.1332 -1.0076
 9493TIP3   OH249893   0.571   1.404   2.287 -0.2066  0.3451 -0.5663
 9493TIP3    H149894   0.482   1.404   2.321 -0.6179  1.9214 -1.5430
 9493TIP3    H249895   0.613   1.479   2.330  1.0668 -1.0769  0.8103
 9494TIP3   OH249896   0.206   3.408  17.127  0.6406  0.3592 -0.1953
 9494TIP3    H149897   0.143   3.343  17.097  0.4384  1.1623 -1.6069
 9494TIP3    H249898   0.254   3.433  17.048 -0.6281  3.3498 -0.1627
 9495TIP3   OH249899   4.643   5.593  12.464  0.0631 -0.0191  0.4483
 9495TIP3    H149900   4.730   5.609  12.428 -0.1387  0.2480  0.0757
 9495TIP3    H249901   4.582   5.628  12.398 -0.3189  0.0617  0.8362
 9496TIP3   OH249902   4.187   5.594   3.839  1.0201 -0.3095 -0.2486
 9496TIP3    H149903   4.126   5.574   3.910  0.5846  0.5013 -0.3805
 9496TIP3    H249904   4.138   5.573   3.759  0.3349  1.7105 -0.4170
 9497TIP3   OH249905   1.452   4.272  15.757 -0.2788 -0.0441 -0.4645
 9497TIP3    H149906   1.357   4.281  15.767 -0.2071 -0.4926  0.8490
 9497TIP3    H249907   1.483   4.250  15.845  0.9015 -1.1062 -1.1150
 9498TIP3   OH249908   2.777   0.385   0.170 -0.2863  0.0142  0.3338
 9498TIP3    H149909   2.746   0.455   0.112 -0.6718 -0.2509  0.2175
 9498TIP3    H249910   2.737   0.404   0.254  0.3221  0.4333  0.5323
 9499TIP3   OH249911   3.023   2.380  16.441 -0.2326 -0.0800  0.0368
 9499TIP3    H149912   3.097   2.377  16.502  0.4977 -0.9421 -0.8736
 9499TIP3    H249913   2.948   2.350  16.493  0.2121  0.0012  0.7355
 9500TIP3   OH249914   6.321   1.192  13.573  0.0325  0.0868 -0.1928
 9500TIP3    H149915   6.386   1.234  13.630 -1.2107  0.5074  0.9752
 9500TIP3    H249916   6.307   1.105  13.612 -2.9885  1.3890  2.1081
 9501TIP3   OH249917   2.212   3.537  15.761  0.2008 -0.1610  0.2429
 9501TIP3    H149918   2.304   3.559  15.780  1.1528 -1.9531 -1.8937
 9501TIP3    H249919   2.200   3.450  15.798  0.1898 -1.0318 -1.7173
 9502TIP3   OH249920   2.049   0.914   0.785  0.7978  0.1764 -0.4262
 9502TIP3    H149921   1.958   0.886   0.774  1.0656 -1.1918  0.5884
 9502TIP3    H249922   2.086   0.852   0.848  2.4286  0.7394 -0.7786
 9503TIP3   OH249923   6.014   3.733  14.531 -0.0961  0.0663 -0.0181
 9503TIP3    H149924   5.973   3.815  14.504  3.0681  1.3351 -1.5143
 9503TIP3    H249925   5.987   3.721  14.622 -1.5595  2.1383 -0.1191
 9504TIP3   OH249926   1.118   6.325   3.243 -0.2970  0.3149 -0.6987
 9504TIP3    H149927   1.054   6.264   3.280 -1.1048  1.9214  0.6698
 9504TIP3    H249928   1.068   6.376   3.180  0.2172  0.0578 -1.3293
 9505TIP3   OH249929   2.884   0.632   0.924 -0.0601  0.1779 -0.4880
 9505TIP3    H149930   2.869   0.674   0.839 -0.8581 -2.3260 -1.6695
 9505TIP3    H249931   2.905   0.541   0.903 -1.8309 -0.9301  2.0278
 9506TIP3   OH249932   2.029   1.961   4.331 -0.2804  0.4775  0.6976
 9506TIP3    H149933   2.103   2.006   4.371 -0.0821 -0.6284  1.6522
 9506TIP3    H249934   2.068   1.909   4.261  0.0390 -0.7893  1.7546
 9507TIP3   OH249935   1.980   0.585   5.555  0.3585  0.1119 -0.1987
 9507TIP3    H149936   2.065   0.576   5.513 -0.0901 -0.7522 -0.9484
 9507TIP3    H249937   1.951   0.495   5.571 -0.1010  0.4077  0.7035
 9508TIP3   OH249938   4.802   1.574   1.698  0.4212 -0.1849  0.0368
 9508TIP3    H149939   4.887   1.530   1.705 -0.0927 -1.3318 -0.6332
 9508TIP3    H249940   4.782   1.573   1.605 -1.4506 -2.2302  0.3719
 9509TIP3   OH249941   4.385   3.096   4.165  0.2435 -0.1661  0.3878
 9509TIP3    H149942   4.311   3.062   4.214  0.5373  0.2034  1.0966
 9509TIP3    H249943   4.386   3.044   4.084 -1.5258  0.6563 -0.2068
 9510TIP3   OH249944   6.177   0.821   5.519 -0.4477  0.0216 -0.0890
 9510TIP3    H149945   6.146   0.733   5.542  1.3131 -0.7398 -0.4163
 9510TIP3    H249946   6.147   0.835   5.430  1.9913 -1.7248 -1.3297
 9511TIP3   OH249947   0.003   3.903   0.943 -0.3045  0.5479 -0.6799
 9511TIP3    H149948  -0.025   3.921   0.853  1.1107  2.0274 -0.8668
 9511TIP3    H249949  -0.079   3.892   0.992 -1.1230  1.3173 -1.8460
 9512TIP3   OH249950   4.882   2.738   2.305  0.1222  0.2448  0.6614
 9512TIP3    H149951   4.834   2.806   2.258 -1.3558 -1.0305  0.2313
 9512TIP3    H249952   4.882   2.768   2.396 -1.3713  0.3988  0.6420
 9513TIP3   OH249953   2.345   4.121   1.171  0.0093  0.1234 -0.6807
 9513TIP3    H149954   2.324   4.137   1.079 -2.0543 -0.8429 -0.4238
 9513TIP3    H249955   2.405   4.047   1.170 -0.1165  0.0294 -1.2312
 9514TIP3   OH249956   3.161   1.684   5.599 -0.6963  0.2030 -0.5558
 9514TIP3    H149957   3.115   1.698   5.682 -2.0844 -0.4789 -1.1799
 9514TIP3    H249958   3.122   1.605   5.562  0.7450 -0.1973 -1.3053
 9515TIP3   OH249959   2.757   2.331  12.748  0.1143  0.8611 -0.5061
 9515TIP3    H149960   2.826   2.350  12.685  0.4945  1.2673  0.0219
 9515TIP3    H249961   2.775   2.390  12.822 -0.2795  0.3561  0.0046
 9516TIP3   OH249962   0.365   0.132   5.971  0.7956  0.4519 -0.4080
 9516TIP3    H149963   0.422   0.093   6.037  0.9265  0.7634 -0.3385
 9516TIP3    H249964   0.282   0.145   6.016 -0.0074 -1.9316 -1.0677
 9517TIP3   OH249965   3.622   2.008  16.828 -0.4017  0.0670 -0.2768
 9517TIP3    H149966   3.538   2.052  16.809 -0.2678  0.6782  0.4869
 9517TIP3    H249967   3.684   2.080  16.841  0.5872 -0.3873 -2.2409
 9518TIP3   OH249968   3.010   0.665   5.013 -0.0232 -0.3574  0.0254
 9518TIP3    H149969   3.074   0.640   4.947  1.3126  0.7692  0.8383
 9518TIP3    H249970   3.025   0.758   5.028 -0.4292 -0.5234  1.7424
 9519TIP3   OH249971   5.345   5.097   4.469 -0.7294  0.0342 -0.4038
 9519TIP3    H149972   5.391   5.132   4.546 -1.6050  1.9046 -0.6599
 9519TIP3    H249973   5.354   5.002   4.477  1.5017  0.2619  0.5540
 9520TIP3   OH249974   1.810   4.858   0.868  0.0985 -0.4068  0.1451
 9520TIP3    H149975   1.805   4.788   0.934  1.0392 -0.0800  0.5828
 9520TIP3    H249976   1.816   4.939   0.919 -0.1209 -0.0752 -0.3536
 9521TIP3   OH249977   5.924   6.297   0.016  0.2936  0.1369  0.3160
 9521TIP3    H149978   5.918   6.209   0.053 -0.2950  0.5202  1.1583
 9521TIP3    H249979   5.847   6.306  -0.040  0.7928 -0.1695 -0.4516
 9522TIP3   OH249980   3.909   4.892  16.420  0.0996 -0.2449 -0.0734
 9522TIP3    H149981   3.971   4.864  16.488 -1.5194  0.3070  1.7224
 9522TIP3    H249982   3.962   4.942  16.358  2.0788 -2.7158 -0.5393
 9523TIP3   OH249983   5.816   0.674  13.619 -0.2440  0.0091  0.8631
 9523TIP3    H149984   5.853   0.587  13.634 -0.2125 -0.1380 -0.0223
 9523TIP3    H249985   5.887   0.722  13.576 -0.8031 -0.0304 -0.1230
 9524TIP3   OH249986   1.700   6.012  12.283 -0.3273 -0.5759  0.7938
 9524TIP3    H149987   1.698   5.917  12.277  0.5465 -0.5464 -0.4896
 9524TIP3    H249988   1.633   6.041  12.220  0.6092 -0.3508 -0.1328
 9525TIP3   OH249989   2.210   4.177   0.561  0.1738  0.2567 -0.4068
 9525TIP3    H149990   2.248   4.215   0.482 -0.6203  0.3011 -0.7699
 9525TIP3    H249991   2.251   4.226   0.633 -1.1792  2.1744 -0.8679
 9526TIP3   OH249992   2.029   5.803  11.541  0.2514 -0.5974 -0.1010
 9526TIP3    H149993   2.100   5.856  11.503  1.0150 -1.5984 -0.0924
 9526TIP3    H249994   1.995   5.754  11.466  1.4713 -2.2498  0.3796
 9527TIP3   OH249995   6.598   2.904  11.932  0.3540  0.0124  0.3215
 9527TIP3    H149996   6.571   2.896  11.841  2.0368  0.4809 -0.2575
 9527TIP3    H249997   6.633   2.818  11.955 -0.0992 -0.1148  0.5306
 9528TIP3   OH249998   1.804   2.809  13.257 -0.3458  0.2138  0.1947
 9528TIP3    H149999   1.899   2.815  13.262 -0.1014 -1.3262 -1.5145
 9528TIP3    H250000   1.772   2.862  13.330  1.8101  0.6838  0.8507
 9529TIP3   OH250001   2.075   0.319   2.827  0.1469 -0.0691  0.0259
 9529TIP3    H150002   2.069   0.300   2.920 -2.4710 -2.2733 -0.4739
 9529TIP3    H250003   2.107   0.238   2.787 -1.4928 -0.1541 -1.2222
 9530TIP3   OH250004   0.908   1.644   2.692 -0.1020  0.5516 -0.3344
 9530TIP3    H150005   0.827   1.694   2.702 -0.0481  0.7605 -0.9423
 9530TIP3    H250006   0.948   1.677   2.612 -0.1765 -0.6154 -0.8839
 9531TIP3   OH250007   6.244   1.322  12.689 -0.2682  0.0999 -0.4681
 9531TIP3    H150008   6.311   1.387  12.707 -0.1800 -0.5240  1.7159
 9531TIP3    H250009   6.291   1.251  12.645 -0.3988  1.4747 -3.0337
 9532TIP3   OH250010   3.268   1.933   5.473  0.1991 -0.3568 -0.0632
 9532TIP3    H150011   3.241   1.843   5.494  0.4256 -0.3328  0.3322
 9532TIP3    H250012   3.266   1.936   5.377 -2.3636  0.0034 -0.0755
 9533TIP3   OH250013   1.937   6.075   0.687 -0.3324  0.4422  0.1965
 9533TIP3    H150014   1.867   6.133   0.716  0.1929  1.0872  0.2105
 9533TIP3    H250015   1.973   6.038   0.768 -0.6812  0.0838  0.1864
 9534TIP3   OH250016   6.504   4.996  16.394  0.0261 -0.5081 -0.2738
 9534TIP3    H150017   6.442   5.068  16.391  0.6674  0.1372  1.0983
 9534TIP3    H250018   6.505   4.969  16.486  0.4362 -1.7042 -0.6116
 9535TIP3   OH250019   4.204   5.001  15.628  1.1957 -0.1281  0.4616
 9535TIP3    H150020   4.205   5.044  15.543  0.4042  0.9397  0.9760
 9535TIP3    H250021   4.112   4.981  15.644  0.8955  2.2555  2.2908
 9536TIP3   OH250022   1.911   5.663   0.972 -0.0780 -0.1851  0.0438
 9536TIP3    H150023   1.980   5.621   1.024  0.9122 -0.7232 -1.6284
 9536TIP3    H250024   1.948   5.670   0.884 -2.1240 -0.4106 -0.8946
 9537TIP3   OH250025   2.646   6.116  14.287  0.0881  0.5324  0.7525
 9537TIP3    H150026   2.661   6.061  14.210 -0.5754  1.9247 -0.4248
 9537TIP3    H250027   2.733   6.149  14.310  0.1962  0.7197  0.1074
 9538TIP3   OH250028   4.297   1.431  14.845 -0.1487  0.4698 -0.0415
 9538TIP3    H150029   4.383   1.444  14.804  1.4356 -1.4161  2.3504
 9538TIP3    H250030   4.273   1.341  14.821 -1.2529  0.8274 -0.3006
 9539TIP3   OH250031   1.760   5.829  15.356  0.1682  0.4830 -0.6011
 9539TIP3    H150032   1.724   5.894  15.296 -0.1342  0.1408 -0.7919
 9539TIP3    H250033   1.852   5.854  15.366  0.1931  0.6123 -1.1158
 9540TIP3   OH250034   0.784   0.606   2.521  0.1410 -0.0619 -0.0682
 9540TIP3    H150035   0.826   0.673   2.574  0.9732  1.0851 -2.0610
 9540TIP3    H250036   0.852   0.578   2.460 -0.6656 -1.5811 -0.3308
 9541TIP3   OH250037   4.200   4.933   2.544 -0.4123  0.4868 -0.2012
 9541TIP3    H150038   4.192   5.028   2.558 -0.6440  0.4078  0.2277
 9541TIP3    H250039   4.282   4.910   2.589 -1.0346  0.2720  0.8622
 9542TIP3   OH250040   1.347   0.687   1.914 -0.4414  0.0320 -0.5234
 9542TIP3    H150041   1.260   0.717   1.940 -0.1415 -0.2106  0.8152
 9542TIP3    H250042   1.330   0.605   1.866 -1.0977  1.1980 -2.4005
 9543TIP3   OH250043   6.095   2.735   2.985  0.4392  0.4291 -0.1792
 9543TIP3    H150044   6.149   2.811   2.965 -0.6322  0.9685 -1.1162
 9543TIP3    H250045   6.015   2.771   3.023  0.7391 -0.3648  1.2681
 9544TIP3   OH250046   6.638   3.057  12.297  0.2676  0.2800  0.3313
 9544TIP3    H150047   6.653   3.019  12.384  2.4335  0.2581  0.0004
 9544TIP3    H250048   6.560   3.012  12.265 -1.0812  0.8726  2.5550
 9545TIP3   OH250049   5.968   1.767   3.202 -0.1334  0.0809 -0.8468
 9545TIP3    H150050   6.027   1.841   3.193 -0.7223  0.6408 -0.1563
 9545TIP3    H250051   5.888   1.795   3.157  0.1372 -0.7152 -1.8789
 9546TIP3   OH250052   0.689   5.789   2.714  0.1153 -0.2909 -0.4937
 9546TIP3    H150053   0.682   5.835   2.630  0.1325  0.2122 -0.2203
 9546TIP3    H250054   0.598   5.775   2.741  0.0975  0.8993  0.1335
 9547TIP3   OH250055   2.188   1.724   4.684 -0.2628  0.3767 -0.6780
 9547TIP3    H150056   2.210   1.742   4.593 -0.8250 -2.0689 -1.3593
 9547TIP3    H250057   2.268   1.686   4.721  0.1656  1.9229  0.0700
 9548TIP3   OH250058   4.010   3.705   5.411  0.3045  0.2928 -0.2026
 9548TIP3    H150059   4.063   3.682   5.488 -0.2693 -1.4483 -0.2807
 9548TIP3    H250060   4.008   3.801   5.412  1.3615  0.3478  1.2254
 9549TIP3   OH250061   2.673   4.141   5.790  0.3530  0.1843 -0.7807
 9549TIP3    H150062   2.622   4.144   5.709  0.3964 -1.9856 -0.9625
 9549TIP3    H250063   2.761   4.118   5.762  0.6574  0.6422 -0.2139
 9550TIP3   OH250064   0.252   3.588  15.178 -0.4814 -0.5718  0.2742
 9550TIP3    H150065   0.292   3.506  15.148  0.2057 -0.0815 -0.1857
 9550TIP3    H250066   0.239   3.639  15.098 -0.0891  0.1184  0.6383
 9551TIP3   OH250067   5.016   0.485   4.280 -0.0736  0.0444 -0.1095
 9551TIP3    H150068   4.961   0.474   4.202 -1.0162 -0.6029  0.6320
 9551TIP3    H250069   4.955   0.508   4.350  0.9550  2.4350  0.1023
 9552TIP3   OH250070   5.418   5.990  13.962 -0.7402  0.4314 -0.1349
 9552TIP3    H150071   5.399   5.947  14.045  1.1396  0.9193  0.6076
 9552TIP3    H250072   5.332   6.005  13.922 -1.5880 -1.3779  0.8927
 9553TIP3   OH250073   4.933   0.738   3.107 -0.4530  0.9549 -0.0506
 9553TIP3    H150074   4.924   0.712   3.015 -2.9480  3.2582 -0.5658
 9553TIP3    H250075   4.890   0.668   3.156  0.7494 -0.2081 -0.5836
 9554TIP3   OH250076   4.631   6.550  12.926 -0.0729 -0.1078 -0.3342
 9554TIP3    H150077   4.550   6.601  12.936 -1.5246 -2.1701 -1.0163
 9554TIP3    H250078   4.693   6.593  12.985 -3.0568 -1.2810  4.1832
 9555TIP3   OH250079   2.826   1.374  12.524 -0.2780 -0.0831 -0.5293
 9555TIP3    H150080   2.775   1.316  12.468 -1.4103  0.8664 -0.5034
 9555TIP3    H250081   2.835   1.326  12.607  0.9406 -1.2554 -1.2941
 9556TIP3   OH250082   2.155   1.814  12.803 -0.5574 -0.1101  0.0183
 9556TIP3    H150083   2.083   1.777  12.752 -1.1407  1.1950 -0.1496
 9556TIP3    H250084   2.142   1.909  12.797  2.1094  0.2539 -1.4000
 9557TIP3   OH250085   6.007   4.050   6.298  0.3242  0.0240  0.2022
 9557TIP3    H150086   6.043   4.134   6.269  1.8457 -0.1739  1.3950
 9557TIP3    H250087   6.076   4.012   6.353 -0.4071 -1.9355 -0.1627
 9558TIP3   OH250088   4.809   6.555  15.195  0.2651  0.4221 -0.0197
 9558TIP3    H150089   4.731   6.589  15.241 -0.2728 -1.6980  0.7518
 9558TIP3    H250090   4.806   6.597  15.109 -2.7946 -0.8812 -0.6928
 9559TIP3   OH250091   1.797   4.766   4.155  0.3867 -0.4150 -0.2789
 9559TIP3    H150092   1.787   4.674   4.130  2.0796 -0.8228  0.4118
 9559TIP3    H250093   1.780   4.815   4.075 -2.8784 -1.1181 -0.1682
 9560TIP3   OH250094   3.297   5.464   1.882 -0.0381  0.4915 -0.3143
 9560TIP3    H150095   3.245   5.542   1.859 -0.6031  0.1280 -0.2817
 9560TIP3    H250096   3.358   5.454   1.809 -1.3181 -0.2125 -1.3133
 9561TIP3   OH250097   5.945   2.651   4.344 -0.1788 -0.5085  0.8915
 9561TIP3    H150098   5.874   2.594   4.375 -1.0562 -0.3914 -0.8041
 9561TIP3    H250099   5.928   2.662   4.251  1.2629  0.7202  0.7390
 9562TIP3   OH250100   2.920   5.752  13.163 -0.0664  0.7152  0.5493
 9562TIP3    H150101   2.885   5.720  13.079  1.8477 -2.4579  0.7866
 9562TIP3    H250102   2.845   5.751  13.222 -0.4799 -2.2614  0.1360
 9563TIP3   OH250103   3.236   4.827  12.564  0.4333  0.7095  0.1766
 9563TIP3    H150104   3.230   4.739  12.600 -1.4078  0.4274 -0.7284
 9563TIP3    H250105   3.329   4.840  12.547  0.7909 -0.8289  0.8490
 9564TIP3   OH250106   3.665   2.233   3.259 -0.2562  0.0019 -0.0087
 9564TIP3    H150107   3.702   2.152   3.225  0.9389  0.0956  1.0164
 9564TIP3    H250108   3.728   2.301   3.233 -0.1345  0.2888  1.0064
 9565TIP3   OH250109   0.634   2.904  13.781 -0.1457  0.9695  0.5203
 9565TIP3    H150110   0.726   2.931  13.774  0.2189  0.0925  1.5287
 9565TIP3    H250111   0.639   2.809  13.795 -1.3189  0.5492 -1.6404
 9566TIP3   OH250112   1.947   4.715  16.782 -0.5115 -0.3356  0.7444
 9566TIP3    H150113   2.034   4.753  16.776  0.2977 -2.2489 -1.4519
 9566TIP3    H250114   1.896   4.760  16.715 -1.0276  0.2980  1.5511
 9567TIP3   OH250115   1.418   4.237   6.051 -0.0134 -0.4119 -0.2986
 9567TIP3    H150116   1.513   4.236   6.047  0.0283  1.4794 -0.8600
 9567TIP3    H250117   1.397   4.321   6.093 -1.4230 -1.0406  0.3062
 9568TIP3   OH250118   1.368   3.047   2.362 -0.1322 -0.9935  0.4242
 9568TIP3    H150119   1.380   3.049   2.457 -2.4375 -0.4001  0.7671
 9568TIP3    H250120   1.403   3.131   2.332 -1.9827  0.1039  1.1733
 9569TIP3   OH250121   0.210   6.278   2.026 -0.0929  0.1474 -0.2689
 9569TIP3    H150122   0.253   6.269   2.111  1.1110 -0.0551 -0.8691
 9569TIP3    H250123   0.234   6.366   1.996 -1.3428  0.6100  0.0191
 9570TIP3   OH250124   2.161   3.215  16.506 -0.2658 -0.5097 -0.4730
 9570TIP3    H150125   2.088   3.161  16.537  1.5273 -2.8118 -0.0497
 9570TIP3    H250126   2.188   3.174  16.424 -1.3702  2.2333 -2.3829
 9571TIP3   OH250127   3.787   1.421   4.138  0.1571  0.5359 -0.2341
 9571TIP3    H150128   3.791   1.360   4.211 -1.1735 -0.5569 -1.0168
 9571TIP3    H250129   3.700   1.410   4.102  0.2731  2.1079 -1.1181
 9572TIP3   OH250130   2.617   4.987   2.726  0.2956  0.1613 -0.2746
 9572TIP3    H150131   2.705   5.024   2.723 -0.0326  0.8772 -1.8348
 9572TIP3    H250132   2.631   4.892   2.723  1.0247  0.2390  0.3230
 9573TIP3   OH250133   3.817   1.553  15.745 -0.0088 -0.4476  0.4732
 9573TIP3    H150134   3.900   1.507  15.730 -0.6204 -1.2849 -0.5255
 9573TIP3    H250135   3.827   1.594  15.831  2.0205  0.8101 -0.2953
 9574TIP3   OH250136   3.048   6.023  15.885  0.6914 -0.2786 -0.0589
 9574TIP3    H150137   2.980   5.996  15.823  1.6849 -0.6860 -1.0101
 9574TIP3    H250138   3.106   6.078  15.833  0.0767  1.6608  1.2203
 9575TIP3   OH250139   5.241   5.899  12.870  0.0551 -0.1927  0.0001
 9575TIP3    H150140   5.167   5.843  12.893 -0.5543  0.8515  0.6846
 9575TIP3    H250141   5.272   5.932  12.955 -0.1584  1.1678 -0.4303
 9576TIP3   OH250142   1.125   6.780   5.781 -0.4710  0.4762 -0.1565
 9576TIP3    H150143   1.074   6.828   5.846  1.5298  1.1939  0.9811
 9576TIP3    H250144   1.167   6.709   5.830  1.3447  1.2289 -0.5114
 9577TIP3   OH250145   6.605   2.330   3.264 -0.6005 -0.3665 -0.4853
 9577TIP3    H150146   6.553   2.305   3.341 -1.1190 -2.5340 -1.4527
 9577TIP3    H250147   6.690   2.289   3.278 -0.3104  0.1956 -0.5590
 9578TIP3   OH250148   0.447   3.331  16.270  0.0121 -0.0566 -0.1546
 9578TIP3    H150149   0.440   3.422  16.240 -0.5795 -0.0462  0.0160
 9578TIP3    H250150   0.469   3.281  16.192  0.3493  0.2308 -0.2477
 9579TIP3   OH250151   5.390   0.390  14.761 -0.7639  0.0604  0.4088
 9579TIP3    H150152   5.409   0.351  14.847 -0.5990  2.4184  1.5246
 9579TIP3    H250153   5.296   0.409  14.763 -0.8666 -0.3557 -0.1678
 9580TIP3   OH250154   1.080   1.650   6.435  0.3211 -0.0705 -0.4219
 9580TIP3    H150155   1.050   1.586   6.499  0.2941 -0.0022 -0.3648
 9580TIP3    H250156   1.014   1.720   6.439  0.3248 -0.0621 -0.5168
 9581TIP3   OH250157   5.396   1.388   4.426  0.3003 -0.3476 -0.2625
 9581TIP3    H150158   5.374   1.430   4.509 -0.8195  1.1211 -1.2513
 9581TIP3    H250159   5.469   1.440   4.392 -0.5202  0.2976 -1.0856
 9582TIP3   OH250160   4.344   6.008  12.933  0.0606  0.8196  0.2749
 9582TIP3    H150161   4.249   6.012  12.935 -0.0993 -0.8923 -1.2450
 9582TIP3    H250162   4.369   5.962  13.013 -0.7225 -2.0630 -1.0107
 9583TIP3   OH250163   2.729   6.061   6.287 -0.3062 -0.1413 -0.5786
 9583TIP3    H150164   2.646   6.056   6.239 -1.1495 -0.5802  0.8343
 9583TIP3    H250165   2.740   5.974   6.324 -1.4926  0.9402  2.7594
 9584TIP3   OH250166   0.219   0.858   3.408 -0.2135 -0.1072  0.3613
 9584TIP3    H150167   0.125   0.837   3.402 -0.0818 -0.8885  0.9850
 9584TIP3    H250168   0.232   0.923   3.338 -1.6481  1.6110  1.5771
 9585TIP3   OH250169   4.787   5.346   3.826  0.3017 -0.6754 -0.0090
 9585TIP3    H150170   4.877   5.334   3.857  0.5720  1.3102  0.1276
 9585TIP3    H250171   4.794   5.338   3.731  0.8672  0.6077 -0.0967
 9586TIP3   OH250172   5.143   4.612  12.205  0.1371  0.6078  0.1555
 9586TIP3    H150173   5.054   4.580  12.221  0.0903  0.7614  0.2068
 9586TIP3    H250174   5.159   4.593  12.113  0.7264 -1.0396  0.5706
 9587TIP3   OH250175   5.400   0.750   4.518  0.1024 -0.5127 -0.7875
 9587TIP3    H150176   5.355   0.701   4.587  1.6431  1.3959  1.7443
 9587TIP3    H250177   5.332   0.807   4.481 -0.7615 -1.6256 -0.9520
 9588TIP3   OH250178   3.803   3.964  13.751 -0.2657 -0.1235  0.1103
 9588TIP3    H150179   3.862   4.025  13.796  0.3319 -1.3234  0.9993
 9588TIP3    H250180   3.721   3.969  13.801 -0.5569  0.6693 -0.4211
 9589TIP3   OH250181   2.305   6.336   2.242 -0.0190  0.7584 -0.5584
 9589TIP3    H150182   2.317   6.241   2.235  0.0471  0.7840 -0.7695
 9589TIP3    H250183   2.224   6.345   2.294 -0.4273  0.5834 -1.1546
 9590TIP3   OH250184   6.301   6.496   1.429  0.0360 -0.6294  0.2715
 9590TIP3    H150185   6.296   6.573   1.373 -2.3684 -0.6921  0.2829
 9590TIP3    H250186   6.395   6.478   1.438  0.6570  2.1175  0.0733
 9591TIP3   OH250187   1.289   2.464  14.757 -0.1060 -0.7377  1.0253
 9591TIP3    H150188   1.239   2.475  14.838 -2.1595  1.3568 -0.3967
 9591TIP3    H250189   1.256   2.532  14.698  2.9958 -0.5803 -0.7966
 9592TIP3   OH250190   4.604   2.162  15.758  0.5765 -0.0919  0.1757
 9592TIP3    H150191   4.680   2.108  15.782  1.1972 -1.7163 -4.4602
 9592TIP3    H250192   4.640   2.246  15.733  0.1513  0.9205  2.7263
 9593TIP3   OH250193   3.831   6.327  16.444  0.0182  0.3801  0.3244
 9593TIP3    H150194   3.796   6.307  16.357  2.2651  0.6494 -0.6958
 9593TIP3    H250195   3.913   6.278  16.449  0.2656  0.8963  2.0365
 9594TIP3   OH250196   5.457   5.833  14.873 -0.3059 -0.5970 -0.1178
 9594TIP3    H150197   5.517   5.780  14.819  2.1781  0.0788  1.7889
 9594TIP3    H250198   5.429   5.904  14.814 -0.6561 -1.8714 -1.5611
 9595TIP3   OH250199   6.117   2.872  15.556  0.1034 -0.1492  0.0193
 9595TIP3    H150200   6.112   2.812  15.631 -0.5153  0.0226  0.1207
 9595TIP3    H250201   6.203   2.854  15.518  0.2607 -0.5278  0.5266
 9596TIP3   OH250202   4.813   1.551  16.941 -0.1953  0.0677 -0.7004
 9596TIP3    H150203   4.798   1.555  16.846 -0.3520 -4.3465 -1.0732
 9596TIP3    H250204   4.732   1.513  16.976 -0.2293  1.8202  1.3164
 9597TIP3   OH250205   3.493   1.526  10.684  0.3504  0.5980 -0.1509
 9597TIP3    H150206   3.525   1.573  10.608  0.3088  2.0977  0.7242
 9597TIP3    H250207   3.570   1.482  10.720  0.4403  0.1927 -0.8263
 9598TIP3   OH250208   1.564   6.634  11.170 -0.8310  0.1548 -0.1710
 9598TIP3    H150209   1.582   6.719  11.131 -2.4935 -0.4512 -2.4745
 9598TIP3    H250210   1.558   6.574  11.096 -0.2105 -1.8964  1.3462
 9599TIP3   OH250211   5.061   2.852  11.463  0.5224  0.0761  0.3391
 9599TIP3    H150212   5.096   2.939  11.480 -1.1552  1.7097 -3.4287
 9599TIP3    H250213   5.119   2.815  11.397 -0.7032 -0.1488 -0.6500
 9600TIP3   OH250214   1.008   0.121   5.991  0.0824  0.7652  1.0564
 9600TIP3    H150215   1.056   0.070   6.056  0.9328  0.2015  0.0172
 9600TIP3    H250216   0.916   0.097   6.005  0.5497 -2.2532 -0.3363
 9601TIP3   OH250217   3.103   1.809  12.821  0.0346  0.0161  0.4180
 9601TIP3    H150218   3.117   1.714  12.831 -0.7021 -0.1351  0.0747
 9601TIP3    H250219   3.010   1.817  12.800  0.0433  0.8406  0.6954
 9602TIP3   OH250220   2.967   2.100  12.116  0.1255  0.2415 -0.1221
 9602TIP3    H150221   2.882   2.114  12.074  0.4964 -1.5816 -1.6363
 9602TIP3    H250222   2.967   2.006  12.137  1.9367  0.0894 -0.6299
 9603TIP3   OH250223   0.764   2.441  14.410  0.3734  0.2486 -1.1276
 9603TIP3    H150224   0.765   2.526  14.452 -0.8216  0.6349 -1.8157
 9603TIP3    H250225   0.729   2.382  14.477 -3.2258  1.1728 -1.9801
 9604TIP3   OH250226   6.683   0.510  13.022 -0.2042 -0.2224  0.0894
 9604TIP3    H150227   6.698   0.430  12.971 -0.5740 -1.4240  1.7724
 9604TIP3    H250228   6.695   0.581  12.959  2.8546 -1.4322 -0.9013
 9605TIP3   OH250229   0.155   1.877  14.252  0.0932  0.1013 -0.5808
 9605TIP3    H150230   0.213   1.926  14.310 -0.6212  1.5048 -0.9895
 9605TIP3    H250231   0.069   1.916  14.267 -0.7632 -1.8432 -0.0632
 9606TIP3   OH250232   2.265   3.515   1.709 -0.5216  0.2364 -0.0835
 9606TIP3    H150233   2.305   3.494   1.794  0.7062 -0.9764 -0.9256
 9606TIP3    H250234   2.223   3.600   1.723 -0.8432 -0.1978  1.9008
 9607TIP3   OH250235   3.675   1.397  13.095  0.0218 -0.3946 -0.0612
 9607TIP3    H150236   3.672   1.332  13.024 -1.4270 -1.4911  0.9365
 9607TIP3    H250237   3.585   1.430  13.100 -0.4804 -1.9079  2.6027
 9608TIP3   OH250238   6.566   2.105  16.680  0.1516  0.2498 -0.3420
 9608TIP3    H150239   6.495   2.093  16.617  0.4083 -0.9285 -0.4166
 9608TIP3    H250240   6.624   2.169  16.638  0.1381 -0.2499 -1.1425
 9609TIP3   OH250241   4.117   4.047   0.490 -0.3987  0.0938 -0.0347
 9609TIP3    H150242   4.095   3.964   0.449 -0.4618  0.2141 -0.2472
 9609TIP3    H250243   4.091   4.036   0.581  1.4538 -0.8413  0.4272
 9610TIP3   OH250244   1.903   1.856   2.543 -1.1401 -0.0476 -0.2983
 9610TIP3    H150245   1.881   1.949   2.534 -0.9389  0.0483  0.1702
 9610TIP3    H250246   1.879   1.835   2.633 -0.7261 -0.3254 -0.2542
 9611TIP3   OH250247   0.545   3.718  13.032 -0.2707 -0.2754 -0.2232
 9611TIP3    H150248   0.543   3.761  13.117  1.1042 -0.6296 -0.0025
 9611TIP3    H250249   0.572   3.787  12.971 -1.3907  0.0145 -0.4193
 9612TIP3   OH250250   0.312   6.054  13.464 -0.1006  0.2669 -0.1439
 9612TIP3    H150251   0.271   6.132  13.426 -0.6340  1.2018  2.1621
 9612TIP3    H250252   0.244   5.987  13.462  0.3003 -0.1318 -1.9690
 9613TIP3   OH250253   4.606   3.663   5.344  0.2021 -0.7402  0.1955
 9613TIP3    H150254   4.557   3.618   5.412  0.8692 -1.8267 -0.0213
 9613TIP3    H250255   4.565   3.636   5.262  0.0130 -0.2109  0.1162
 9614TIP3   OH250256   1.227   3.268  14.072  0.2217  0.1814 -0.1389
 9614TIP3    H150257   1.235   3.354  14.031 -1.1767  0.5117  0.2407
 9614TIP3    H250258   1.234   3.206  13.999  1.3936  0.5893 -0.3930
 9615TIP3   OH250259   1.628   2.876  13.752 -0.4519 -0.3452 -0.7058
 9615TIP3    H150260   1.718   2.864  13.724 -0.3086  1.9459 -1.4546
 9615TIP3    H250261   1.633   2.935  13.827 -1.2803 -0.9033 -0.1899
 9616TIP3   OH250262   4.362   0.505  13.128 -0.7890 -0.1637 -0.4108
 9616TIP3    H150263   4.347   0.585  13.179 -0.1801 -0.8377  0.8945
 9616TIP3    H250264   4.390   0.536  13.042 -0.3782  1.0339  0.1268
 9617TIP3   OH250265   5.479   5.969   5.250 -0.1386 -0.0941  0.0436
 9617TIP3    H150266   5.424   6.048   5.250  1.4176  1.0709 -1.8606
 9617TIP3    H250267   5.568   6.001   5.236  0.4266 -2.2357 -1.8502
 9618TIP3   OH250268   6.093   2.687  14.031 -0.0178  0.7042 -0.6233
 9618TIP3    H150269   6.091   2.591  14.033  2.1381  0.5891 -1.4205
 9618TIP3    H250270   6.096   2.709  13.938  1.3459  1.4369 -0.4342
 9619TIP3   OH250271   3.396   6.237   5.316  0.2696 -0.2023  0.1547
 9619TIP3    H150272   3.460   6.188   5.264  0.9792 -0.2967  1.0923
 9619TIP3    H250273   3.344   6.169   5.360 -0.9555 -0.1410 -1.1310
 9620TIP3   OH250274   5.181   1.041  15.641  0.0928  0.7758  0.0041
 9620TIP3    H150275   5.273   1.062  15.628  0.9046 -1.7249  1.1077
 9620TIP3    H250276   5.150   1.013  15.555  0.6476  0.5947 -0.1378
 9621TIP3   OH250277   5.468   3.676   0.863  0.4240  0.0898 -0.4053
 9621TIP3    H150278   5.505   3.730   0.793  1.1609  1.0657  0.6996
 9621TIP3    H250279   5.426   3.738   0.921 -0.0384 -0.6933  0.1082
 9622TIP3   OH250280   1.307   2.242   5.114 -0.5306 -0.2052 -0.5946
 9622TIP3    H150281   1.396   2.273   5.131 -1.6085  2.8074  0.2282
 9622TIP3    H250282   1.312   2.147   5.126  2.7772 -0.3364 -1.8081
 9623TIP3   OH250283   5.878   2.226  15.685 -0.5815 -0.4881  0.4426
 9623TIP3    H150284   5.797   2.235  15.735 -0.9314  0.6162 -0.2968
 9623TIP3    H250285   5.869   2.287  15.612  0.9397 -0.2902  0.3793
 9624TIP3   OH250286   5.901   0.827   5.751 -0.6452  0.7697 -0.0117
 9624TIP3    H150287   5.878   0.918   5.769 -3.2499  0.7991 -2.6552
 9624TIP3    H250288   5.825   0.776   5.780 -0.1951 -0.2881 -0.6007
 9625TIP3   OH250289   6.586   1.043  14.517  0.0483  0.0151 -0.8615
 9625TIP3    H150290   6.669   0.996  14.525 -0.3855 -0.7549 -0.7266
 9625TIP3    H250291   6.599   1.104  14.444  1.6252  1.8582  0.8289
 9626TIP3   OH250292   0.688   4.726   1.973 -0.1035 -0.3108  0.6468
 9626TIP3    H150293   0.641   4.803   1.944 -0.0079 -0.3183  0.4732
 9626TIP3    H250294   0.724   4.687   1.893  0.0551 -0.3971  0.7579
 9627TIP3   OH250295   3.866   1.926  15.659 -0.1614 -0.8725 -0.2353
 9627TIP3    H150296   3.854   1.952  15.568 -0.2294  3.1106  0.7054
 9627TIP3    H250297   3.778   1.928  15.696  0.2181  1.5649  0.7084
 9628TIP3   OH250298   3.755   0.738  13.294 -0.4475  0.0112  0.3771
 9628TIP3    H150299   3.662   0.758  13.302 -0.2714  1.0397 -0.0582
 9628TIP3    H250300   3.757   0.653  13.248 -1.1660  0.7286 -1.0592
 9629TIP3   OH250301   0.099   2.622  11.588  0.0783 -0.0903  0.2989
 9629TIP3    H150302   0.111   2.527  11.592  0.4760  0.0008  1.6704
 9629TIP3    H250303   0.153   2.650  11.514 -1.0792 -1.0600 -0.9750
 9630TIP3   OH250304   1.341   4.624   1.052 -0.3020  0.1172 -0.1931
 9630TIP3    H150305   1.252   4.625   1.017 -0.6565  1.3468  0.6627
 9630TIP3    H250306   1.390   4.567   0.993 -1.1778  1.0036 -1.8536
 9631TIP3   OH250307   0.526   3.169   0.166 -1.0640  0.9784 -0.4194
 9631TIP3    H150308   0.495   3.170   0.257 -2.2868 -0.3220 -0.7833
 9631TIP3    H250309   0.488   3.089   0.129  0.4903  0.7954 -1.7124
 9632TIP3   OH250310   6.597   6.037  16.579 -0.4491  0.2631  0.0807
 9632TIP3    H150311   6.679   6.033  16.630 -0.1051 -1.0786 -0.5514
 9632TIP3    H250312   6.599   5.959  16.524 -1.4053  1.0471 -1.1129
 9633TIP3   OH250313   6.103   5.078  14.981  0.4433  0.1545 -0.1461
 9633TIP3    H150314   6.188   5.119  14.964  0.1103  0.8528 -0.1805
 9633TIP3    H250315   6.095   5.010  14.915 -0.1086  1.7330 -1.8005
 9634TIP3   OH250316   4.381   2.603  13.235  0.2070 -0.1957 -0.2137
 9634TIP3    H150317   4.319   2.667  13.199 -0.2511  0.6905  1.9583
 9634TIP3    H250318   4.327   2.527  13.256  0.4027 -0.5599 -1.0062
 9635TIP3   OH250319   5.160   0.457  12.727 -0.3171 -0.3858  0.5002
 9635TIP3    H150320   5.142   0.507  12.806 -2.0718 -0.8048  0.4030
 9635TIP3    H250321   5.075   0.425  12.698  0.5855 -2.4607 -0.1000
 9636TIP3   OH250322   2.727   3.642  11.282 -0.0658 -0.3902 -0.3362
 9636TIP3    H150323   2.638   3.608  11.283 -0.3807  0.3576 -1.3678
 9636TIP3    H250324   2.779   3.573  11.242 -0.3461 -0.4532 -0.5879
 9637TIP3   OH250325   1.166   4.251   0.197 -0.1209 -0.1219  0.1675
 9637TIP3    H150326   1.192   4.342   0.212  1.1441 -0.3152 -0.6678
 9637TIP3    H250327   1.246   4.201   0.212 -0.4851 -0.9651 -0.6268
 9638TIP3   OH250328   5.968   2.686   0.958 -0.2131  0.6213  0.2022
 9638TIP3    H150329   5.919   2.711   0.879  0.8210  2.4962  0.1022
 9638TIP3    H250330   5.901   2.679   1.026 -1.0115 -0.1726 -0.6249
 9639TIP3   OH250331   5.775   3.003   2.427 -0.0981  0.0747  0.2897
 9639TIP3    H150332   5.733   3.038   2.506  0.4045 -0.5434  0.8349
 9639TIP3    H250333   5.860   3.046   2.424  1.2355 -2.2612  1.8949
 9640TIP3   OH250334   6.216   6.507   4.469  0.1544  0.3570 -0.1776
 9640TIP3    H150335   6.225   6.602   4.463 -0.0717  0.3916  0.0305
 9640TIP3    H250336   6.196   6.491   4.561 -1.4703  0.2494 -0.5228
 9641TIP3   OH250337   4.065   5.016  16.232  0.1185  0.1594  0.4694
 9641TIP3    H150338   4.077   4.960  16.156  0.4034  0.6216  0.1690
 9641TIP3    H250339   4.154   5.027  16.267 -0.0575 -0.3772  1.1084
 9642TIP3   OH250340   1.373   1.663  16.302  0.0967  0.1601  0.6532
 9642TIP3    H150341   1.464   1.693  16.300 -0.0464  0.5720 -0.1984
 9642TIP3    H250342   1.322   1.742  16.289 -0.3187 -0.3120 -0.7230
 9643TIP3   OH250343   2.652   4.795  10.474  0.1349 -0.0406  0.2539
 9643TIP3    H150344   2.660   4.782  10.380  1.1812  0.5434  0.2406
 9643TIP3    H250345   2.719   4.738  10.512  1.1593  1.2578  0.4894
 9644TIP3   OH250346   2.830   4.694  10.912  0.4629  0.1931 -0.4652
 9644TIP3    H150347   2.915   4.659  10.936  1.1846  1.2728 -1.3139
 9644TIP3    H250348   2.767   4.627  10.938  1.3448  0.2966  2.2092
 9645TIP3   OH250349   0.331   1.583   6.184 -0.3138 -0.2019  0.1580
 9645TIP3    H150350   0.407   1.619   6.229 -1.2606  0.2356  1.4471
 9645TIP3    H250351   0.272   1.657   6.173 -0.2106 -0.3371 -1.6635
 9646TIP3   OH250352   3.931   2.332  11.626  0.3982  0.1772  0.1816
 9646TIP3    H150353   4.007   2.317  11.570  1.4876 -0.8587  1.8181
 9646TIP3    H250354   3.870   2.383  11.573  2.8781  2.4314 -0.6859
 9647TIP3   OH250355   0.948   4.182  11.610  0.5000 -0.0722  0.0421
 9647TIP3    H150356   0.956   4.129  11.688 -2.4825  0.7608  1.0686
 9647TIP3    H250357   0.936   4.119  11.539  0.3006 -0.8193  0.7258
 9648TIP3   OH250358   5.040   5.513   5.889 -0.5895 -0.6333 -0.2075
 9648TIP3    H150359   5.050   5.495   5.796 -1.6628  0.9056 -0.6684
 9648TIP3    H250360   5.127   5.540   5.919 -0.4053 -0.4044 -0.9420
 9649TIP3   OH250361   0.373   2.256  16.713 -0.2683 -0.1765 -1.0862
 9649TIP3    H150362   0.308   2.251  16.783 -0.0137 -0.0953 -0.8389
 9649TIP3    H250363   0.408   2.345  16.720  2.4068 -1.2511  1.1296
 9650TIP3   OH250364   6.368   5.875  11.033  0.1440  0.0145  0.1349
 9650TIP3    H150365   6.357   5.905  10.943  0.7274 -1.3848 -0.4273
 9650TIP3    H250366   6.305   5.803  11.043 -2.3525  2.2237  1.9381
 9651TIP3   OH250367   4.765   4.169   0.935 -0.0561 -0.4862  0.1604
 9651TIP3    H150368   4.748   4.230   0.864 -0.4449 -1.2842 -0.4441
 9651TIP3    H250369   4.728   4.212   1.013  1.6874  1.0662  0.1900
 9652TIP3   OH250370   4.955   0.732  13.613 -0.3884  0.1982  0.7662
 9652TIP3    H150371   4.886   0.667  13.600 -0.6212  0.8959 -1.9764
 9652TIP3    H250372   4.930   0.805  13.558  3.7302 -0.5279 -2.5632
 9653TIP3   OH250373   5.203   3.529   5.682 -0.6281  0.0017  0.1308
 9653TIP3    H150374   5.136   3.471   5.718 -0.2188 -0.4379  0.1945
 9653TIP3    H250375   5.188   3.614   5.725  1.1008 -0.9867  2.9313
 9654TIP3   OH250376   2.619   6.723   0.078  1.0136  0.3326 -0.5317
 9654TIP3    H150377   2.545   6.765   0.122 -0.6264 -0.5305 -2.3404
 9654TIP3    H250378   2.678   6.795   0.057  0.1817  1.1852 -0.0273
 9655TIP3   OH250379   0.609   4.628   4.652  0.3826  0.1048  0.4224
 9655TIP3    H150380   0.548   4.678   4.706 -0.6465 -0.5991 -0.0708
 9655TIP3    H250381   0.620   4.545   4.700  0.9351  0.2126  0.4913
 9656TIP3   OH250382   3.596   4.930  13.140  0.1926  0.3312  0.5523
 9656TIP3    H150383   3.569   4.838  13.142 -0.2946  0.4523 -0.2041
 9656TIP3    H250384   3.609   4.949  13.048  1.6597  0.6382  0.8016
 9657TIP3   OH250385   4.420   0.817  15.225 -0.2197  0.2764  0.2031
 9657TIP3    H150386   4.381   0.769  15.298 -2.1456  2.7372  0.9052
 9657TIP3    H250387   4.347   0.839  15.168  0.7250  1.4944 -0.6071
 9658TIP3   OH250388   5.758   6.288  16.448 -0.4831 -0.0916  0.1228
 9658TIP3    H150389   5.677   6.251  16.414 -1.9501  1.9302  1.2449
 9658TIP3    H250390   5.738   6.311  16.539  1.8280 -0.8715  0.9017
 9659TIP3   OH250391   1.984   3.015  10.735 -0.1470  0.5455 -0.2118
 9659TIP3    H150392   1.909   2.960  10.710  0.2997  0.2892 -1.0238
 9659TIP3    H250393   2.041   2.956  10.783 -0.3856  0.7026  0.2733
 9660TIP3   OH250394   6.173   5.438   6.067 -0.8450 -0.1018  0.6407
 9660TIP3    H150395   6.249   5.433   6.125 -0.0393  0.8359 -0.2781
 9660TIP3    H250396   6.171   5.530   6.038 -1.7583 -0.3322 -0.0935
 9661TIP3   OH250397   0.205   5.623   2.830  0.0618  0.3855  1.0914
 9661TIP3    H150398   0.112   5.604   2.815  0.0130  1.7292 -0.5855
 9661TIP3    H250399   0.230   5.678   2.756  2.2355 -0.0236  1.4762
 9662TIP3   OH250400   6.027   1.696   4.186 -0.7742  0.1400 -0.1569
 9662TIP3    H150401   5.951   1.713   4.242  0.3099 -1.4998  1.9467
 9662TIP3    H250402   6.024   1.765   4.120 -2.9154  1.3480  1.0989
 9663TIP3   OH250403   2.549   2.728   1.190  0.4565  0.3003  0.7534
 9663TIP3    H150404   2.568   2.689   1.275 -2.5151  0.0768  1.4096
 9663TIP3    H250405   2.583   2.817   1.197  1.9101 -0.2720  1.4520
 9664TIP3   OH250406   0.735   4.500   4.280  0.0178 -0.0118  0.4491
 9664TIP3    H150407   0.727   4.446   4.358 -1.6245 -0.1777  0.1907
 9664TIP3    H250408   0.696   4.449   4.210  1.2979  0.2168 -0.4693
 9665TIP3   OH250409   5.905   5.314  14.675  0.1850  0.9456  0.0254
 9665TIP3    H150410   5.997   5.297  14.657 -0.2258 -0.2506 -1.0419
 9665TIP3    H250411   5.902   5.329  14.770  1.3280 -0.0099  0.2384
 9666TIP3   OH250412   4.159   2.598   3.881 -0.4695  0.2174 -0.0201
 9666TIP3    H150413   4.116   2.561   3.958 -0.9828 -0.3000 -0.5427
 9666TIP3    H250414   4.170   2.523   3.822 -0.9200  0.7755 -0.8250
 9667TIP3   OH250415   5.102   2.330  11.009  1.0236 -0.0600 -0.3331
 9667TIP3    H150416   5.048   2.407  10.995 -0.0005 -0.8828 -1.1073
 9667TIP3    H250417   5.174   2.340  10.946  0.5249 -0.0618 -0.9105
 9668TIP3   OH250418   3.243   0.361  16.243 -0.0467  0.2376  0.0123
 9668TIP3    H150419   3.178   0.293  16.227  0.1702  0.3924 -1.6989
 9668TIP3    H250420   3.284   0.336  16.326 -1.2614 -0.6596  0.3752
 9669TIP3   OH250421   1.286   1.924   0.179  0.3518 -0.4288 -0.2972
 9669TIP3    H150422   1.318   2.008   0.212 -0.7223  0.0006 -0.3066
 9669TIP3    H250423   1.277   1.938   0.085 -0.1876 -0.4333 -0.2462
 9670TIP3   OH250424   6.593   5.529   1.124 -0.5283  0.5124 -0.4874
 9670TIP3    H150425   6.685   5.554   1.136 -0.6482 -0.2302  2.8705
 9670TIP3    H250426   6.591   5.489   1.037  2.0114  1.7231 -1.2235
 9671TIP3   OH250427   3.715   4.917   3.828 -0.0314  0.4681  0.1514
 9671TIP3    H150428   3.668   4.837   3.807 -0.3709  0.7022 -0.0011
 9671TIP3    H250429   3.717   4.920   3.924 -0.6006  0.6102  0.1623
 9672TIP3   OH250430   0.888   1.664   4.737 -0.1496 -0.1378 -0.1894
 9672TIP3    H150431   0.872   1.681   4.829 -1.4699 -1.8067 -0.0593
 9672TIP3    H250432   0.801   1.646   4.700  0.5911 -1.8996 -1.1964
 9673TIP3   OH250433   1.698   5.923  11.079  0.3960 -0.0622 -0.1794
 9673TIP3    H150434   1.603   5.922  11.087  0.2192  2.6885 -0.8660
 9673TIP3    H250435   1.715   5.904  10.986  0.5860 -1.2719  0.0902
 9674TIP3   OH250436   5.730   1.742   1.899 -0.3311  0.2531  0.3103
 9674TIP3    H150437   5.714   1.666   1.842  1.5872  0.0066  0.0372
 9674TIP3    H250438   5.790   1.709   1.966 -1.1431  1.0070  1.4430
 9675TIP3   OH250439   5.263   0.140  12.543  0.0212  0.5477  0.0993
 9675TIP3    H150440   5.187   0.189  12.513  0.0637  0.0545 -0.8459
 9675TIP3    H250441   5.236   0.103  12.628 -0.8246  0.3002 -0.2659
 9676TIP3   OH250442   2.630   5.593   0.502  0.1256  0.0087 -0.0080
 9676TIP3    H150443   2.567   5.557   0.564 -2.6850  2.2773 -1.2716
 9676TIP3    H250444   2.581   5.602   0.420  2.6743  0.2357 -1.6309
 9677TIP3   OH250445   0.538   3.833  12.237  0.5268 -0.9395 -0.8915
 9677TIP3    H150446   0.496   3.784  12.167 -0.6031 -1.2755 -0.0117
 9677TIP3    H250447   0.563   3.916  12.197  1.1844 -1.6588 -2.0383
 9678TIP3   OH250448   6.268   5.745  16.997  0.0468  0.9520  0.2748
 9678TIP3    H150449   6.295   5.788  16.916  1.0471 -0.2411 -0.0498
 9678TIP3    H250450   6.187   5.700  16.974  1.1441 -0.6830 -0.5353
 9679TIP3   OH250451   2.097   6.182  14.241 -0.1675  0.1154  0.7013
 9679TIP3    H150452   2.022   6.171  14.299 -0.0666 -2.0969  0.4951
 9679TIP3    H250453   2.173   6.181  14.299 -0.1895  0.1885  0.7307
 9680TIP3   OH250454   1.445   4.000   1.971  1.1264 -0.2491  0.2251
 9680TIP3    H150455   1.355   4.023   1.947  1.0857 -1.5508 -1.0432
 9680TIP3    H250456   1.499   4.062   1.922  0.9349  0.5876  1.0500
 9681TIP3   OH250457   1.189   0.556  14.084  0.1835 -0.0782  0.2457
 9681TIP3    H150458   1.279   0.575  14.109  0.4329  1.2711 -1.5116
 9681TIP3    H250459   1.182   0.460  14.089  1.5394 -0.1603  0.9292
 9682TIP3   OH250460   4.865   2.979  14.859 -0.4732  0.4444 -0.1982
 9682TIP3    H150461   4.846   3.073  14.853  0.0953  0.6090  0.3585
 9682TIP3    H250462   4.815   2.939  14.788  0.1406  1.3074 -1.1392
 9683TIP3   OH250463   2.823   3.052   2.552  0.3497 -0.0479  0.3093
 9683TIP3    H150464   2.785   3.021   2.469 -0.2213 -1.1116  0.9501
 9683TIP3    H250465   2.849   2.972   2.597  0.8135  0.5387  1.0906
 9684TIP3   OH250466   2.552   5.438   1.786  0.4881  0.4494 -0.6914
 9684TIP3    H150467   2.618   5.436   1.855  0.0024  0.6532 -0.2132
 9684TIP3    H250468   2.479   5.386   1.821 -0.7240  2.4951 -0.0383
 9685TIP3   OH250469   0.244   3.127   3.522 -0.1443 -0.4099 -0.0493
 9685TIP3    H150470   0.331   3.134   3.562  1.3882  0.5234 -3.2732
 9685TIP3    H250471   0.205   3.214   3.534  0.3176 -0.1240 -0.5855
 9686TIP3   OH250472   0.854   4.278   5.611  0.2419 -0.1708  0.0548
 9686TIP3    H150473   0.818   4.210   5.554 -2.0621  0.5457  0.5574
 9686TIP3    H250474   0.893   4.341   5.551  2.4264 -1.8804 -0.4149
 9687TIP3   OH250475   0.805   1.736   2.241 -0.5065 -0.2539  0.5065
 9687TIP3    H150476   0.712   1.716   2.229 -1.0263  0.2870  3.0572
 9687TIP3    H250477   0.811   1.831   2.237 -0.4734 -0.1303  2.3293
 9688TIP3   OH250478   2.362   5.029   0.347  0.7756 -0.3748  0.1981
 9688TIP3    H150479   2.421   4.954   0.338 -0.2959 -1.3002  0.6026
 9688TIP3    H250480   2.311   5.029   0.266  1.9320  1.0078 -0.5813
 9689TIP3   OH250481   4.947   1.080   4.502  0.1335 -0.1783 -0.1362
 9689TIP3    H150482   4.855   1.105   4.510  0.7243  3.0217 -1.5977
 9689TIP3    H250483   4.980   1.081   4.592 -0.9787 -0.1629  0.2866
 9690TIP3   OH250484   1.465   3.491   0.955 -0.2089 -0.0390 -0.0773
 9690TIP3    H150485   1.373   3.501   0.933 -0.2778  0.1961  0.3271
 9690TIP3    H250486   1.475   3.530   1.042  0.4975  1.0362 -0.6056
 9691TIP3   OH250487   1.742   0.254   2.875 -0.1898 -0.0343 -0.0054
 9691TIP3    H150488   1.814   0.214   2.826  1.5847  0.7919  1.7751
 9691TIP3    H250489   1.697   0.309   2.811  2.1755  1.2052 -0.7208
 9692TIP3   OH250490   3.479   6.745  12.715 -0.1446 -0.1752  0.0254
 9692TIP3    H150491   3.528   6.668  12.746  0.6441  0.5172  0.5374
 9692TIP3    H250492   3.481   6.737  12.619  2.6921  0.8043 -0.0963
 9693TIP3   OH250493   0.806   1.877   3.805  0.0212  0.1730 -0.7375
 9693TIP3    H150494   0.894   1.842   3.791 -0.7814 -1.4292 -2.2337
 9693TIP3    H250495   0.820   1.963   3.844  2.2993  0.5033 -2.1001
 9694TIP3   OH250496   4.513   2.057   2.584  0.0213 -0.3267 -0.0554
 9694TIP3    H150497   4.560   2.138   2.562 -2.1456  0.2843 -3.0823
 9694TIP3    H250498   4.442   2.085   2.641  0.9190 -0.6363  1.2717
 9695TIP3   OH250499   3.041   4.157  15.410  0.1015 -0.1130  0.2654
 9695TIP3    H150500   2.988   4.203  15.475  1.4585  1.3571  0.3804
 9695TIP3    H250501   3.106   4.221  15.383 -0.7541 -0.4720 -3.0163
 9696TIP3   OH250502   3.189   3.343   4.816 -0.1724  0.5269 -0.0366
 9696TIP3    H150503   3.196   3.260   4.770 -3.1263  0.5465 -0.7315
 9696TIP3    H250504   3.197   3.320   4.909 -3.5024 -1.0905  0.0081
 9697TIP3   OH250505   1.172   5.975  12.566  0.0867  0.5520 -0.1770
 9697TIP3    H150506   1.255   5.941  12.534  0.1360 -1.2239  1.6606
 9697TIP3    H250507   1.194   6.023  12.645 -0.6907 -1.0294  1.0672
 9698TIP3   OH250508   4.006   1.682   3.687  0.0079  0.0778  0.1568
 9698TIP3    H150509   4.078   1.618   3.687  0.1667  0.2503 -0.3030
 9698TIP3    H250510   4.026   1.740   3.614 -0.1810  0.6069  0.5237
 9699TIP3   OH250511   5.972   2.938  14.862  0.1168  0.3063  0.0070
 9699TIP3    H150512   6.023   2.862  14.836 -0.5873 -0.1367 -0.1067
 9699TIP3    H250513   5.881   2.911  14.851 -0.1579  1.5535 -1.2155
 9700TIP3   OH250514   6.003   3.771  12.335  0.2051 -0.4456 -0.2650
 9700TIP3    H150515   5.996   3.865  12.349  0.4331 -0.1129 -2.1173
 9700TIP3    H250516   6.097   3.754  12.333  0.1974 -0.4173 -1.5451
 9701TIP3   OH250517   2.237   0.526   5.417  0.6661 -0.2345  0.5395
 9701TIP3    H150518   2.273   0.438   5.402  2.1604  0.5398 -0.6761
 9701TIP3    H250519   2.224   0.561   5.329  0.9480  1.1008  1.0193
 9702TIP3   OH250520   0.560   3.433   4.732  0.0913 -0.2209  0.2966
 9702TIP3    H150521   0.465   3.427   4.745 -0.0161  0.8539  0.1548
 9702TIP3    H250522   0.571   3.500   4.664  0.9128 -1.2412 -0.6151
 9703TIP3   OH250523   6.743   6.714  13.470  0.4881  0.3032 -0.1674
 9703TIP3    H150524   6.734   6.645  13.536  1.5986  0.4235  0.1316
 9703TIP3    H250525   6.772   6.791  13.519 -1.8477  1.3538 -0.3135
 9704TIP3   OH250526   4.354   3.775   4.162  0.1049 -0.4419  0.1220
 9704TIP3    H150527   4.342   3.783   4.068 -0.5318 -0.1244  0.2216
 9704TIP3    H250528   4.360   3.865   4.194 -0.4426 -0.5156  0.4640
 9705TIP3   OH250529   2.471   3.285   6.105 -0.0737  0.5298  0.1691
 9705TIP3    H150530   2.446   3.375   6.087 -0.6079  0.5655  1.0515
 9705TIP3    H250531   2.556   3.292   6.150  0.6931  0.4967 -1.2310
 9706TIP3   OH250532   6.691   5.890   0.197  0.6209  0.2086  0.5291
 9706TIP3    H150533   6.776   5.858   0.227  1.3639  1.4974 -0.0833
 9706TIP3    H250534   6.699   5.985   0.200 -0.7739  0.3572  0.3469
 9707TIP3   OH250535   0.300   5.547  17.057  1.1551 -0.2952  0.2039
 9707TIP3    H150536   0.391   5.554  17.085  0.7902  3.3060  1.0643
 9707TIP3    H250537   0.251   5.535  17.139  0.7813 -1.0801 -0.1330
 9708TIP3   OH250538   0.694   0.156   1.458  0.8104 -0.4415  0.2525
 9708TIP3    H150539   0.748   0.183   1.532  0.0218 -1.0333  1.0593
 9708TIP3    H250540   0.693   0.061   1.462  0.3854 -0.4625 -0.2464
 9709TIP3   OH250541   5.500   4.401   0.319 -0.9156 -0.5817 -0.2292
 9709TIP3    H150542   5.532   4.406   0.409 -1.1900 -0.2293 -0.1525
 9709TIP3    H250543   5.416   4.356   0.325  0.3022 -3.0808 -0.6167
 9710TIP3   OH250544   6.508   2.872   3.251  0.4750  0.5002  0.2768
 9710TIP3    H150545   6.453   2.912   3.184  1.5325  0.4037 -0.6841
 9710TIP3    H250546   6.530   2.786   3.215  0.7128  0.2775  0.9429
 9711TIP3   OH250547   4.474   4.374  12.829 -0.4287 -0.3495  0.7784
 9711TIP3    H150548   4.547   4.319  12.857  0.8983  1.1125  0.3822
 9711TIP3    H250549   4.516   4.454  12.796 -2.1063 -0.2702 -1.3999
 9712TIP3   OH250550   4.314   1.491  14.475 -0.1812  0.3981  0.7495
 9712TIP3    H150551   4.355   1.561  14.525 -0.7212 -0.6294  2.7326
 9712TIP3    H250552   4.328   1.412  14.528 -2.7453 -0.3614  0.4361
 9713TIP3   OH250553   5.694   6.622   4.805  0.5067 -0.1670 -0.2877
 9713TIP3    H150554   5.629   6.576   4.857 -0.4731  0.4595 -0.9165
 9713TIP3    H250555   5.701   6.571   4.724  0.4654 -0.0021 -0.3979
 9714TIP3   OH250556   5.314   2.764   0.732 -0.0271  0.0004 -0.5714
 9714TIP3    H150557   5.392   2.711   0.718  1.6077  2.1992 -0.4112
 9714TIP3    H250558   5.241   2.705   0.714  1.6729 -1.8037 -2.0167
 9715TIP3   OH250559   4.808   1.731   4.657 -0.0036  0.0613  0.1878
 9715TIP3    H150560   4.819   1.637   4.669  0.6224 -0.0443 -1.1624
 9715TIP3    H250561   4.896   1.767   4.664 -0.1768  0.4929  0.1863
 9716TIP3   OH250562   6.274   6.756   1.311 -0.4404 -0.3969  0.4776
 9716TIP3    H150563   6.245   6.821   1.375 -0.9808 -0.5318  0.3840
 9716TIP3    H250564   6.192   6.723   1.273 -0.2313 -1.7738  1.1723
 9717TIP3   OH250565   5.499   4.399  13.131 -0.0140 -0.0378 -0.5493
 9717TIP3    H150566   5.537   4.342  13.064  0.4797 -1.4446  0.8599
 9717TIP3    H250567   5.465   4.473  13.082 -0.7286 -1.5408 -2.4813
 9718TIP3   OH250568   3.412   1.156   4.517  0.0416  0.8456  0.0681
 9718TIP3    H150569   3.476   1.092   4.546 -1.0031 -0.1782  0.2128
 9718TIP3    H250570   3.362   1.111   4.449 -0.1057  1.8371 -0.4973
 9719TIP3   OH250571   1.742   2.421   2.271 -0.2180 -0.3630  0.5812
 9719TIP3    H150572   1.775   2.331   2.266  0.8250 -0.0363  1.1953
 9719TIP3    H250573   1.683   2.421   2.346 -1.6089 -0.9353 -0.4764
 9720TIP3   OH250574   3.077   3.472  14.028  0.2867 -0.1687  0.8426
 9720TIP3    H150575   3.034   3.553  14.001  1.1547 -0.2944 -1.0862
 9720TIP3    H250576   3.008   3.420  14.069 -0.5668  1.0098  0.9451
 9721TIP3   OH250577   4.957   4.356  13.841 -0.2001 -0.1091 -0.6443
 9721TIP3    H150578   4.912   4.312  13.914 -1.2019 -0.6347 -1.5631
 9721TIP3    H250579   4.989   4.438  13.879  0.2255 -0.8383  0.6671
 9722TIP3   OH250580   6.610   3.693  15.167 -0.0274  0.3890  0.1671
 9722TIP3    H150581   6.693   3.697  15.120  0.0824  0.7271  0.3857
 9722TIP3    H250582   6.562   3.771  15.139 -0.5927 -0.2060 -0.5455
 9723TIP3   OH250583   0.993   0.200  13.911  0.8257  0.0217  0.5774
 9723TIP3    H150584   0.919   0.249  13.876  1.0785  0.8903  1.2496
 9723TIP3    H250585   1.023   0.147  13.837  0.3207  0.5879 -0.0448
 9724TIP3   OH250586   3.896   4.228  11.074  0.4832 -0.2307 -0.2461
 9724TIP3    H150587   3.834   4.297  11.050  0.7402 -0.1419 -0.6580
 9724TIP3    H250588   3.971   4.242  11.017  0.7346 -0.5625 -0.0017
 9725TIP3   OH250589   4.136   1.757   6.267 -0.0467  0.1758 -0.1714
 9725TIP3    H150590   4.069   1.819   6.296 -0.7818 -0.6695 -0.0179
 9725TIP3    H250591   4.205   1.812   6.231 -1.4547  1.0344 -1.7168
 9726TIP3   OH250592   3.784   3.740   0.304  0.2726 -0.7066 -0.6700
 9726TIP3    H150593   3.730   3.782   0.237 -0.7626 -2.9964 -1.3618
 9726TIP3    H250594   3.733   3.748   0.384  0.6219  0.3087 -0.5256
 9727TIP3   OH250595   0.973   4.375   6.243  0.0450  0.5176 -0.1082
 9727TIP3    H150596   0.931   4.315   6.304 -1.6976 -0.1805 -1.8998
 9727TIP3    H250597   1.038   4.322   6.197  0.6946  0.8107  0.4513
 9728TIP3   OH250598   0.977   3.236   6.241 -0.3135 -0.0254 -0.0042
 9728TIP3    H150599   1.003   3.217   6.331 -1.8178  0.8094  0.6436
 9728TIP3    H250600   1.015   3.165   6.190  1.3765 -0.0141  1.1302
 9729TIP3   OH250601   0.228   6.593  14.074 -0.2562  0.4781 -0.0815
 9729TIP3    H150602   0.238   6.631  14.161  1.1648 -0.0727  0.0227
 9729TIP3    H250603   0.274   6.509  14.079 -2.8487 -1.0841 -0.4384
 9730TIP3   OH250604   2.779   5.027  17.090 -0.3308  0.1555  0.3531
 9730TIP3    H150605   2.830   5.098  17.130 -0.0088 -0.5421  1.2018
 9730TIP3    H250606   2.743   4.979  17.165 -0.9737 -0.2696 -0.2247
 9731TIP3   OH250607   4.333   6.182   5.758 -0.0406  0.3566  0.7021
 9731TIP3    H150608   4.254   6.179   5.703 -0.2697 -0.5998  1.0655
 9731TIP3    H250609   4.372   6.267   5.738 -0.7784  0.5466 -0.0211
 9732TIP3   OH250610   2.649   5.342   0.829  0.0532  0.2205  0.0611
 9732TIP3    H150611   2.639   5.413   0.766 -1.5325  1.9124  2.0414
 9732TIP3    H250612   2.742   5.344   0.853  0.4709  0.1647 -1.4613
 9733TIP3   OH250613   0.629   6.020   1.294  0.0199  0.1411  0.1813
 9733TIP3    H150614   0.566   6.000   1.364  0.2051 -1.2836 -0.0202
 9733TIP3    H250615   0.596   5.973   1.218  1.1463 -0.3902 -0.0056
 9734TIP3   OH250616   0.745   4.347  14.548  0.0912  0.0088 -0.5962
 9734TIP3    H150617   0.812   4.376  14.609 -0.5669 -0.0525  0.1688
 9734TIP3    H250618   0.793   4.325  14.468  0.9668  0.0348 -0.0859
 9735TIP3   OH250619   3.504   3.943  12.291  0.1615  0.4081 -0.0436
 9735TIP3    H150620   3.491   3.853  12.321 -0.7489  0.4138 -0.3852
 9735TIP3    H250621   3.550   3.986  12.363 -0.8204  0.0908  0.7929
 9736TIP3   OH250622   3.121   2.298  11.485 -0.3293  0.4029 -0.1360
 9736TIP3    H150623   3.188   2.356  11.448 -0.1617 -0.7003 -1.6666
 9736TIP3    H250624   3.170   2.241  11.545  0.2067 -0.5916 -1.4664
 9737TIP3   OH250625   0.711   4.637  12.724 -0.2802 -0.2637 -0.5710
 9737TIP3    H150626   0.784   4.696  12.744  0.3695 -1.1418 -0.3077
 9737TIP3    H250627   0.723   4.563  12.783 -0.7559 -0.9321 -1.2928
 9738TIP3   OH250628   1.986   0.653   4.804 -0.3334  0.1002  0.3423
 9738TIP3    H150629   1.926   0.593   4.758  0.3771 -0.6178  0.3229
 9738TIP3    H250630   1.930   0.700   4.865 -0.9973 -0.2303  0.0047
 9739TIP3   OH250631   3.634   6.181   5.621 -0.9135 -0.2160  0.1250
 9739TIP3    H150632   3.625   6.126   5.699 -1.4458  0.0130  0.2293
 9739TIP3    H250633   3.639   6.119   5.548 -1.1369 -0.4134  0.2757
 9740TIP3   OH250634   5.600   1.075   3.951 -0.1568 -0.2614 -0.1742
 9740TIP3    H150635   5.638   1.123   4.025 -0.8732  0.3386 -0.1928
 9740TIP3    H250636   5.649   1.104   3.875 -0.7761  0.6632 -0.2277
 9741TIP3   OH250637   1.736   4.716   2.807  0.3854 -0.2124 -0.1002
 9741TIP3    H150638   1.734   4.700   2.902  0.6296 -1.6389 -0.3165
 9741TIP3    H250639   1.817   4.767   2.794 -0.1978  0.9361  0.5671
 9742TIP3   OH250640   3.083   4.911   0.726  0.4746  0.1819  0.0076
 9742TIP3    H150641   3.146   4.858   0.678  0.7997  0.4785  0.0998
 9742TIP3    H250642   3.033   4.956   0.658  0.3082 -0.1123 -0.0669
 9743TIP3   OH250643   4.961   2.303  16.464  0.0852  0.1499 -0.2673
 9743TIP3    H150644   5.056   2.291  16.465  0.1294  0.2928  2.1244
 9743TIP3    H250645   4.934   2.288  16.554 -2.0876  0.8854 -0.7408
 9744TIP3   OH250646   5.637   3.710   3.028 -0.0641 -0.1413 -0.2691
 9744TIP3    H150647   5.669   3.706   2.938 -0.1306 -1.2454 -0.2610
 9744TIP3    H250648   5.543   3.692   3.021 -0.5410  2.1236 -0.1986
 9745TIP3   OH250649   1.945   2.550  12.025 -0.6309  0.1942 -0.0045
 9745TIP3    H150650   1.936   2.642  12.049 -4.2023  0.0526 -0.2833
 9745TIP3    H250651   1.948   2.551  11.930  0.5118  0.0229  0.0099
 9746TIP3   OH250652   4.190   4.912   1.143  0.5716  0.0692  0.0712
 9746TIP3    H150653   4.149   4.838   1.189 -0.9873  0.2834 -0.9278
 9746TIP3    H250654   4.283   4.903   1.163  0.3403 -1.7946  0.5070
 9747TIP3   OH250655   4.900   5.596   0.770  0.0985 -0.0934 -0.1939
 9747TIP3    H150656   4.828   5.572   0.712 -0.7509 -0.0294  0.7978
 9747TIP3    H250657   4.928   5.513   0.809  0.9232 -0.1891 -0.9624
 9748TIP3   OH250658   0.197   5.188  14.403  0.2000 -0.0870  0.1775
 9748TIP3    H150659   0.183   5.211  14.495 -0.9595  0.2226 -0.0635
 9748TIP3    H250660   0.152   5.104  14.392 -1.6759  0.9615 -0.6317
 9749TIP3   OH250661   6.702   4.051  16.884 -0.0060 -0.1565  0.3482
 9749TIP3    H150662   6.713   3.957  16.872  0.2442 -0.1078  0.2071
 9749TIP3    H250663   6.617   4.071  16.843  1.0634  0.1061 -1.8888
 9750TIP3   OH250664   4.508   1.438   0.095 -0.1660 -0.4151 -0.3511
 9750TIP3    H150665   4.566   1.509   0.065  1.2544 -0.9759  0.9193
 9750TIP3    H250666   4.528   1.429   0.188 -1.2064 -1.6936 -0.2280
 9751TIP3   OH250667   1.477   3.898   3.868  0.3632  0.4608 -0.3837
 9751TIP3    H150668   1.572   3.909   3.861  0.4164  1.4596  1.4941
 9751TIP3    H250669   1.441   3.982   3.840  0.1019  0.6144  0.4200
 9752TIP3   OH250670   2.900   4.029  11.528 -0.6739 -0.0562 -0.1395
 9752TIP3    H150671   2.855   3.976  11.463 -2.1208 -1.3126  1.7517
 9752TIP3    H250672   2.832   4.049  11.593  0.7003  1.0836  0.9996
 9753TIP3   OH250673   5.252   4.703   0.203  0.3229 -0.2031  0.7887
 9753TIP3    H150674   5.320   4.747   0.254  1.4286 -1.2201  0.2507
 9753TIP3    H250675   5.179   4.764   0.202  1.1683  0.8523  1.5404
 9754TIP3   OH250676   0.503   3.650   1.265  0.1999 -0.2952 -0.1193
 9754TIP3    H150677   0.528   3.742   1.251  0.8281 -0.5644 -0.8140
 9754TIP3    H250678   0.570   3.600   1.219  0.9976 -1.1790  1.9289
 9755TIP3   OH250679   5.109   5.624   6.383  0.0888 -0.3564 -0.6057
 9755TIP3    H150680   5.028   5.670   6.404 -0.1690 -0.6294 -0.9859
 9755TIP3    H250681   5.105   5.544   6.436  0.6064  0.1210  0.1695
 9756TIP3   OH250682   0.403   1.976   3.646  0.2924 -0.2882  0.2278
 9756TIP3    H150683   0.331   1.914   3.644 -0.6090  0.7506 -0.5935
 9756TIP3    H250684   0.405   2.008   3.737 -0.1276 -0.4887  0.3048
 9757TIP3   OH250685   3.074   1.544  13.173 -0.1081  0.3845 -0.2248
 9757TIP3    H150686   3.149   1.598  13.149 -0.3780  1.0529  0.4066
 9757TIP3    H250687   3.031   1.592  13.243  0.3205 -1.2075  1.2006
 9758TIP3   OH250688   5.844   5.408  13.474  0.2197 -0.0851 -0.2989
 9758TIP3    H150689   5.752   5.432  13.462 -0.3780 -1.4156  1.2250
 9758TIP3    H250690   5.864   5.431  13.565  1.1279 -0.6074 -0.3503
 9759TIP3   OH250691   5.994   6.303  13.185 -0.0778 -0.0065 -0.5836
 9759TIP3    H150692   5.994   6.345  13.100  0.2445  1.7265  0.2260
 9759TIP3    H250693   6.050   6.226  13.174  0.0179  0.2293 -1.8931
 9760TIP3   OH250694   1.686   4.965   1.868 -0.4776 -0.6833  0.1347
 9760TIP3    H150695   1.722   4.889   1.821 -0.9657 -1.1546  0.5112
 9760TIP3    H250696   1.756   4.990   1.929 -1.0300 -2.0814  1.4160
 9761TIP3   OH250697   4.107   3.670  14.301  0.1853  0.1022 -0.3110
 9761TIP3    H150698   4.038   3.734  14.321 -1.5594 -1.5747 -0.6527
 9761TIP3    H250699   4.084   3.637  14.214  2.0711  0.2524 -0.9060
 9762TIP3   OH250700   5.033   2.621  13.632 -0.4168 -0.0076  0.7759
 9762TIP3    H150701   4.978   2.670  13.571 -0.7328  0.1580  1.1858
 9762TIP3    H250702   4.976   2.604  13.707  0.4488  1.2961  1.7780
 9763TIP3   OH250703   3.754   3.268  15.086  0.6186  0.1901 -0.0661
 9763TIP3    H150704   3.764   3.254  15.180  2.3818  0.4455 -0.1769
 9763TIP3    H250705   3.815   3.339  15.066 -0.6156  0.9812 -1.2238
 9764TIP3   OH250706   5.461   1.532  13.171  0.5280  0.2574 -0.0539
 9764TIP3    H150707   5.533   1.529  13.107 -1.0369  1.0565 -1.9680
 9764TIP3    H250708   5.489   1.594  13.237  0.7555  2.2836 -1.9495
 9765TIP3   OH250709   4.929   3.736  11.023  0.4545 -0.6003 -0.2628
 9765TIP3    H150710   5.019   3.749  11.054  0.4611  3.0411 -1.3043
 9765TIP3    H250711   4.936   3.737  10.928 -0.7152  0.3381 -0.3591
 9766TIP3   OH250712   0.758   2.629  11.408 -0.0343  0.8913 -0.0766
 9766TIP3    H150713   0.676   2.584  11.428  0.6136 -0.5016 -0.3875
 9766TIP3    H250714   0.766   2.622  11.313  1.3700 -0.7638  0.1117
 9767TIP3   OH250715   3.938   2.816   0.098 -0.5900  0.1409 -0.9096
 9767TIP3    H150716   3.931   2.898   0.147  0.9549 -0.0229 -0.3473
 9767TIP3    H250717   3.990   2.758   0.155  0.9895 -0.1706 -2.5568
 9768TIP3   OH250718   0.312   1.266   0.297 -0.3518  0.1021 -0.0313
 9768TIP3    H150719   0.350   1.257   0.385 -1.5060  1.5894  0.6650
 9768TIP3    H250720   0.369   1.328   0.252 -1.2628  1.4478  0.6226
 9769TIP3   OH250721   5.314   1.778  14.103  0.4467 -0.4044 -0.1672
 9769TIP3    H150722   5.220   1.757  14.108  0.2577  0.5267  4.0435
 9769TIP3    H250723   5.358   1.693  14.104 -0.3298 -0.8181 -0.4374
 9770TIP3   OH250724   6.484   5.942  15.672 -0.2390 -0.5273 -0.1664
 9770TIP3    H150725   6.459   5.870  15.615  0.6466 -0.7779 -0.2587
 9770TIP3    H250726   6.404   5.965  15.720 -0.5288 -1.5699 -0.1310
 9771TIP3   OH250727   5.092   6.132  13.128  0.0828 -1.0861  0.0580
 9771TIP3    H150728   5.036   6.114  13.052  2.5479 -4.4019 -1.2152
 9771TIP3    H250729   5.105   6.047  13.168  0.6773  0.2635  2.9564
 9772TIP3   OH250730   5.563   5.803  14.187  0.0850  0.1236  0.1739
 9772TIP3    H150731   5.553   5.709  14.205 -0.8909 -0.1717 -1.6656
 9772TIP3    H250732   5.520   5.847  14.260  1.0133 -0.8153  1.3393
 9773TIP3   OH250733   4.201   2.571   4.564 -0.2814 -0.6640 -0.0840
 9773TIP3    H150734   4.190   2.645   4.623  1.3766 -0.0167 -0.5303
 9773TIP3    H250735   4.203   2.495   4.622  1.7452 -0.0068  0.7909
 9774TIP3   OH250736   4.093   0.745   3.420  0.4121 -0.3012 -0.4320
 9774TIP3    H150737   4.107   0.661   3.462  0.9990  0.2215  0.4502
 9774TIP3    H250738   4.022   0.729   3.357  0.5989 -1.4671 -0.3672
 9775TIP3   OH250739   0.723   0.937   6.051  0.0895  0.2643  0.0379
 9775TIP3    H150740   0.798   0.982   6.088 -1.3342  2.9807 -0.1509
 9775TIP3    H250741   0.664   0.924   6.126  0.5936 -1.6516  0.1487
 9776TIP3   OH250742   0.787   2.455   1.019  0.1890 -0.0167 -0.0966
 9776TIP3    H150743   0.862   2.429   1.073  0.7418 -1.5159 -1.4896
 9776TIP3    H250744   0.809   2.424   0.931 -3.1763 -3.0845 -0.1220
 9777TIP3   OH250745   6.111   2.037  15.500 -0.5341 -0.0571  1.2982
 9777TIP3    H150746   6.169   2.037  15.424  0.2779 -0.4431  1.9085
 9777TIP3    H250747   6.056   1.959  15.487 -1.5001  0.7659  0.3011
 9778TIP3   OH250748   1.547   3.815  14.567 -0.0953 -0.4123  0.1712
 9778TIP3    H150749   1.572   3.741  14.512 -0.6344 -1.4447  1.2566
 9778TIP3    H250750   1.458   3.838  14.538 -0.2497 -0.7383  0.3810
 9779TIP3   OH250751   3.136   2.793  13.198 -0.2651  0.7658 -0.0145
 9779TIP3    H150752   3.144   2.885  13.172 -0.7133  0.5535 -0.9477
 9779TIP3    H250753   3.043   2.779  13.210 -0.3042  0.1757 -0.9056
 9780TIP3   OH250754   1.892   2.080  14.049 -0.2164  0.4364  0.1807
 9780TIP3    H150755   1.840   2.141  13.998 -1.6769 -1.9432 -1.3676
 9780TIP3    H250756   1.940   2.029  13.984 -0.9060 -1.6455  1.2154
 9781TIP3   OH250757   4.709   3.580  11.549  0.0264 -0.1315  0.0732
 9781TIP3    H150758   4.694   3.502  11.496 -0.7923  0.3126 -0.3801
 9781TIP3    H250759   4.728   3.649  11.485  1.1850 -0.0417  0.4873
 9782TIP3   OH250760   0.756   6.073   6.006  0.2270  0.4255 -0.4034
 9782TIP3    H150761   0.795   6.061   5.920 -0.9139 -0.8009 -0.7740
 9782TIP3    H250762   0.787   5.999   6.058 -0.9487 -0.1366 -0.4753
 9783TIP3   OH250763   1.426   3.576  16.360  0.3551 -0.2700 -0.5338
 9783TIP3    H150764   1.436   3.541  16.272 -2.4481  1.3451 -1.6526
 9783TIP3    H250765   1.421   3.671  16.348 -3.8447 -0.1174  0.6916
 9784TIP3   OH250766   3.759   5.027   2.376  0.6639 -0.7889  0.8017
 9784TIP3    H150767   3.814   4.958   2.413  1.6645 -0.4623 -0.0492
 9784TIP3    H250768   3.739   4.997   2.287  0.0719 -0.5638  0.8537
 9785TIP3   OH250769   1.141   5.459   6.192  0.0904 -0.2517 -0.0685
 9785TIP3    H150770   1.234   5.455   6.216  0.0571  1.0510  0.3521
 9785TIP3    H250771   1.117   5.550   6.207 -0.9270 -0.2733 -1.4365
 9786TIP3   OH250772   4.079   0.453   6.303 -0.6784 -0.2143  0.6517
 9786TIP3    H150773   3.991   0.444   6.268 -1.8454 -1.3223  3.5350
 9786TIP3    H250774   4.072   0.524   6.368  1.0912  1.0257 -0.4127
 9787TIP3   OH250775   2.585   2.259  15.776  0.5856 -0.0817  0.6165
 9787TIP3    H150776   2.597   2.164  15.783  2.3900  0.1806  1.6959
 9787TIP3    H250777   2.633   2.283  15.698 -0.0886 -0.0694  0.1967
 9788TIP3   OH250778   0.156   0.728  16.066 -0.1619 -0.5352  0.0686
 9788TIP3    H150779   0.209   0.662  16.020 -0.3034 -1.1748  0.8024
 9788TIP3    H250780   0.101   0.765  15.998  1.0241 -0.0512 -0.6645
 9789TIP3   OH250781   0.914   0.872  14.478  0.2285 -0.7821  0.7442
 9789TIP3    H150782   0.851   0.920  14.424  0.6708 -1.5459 -0.5034
 9789TIP3    H250783   0.943   0.800  14.422  2.5516 -0.1948  1.0869
 9790TIP3   OH250784   0.829   1.290   1.913 -0.1030  0.7037 -0.4679
 9790TIP3    H150785   0.739   1.273   1.940  0.6073  0.6552  2.0486
 9790TIP3    H250786   0.832   1.261   1.821 -2.4780  0.2185 -0.4596
 9791TIP3   OH250787   2.987   3.636   1.724  0.4069  0.1788  0.2148
 9791TIP3    H150788   2.941   3.559   1.693  0.2999  0.0729  0.6229
 9791TIP3    H250789   2.963   3.705   1.663 -0.4597  0.1767  0.5325
 9792TIP3   OH250790   4.675   4.879   5.932 -0.0940 -0.2276  0.1634
 9792TIP3    H150791   4.754   4.917   5.894  0.2258 -1.7065 -0.7575
 9792TIP3    H250792   4.647   4.942   5.999  0.2425  1.7219 -1.4222
 9793TIP3   OH250793   1.381   4.814  15.553 -0.6764 -0.3074  0.0111
 9793TIP3    H150794   1.385   4.731  15.505 -0.2540  0.0049 -0.5070
 9793TIP3    H250795   1.292   4.817  15.589 -0.6100 -1.1026  0.2508
 9794TIP3   OH250796   0.195   4.540   0.722 -0.4526 -0.0103  0.2816
 9794TIP3    H150797   0.181   4.458   0.674 -0.0400 -1.0752  1.8928
 9794TIP3    H250798   0.265   4.584   0.674 -2.3404  0.6464 -2.0558
 9795TIP3   OH250799   2.029   2.607  12.695  0.0220  0.0617 -0.3799
 9795TIP3    H150800   2.114   2.650  12.685  0.7227 -1.1136  0.3215
 9795TIP3    H250801   2.031   2.535  12.632 -0.8156  0.5195 -0.9654
 9796TIP3   OH250802   2.648   4.392   5.408 -0.2811 -0.3389 -0.1936
 9796TIP3    H150803   2.681   4.481   5.400  0.4211 -0.6745 -1.2539
 9796TIP3    H250804   2.553   4.402   5.420 -0.2406  0.5342 -0.5756
 9797TIP3   OH250805   1.684   0.633  12.393  0.3737  0.1477  0.0082
 9797TIP3    H150806   1.728   0.583  12.324  1.5767  0.9788  0.1494
 9797TIP3    H250807   1.748   0.639  12.463 -0.1713  0.8809  0.4592
 9798TIP3   OH250808   4.863   4.056   5.313  0.5122  0.1755  0.1179
 9798TIP3    H150809   4.946   4.011   5.329  0.2433 -0.8207 -1.0311
 9798TIP3    H250810   4.800   4.010   5.368  0.3812 -0.3765 -0.4766
 9799TIP3   OH250811   0.318   0.189   5.037  0.0019 -0.0070  0.2350
 9799TIP3    H150812   0.289   0.271   4.999  0.9948  0.8578  1.2773
 9799TIP3    H250813   0.370   0.148   4.968  0.1372  0.5995 -0.0301
 9800TIP3   OH250814   2.821   3.941  14.307  0.6385 -0.2630 -0.2486
 9800TIP3    H150815   2.757   3.877  14.279 -0.4593  0.7195 -0.0686
 9800TIP3    H250816   2.769   4.018  14.333  1.7409 -0.0983  1.7193
 9801TIP3   OH250817   0.720   2.539   3.364 -0.4671 -0.1451  0.4466
 9801TIP3    H150818   0.631   2.574   3.373 -0.9134 -1.0935 -0.1445
 9801TIP3    H250819   0.768   2.579   3.437 -1.0797  1.2466  0.1260
 9802TIP3   OH250820   1.823   5.513   3.018  0.5888 -0.5006  0.2485
 9802TIP3    H150821   1.873   5.506   3.099  0.1965  0.5338  0.6003
 9802TIP3    H250822   1.885   5.548   2.954  0.4624  0.3423  0.5657
 9803TIP3   OH250823   4.120   5.292   0.822 -0.3763 -0.0906  0.2623
 9803TIP3    H150824   4.075   5.214   0.790  0.6740 -0.1641 -1.1139
 9803TIP3    H250825   4.074   5.314   0.904 -1.3948 -1.4870  0.1065
 9804TIP3   OH250826   2.924   2.188  14.095  0.2244 -0.1699 -0.4535
 9804TIP3    H150827   2.930   2.123  14.025  2.0411  0.1614 -0.6512
 9804TIP3    H250828   2.997   2.248  14.079 -0.0739  0.6407  1.0027
 9805TIP3   OH250829   1.709   3.944  15.148 -0.1454 -0.0524  0.2693
 9805TIP3    H150830   1.760   3.892  15.086  0.0817  1.4201 -0.8496
 9805TIP3    H250831   1.739   4.034  15.134 -0.5603  0.4101  2.0862
 9806TIP3   OH250832   1.807   1.585  16.247 -0.4288  0.1081  0.4095
 9806TIP3    H150833   1.824   1.586  16.153  0.0282 -1.7985  0.4419
 9806TIP3    H250834   1.891   1.564  16.287 -1.2906 -2.7511  0.9717
 9807TIP3   OH250835   3.941   5.901   2.514 -0.4131  0.3635  0.0840
 9807TIP3    H150836   3.919   5.889   2.607 -1.3168  0.5905 -0.0913
 9807TIP3    H250837   4.016   5.961   2.515  0.0211 -0.1698  0.6849
 9808TIP3   OH250838   4.220   3.696   1.272  0.6912 -0.4001 -0.3429
 9808TIP3    H150839   4.198   3.770   1.217  0.9894 -1.4518 -1.9320
 9808TIP3    H250840   4.313   3.708   1.293  0.8064 -0.4714 -0.8168
 9809TIP3   OH250841   5.921   0.472  16.241  0.1424 -0.1022 -0.1788
 9809TIP3    H150842   5.931   0.472  16.146  1.3887  2.4425 -0.1083
 9809TIP3    H250843   5.836   0.513  16.257 -0.1693 -0.7338 -0.1717
 9810TIP3   OH250844   1.861   1.591  12.850 -0.1578 -0.0781 -0.2906
 9810TIP3    H150845   1.816   1.674  12.868 -0.9924 -0.3262 -1.1202
 9810TIP3    H250846   1.915   1.609  12.774  1.9681  0.4826  1.2710
 9811TIP3   OH250847   3.220   2.360   0.428  0.0028 -0.3105 -0.8636
 9811TIP3    H150848   3.256   2.289   0.482 -0.4771 -0.5766 -0.8864
 9811TIP3    H250849   3.179   2.419   0.491  1.0397  0.3434 -0.7731
 9812TIP3   OH250850   2.878   5.776  15.968  0.1300  0.7819 -0.0544
 9812TIP3    H150851   2.947   5.841  15.977  1.4098 -0.6602  1.0155
 9812TIP3    H250852   2.813   5.802  16.033  1.5636 -0.0701  1.8180
 9813TIP3   OH250853   4.492   2.795   0.198  0.1527 -0.0946 -0.0209
 9813TIP3    H150854   4.524   2.884   0.184 -0.3377  1.1077  4.6203
 9813TIP3    H250855   4.570   2.746   0.224  0.0000 -0.2161  0.2126
 9814TIP3   OH250856   3.017   2.682   0.338  0.4533 -0.8187  0.0026
 9814TIP3    H150857   2.941   2.688   0.396  1.0178  0.3885  0.6694
 9814TIP3    H250858   3.088   2.652   0.395  1.5732  2.5044  0.6242
 9815TIP3   OH250859   2.890   0.866  14.404  0.0036 -0.0555 -0.2697
 9815TIP3    H150860   2.891   0.940  14.464  0.1031 -1.1074  1.0926
 9815TIP3    H250861   2.811   0.817  14.427  0.1945 -0.6301 -0.7957
 9816TIP3   OH250862   6.068   6.329   5.283  0.2058  0.0574  0.2626
 9816TIP3    H150863   6.060   6.234   5.287 -0.8103 -0.1648 -3.3720
 9816TIP3    H250864   5.983   6.359   5.252  0.8896  2.0230  0.1334
 9817TIP3   OH250865   1.131   3.222  13.243 -0.2220  0.7505  0.1508
 9817TIP3    H150866   1.190   3.183  13.179 -2.5661 -2.1896 -0.4575
 9817TIP3    H250867   1.059   3.257  13.190 -0.7298  1.0613  1.0344
 9818TIP3   OH250868   2.299   0.776  12.725  0.1188 -0.2779 -0.2261
 9818TIP3    H150869   2.212   0.755  12.758  0.1784 -2.1175 -1.1151
 9818TIP3    H250870   2.310   0.869  12.744 -2.4280  0.2464 -0.9429
 9819TIP3   OH250871   0.623   6.050   0.542 -1.0908 -0.3497 -0.6509
 9819TIP3    H150872   0.694   6.075   0.483 -0.4697 -0.0618  0.1931
 9819TIP3    H250873   0.546   6.094   0.507 -0.6968 -0.0394 -1.1399
 9820TIP3   OH250874   1.131   6.723  16.914 -0.3028 -0.4330  0.2322
 9820TIP3    H150875   1.112   6.666  16.840 -0.7941  0.4235 -0.3213
 9820TIP3    H250876   1.093   6.679  16.990 -2.0423 -0.1099 -0.4174
 9821TIP3   OH250877   2.435   4.392   1.658 -0.1891 -0.0519  0.1440
 9821TIP3    H150878   2.409   4.363   1.570  0.0836 -0.9916  0.3531
 9821TIP3    H250879   2.503   4.329   1.684  0.2978  0.6987  0.7084
 9822TIP3   OH250880   5.508   3.902  11.101 -0.1957 -0.1747 -0.2451
 9822TIP3    H150881   5.492   3.867  11.189  0.7913  1.1928  0.5049
 9822TIP3    H250882   5.602   3.896  11.090 -0.3147 -0.3561 -1.2490
 9823TIP3   OH250883   0.535   0.465   4.443  0.1975  0.5158  0.0983
 9823TIP3    H150884   0.577   0.394   4.491  0.9891 -0.3217 -1.7206
 9823TIP3    H250885   0.577   0.544   4.477  0.1385  0.0408  1.3360
 9824TIP3   OH250886   4.738   5.490   4.677  0.4543 -0.0224  0.5783
 9824TIP3    H150887   4.802   5.504   4.608  0.3984  1.0716  0.7349
 9824TIP3    H250888   4.659   5.461   4.632  0.9288 -1.0046  0.3508
 9825TIP3   OH250889   1.975   1.060  13.020  0.1586  0.3037 -0.1841
 9825TIP3    H150890   2.046   1.124  13.017 -0.4260  0.9248 -1.2853
 9825TIP3    H250891   1.915   1.093  13.088  0.5780  0.1348  0.2742
 9826TIP3   OH250892   4.186   2.906  12.547  0.6537  0.0676 -0.0631
 9826TIP3    H150893   4.112   2.910  12.608  0.0897  0.5218 -0.7506
 9826TIP3    H250894   4.236   2.985  12.564  1.0302 -0.2757  0.4522
 9827TIP3   OH250895   2.940   5.157   0.773  0.2821 -0.3195  0.5072
 9827TIP3    H150896   2.929   5.170   0.678 -0.8166  1.5586  0.8255
 9827TIP3    H250897   3.032   5.135   0.784  0.3917 -0.7448 -1.0190
 9828TIP3   OH250898   3.814   3.554  11.751 -0.1071  0.1112  0.2934
 9828TIP3    H150899   3.907   3.576  11.746  0.1293 -1.1099 -1.7512
 9828TIP3    H250900   3.770   3.624  11.702 -0.2995  0.7217  1.3111
 9829TIP3   OH250901   0.206   4.491   2.909  0.0987 -0.0399  0.2832
 9829TIP3    H150902   0.248   4.500   2.994  0.8480  1.4241 -0.2171
 9829TIP3    H250903   0.168   4.577   2.891 -1.2918 -0.7320 -0.2339
 9830TIP3   OH250904   1.583   1.372   2.588  0.0950  0.1583  0.3934
 9830TIP3    H150905   1.531   1.326   2.653 -1.4817  0.0543 -0.8697
 9830TIP3    H250906   1.562   1.465   2.602 -0.3081  0.1303  0.0122
 9831TIP3   OH250907   6.365   0.440   2.163 -0.3882 -0.5038 -0.5794
 9831TIP3    H150908   6.413   0.357   2.171 -0.1920 -0.3889 -0.5748
 9831TIP3    H250909   6.432   0.505   2.145 -0.6045 -0.4373 -1.1805
 9832TIP3   OH250910   3.143   0.265  15.272  0.4434 -0.3392 -0.0079
 9832TIP3    H150911   3.157   0.276  15.178  0.3002  0.9156  0.1029
 9832TIP3    H250912   3.151   0.353  15.308  0.3022 -0.7771  1.1366
 9833TIP3   OH250913   0.517   3.977   5.349 -0.0288  0.1145  0.0768
 9833TIP3    H150914   0.437   3.927   5.329  0.9089 -0.8385 -1.4176
 9833TIP3    H250915   0.558   3.992   5.265  1.7678 -0.0670  0.8800
 9834TIP3   OH250916   0.121   2.172  14.760 -0.9030  0.6178  0.6559
 9834TIP3    H150917   0.203   2.144  14.718 -0.0660  1.3457  1.7426
 9834TIP3    H250918   0.060   2.183  14.688 -0.0466  0.0531 -0.1856
 9835TIP3   OH250919   0.193   1.026  14.039  0.2707 -0.0714  0.3125
 9835TIP3    H150920   0.283   1.019  14.071 -0.3589 -0.2926  2.1629
 9835TIP3    H250921   0.139   0.999  14.113 -1.3701  1.3403 -0.2957
 9836TIP3   OH250922   0.243   6.558  16.482  0.8089 -0.3021 -0.2225
 9836TIP3    H150923   0.148   6.553  16.485  0.8675 -1.5115  1.1646
 9836TIP3    H250924   0.269   6.496  16.414  0.6134 -0.2473 -0.3461
 9837TIP3   OH250925   0.670   2.691  14.215  0.3047 -0.0249 -0.0752
 9837TIP3    H150926   0.620   2.765  14.250  1.6553  0.5193  0.7850
 9837TIP3    H250927   0.607   2.619  14.210 -0.4019  0.4273  1.6931
 9838TIP3   OH250928   4.592   5.315   1.877  0.2598 -0.1450  0.3252
 9838TIP3    H150929   4.567   5.296   1.786  0.4472  0.1029  0.2213
 9838TIP3    H250930   4.562   5.238   1.926 -0.4347  0.0058  0.1540
 9839TIP3   OH250931   6.550   3.204   0.419  0.3092  0.1889 -0.0540
 9839TIP3    H150932   6.540   3.163   0.505 -3.1226  0.4613 -0.2022
 9839TIP3    H250933   6.522   3.137   0.357 -0.0947  0.9639 -0.7245
 9840TIP3   OH250934   4.602   6.569  13.913  0.5352 -0.3617 -0.3829
 9840TIP3    H150935   4.691   6.588  13.883  0.3593 -1.0466 -1.3442
 9840TIP3    H250936   4.568   6.655  13.939  0.1396  0.5902 -3.6165
 9841TIP3   OH250937   5.989   5.577  11.555 -0.2154  0.2856 -0.2401
 9841TIP3    H150938   5.895   5.579  11.575 -0.3122  1.4052 -0.7196
 9841TIP3    H250939   6.022   5.502  11.604 -1.4469 -0.4402 -0.4524
 9842TIP3   OH250940   0.487   4.979  12.102 -0.3295 -0.4086  0.1326
 9842TIP3    H150941   0.554   4.924  12.144 -0.5359 -1.3585 -0.7441
 9842TIP3    H250942   0.484   5.058  12.156  2.2028  0.1144 -0.3502
 9843TIP3   OH250943   0.244   6.137  12.273 -0.1007 -0.0515  0.1861
 9843TIP3    H150944   0.250   6.045  12.249  0.1851 -1.2554  4.1781
 9843TIP3    H250945   0.161   6.167  12.236  0.5028 -1.3787 -2.4673
 9844TIP3   OH250946   3.286   2.175   5.858  0.0853  0.5196  0.0365
 9844TIP3    H150947   3.281   2.103   5.920  0.2751  0.1912 -0.3227
 9844TIP3    H250948   3.227   2.149   5.787 -0.0759  0.8582  0.0447
 9845TIP3   OH250949   4.776   0.595  16.615  0.6119  0.4204 -0.3266
 9845TIP3    H150950   4.799   0.667  16.675  1.1402  0.6889 -0.8445
 9845TIP3    H250951   4.690   0.620  16.581  1.5225  1.7086 -1.8228
 9846TIP3   OH250952   6.284   0.321   2.447 -0.3366  0.5111  0.5782
 9846TIP3    H150953   6.366   0.356   2.411 -0.6513  2.1081  1.3322
 9846TIP3    H250954   6.245   0.272   2.375  0.4425  1.2104 -0.3423
 9847TIP3   OH250955   3.412   3.027  13.586  0.0873  0.2628  0.1576
 9847TIP3    H150956   3.473   3.000  13.655 -1.1921  0.4873  1.3976
 9847TIP3    H250957   3.377   3.111  13.615 -1.4867 -0.2816 -0.0887
 9848TIP3   OH250958   2.842   1.004   5.082  0.1289  0.5811 -0.4494
 9848TIP3    H150959   2.797   0.932   5.127  2.5805 -0.3007  0.7587
 9848TIP3    H250960   2.880   0.963   5.004  0.4061  0.8857 -0.4716
 9849TIP3   OH250961   6.022   6.258   3.104 -0.0178  0.0848 -0.0702
 9849TIP3    H150962   6.026   6.184   3.043 -0.4994  1.0339 -1.2939
 9849TIP3    H250963   6.087   6.320   3.072 -0.7008  0.8615  0.0009
 9850TIP3   OH250964   6.114   4.249   4.323 -0.0737  0.3017  0.2522
 9850TIP3    H150965   6.122   4.162   4.285 -1.5576  0.8737 -1.5245
 9850TIP3    H250966   6.176   4.249   4.396  2.9727 -0.8800 -2.1506
 9851TIP3   OH250967   4.799   4.936  12.396 -0.2632 -0.0532  0.3968
 9851TIP3    H150968   4.714   4.914  12.434 -0.8610 -0.6563 -1.1914
 9851TIP3    H250969   4.863   4.897  12.455 -1.1989 -2.6251 -0.1755
 9852TIP3   OH250970   0.418   4.774   3.000 -0.6089  0.2014 -0.3587
 9852TIP3    H150971   0.471   4.702   2.964 -0.6728 -0.1157  0.1761
 9852TIP3    H250972   0.346   4.730   3.046 -1.6358  0.6394 -1.5103
 9853TIP3   OH250973   4.036   6.696   3.724 -0.1676 -0.1904 -0.3590
 9853TIP3    H150974   4.109   6.728   3.777  1.5015 -1.8244 -1.5426
 9853TIP3    H250975   3.983   6.645   3.785  0.8531 -0.7357  0.0985
 9854TIP3   OH250976   5.959   5.915  13.429 -0.2409 -0.5322 -0.1916
 9854TIP3    H150977   5.949   5.991  13.485  0.5113 -0.0275 -0.7158
 9854TIP3    H250978   6.053   5.912  13.410 -0.5626 -0.2264 -2.0341
 9855TIP3   OH250979   1.009   2.273  13.277 -0.3741 -0.0676 -0.1644
 9855TIP3    H150980   1.001   2.192  13.328  0.4775 -1.0495 -1.5313
 9855TIP3    H250981   1.083   2.258  13.218 -0.4025  1.5877 -0.6965
 9856TIP3   OH250982   1.292   1.635   3.279 -0.1275  0.0415  0.3646
 9856TIP3    H150983   1.229   1.578   3.322  0.7999 -0.0253  1.6896
 9856TIP3    H250984   1.334   1.683   3.350  1.8425 -0.4527 -0.3895
 9857TIP3   OH250985   1.652   4.874   4.940 -0.0941 -0.6526  0.9289
 9857TIP3    H150986   1.716   4.939   4.967 -0.0338 -0.2307 -0.1523
 9857TIP3    H250987   1.633   4.824   5.019  1.7134 -0.9279  1.2317
 9858TIP3   OH250988   6.526   0.479  12.584 -0.1430  0.1894 -0.1031
 9858TIP3    H150989   6.543   0.385  12.583  2.6928  0.5826  1.1525
 9858TIP3    H250990   6.565   0.511  12.502  0.5829  0.4753  0.3446
 9859TIP3   OH250991   3.639   1.556   4.772 -0.1707 -0.3741 -0.3873
 9859TIP3    H150992   3.655   1.567   4.865 -1.0822  1.2729 -0.3923
 9859TIP3    H250993   3.564   1.613   4.753  0.5301  0.0154 -2.2816
 9860TIP3   OH250994   4.447   5.475   2.714  0.2426  0.8343 -0.1775
 9860TIP3    H150995   4.453   5.560   2.670 -0.0907  0.7284 -0.4336
 9860TIP3    H250996   4.536   5.456   2.742  0.3373  1.2229 -0.2105
 9861TIP3   OH250997   1.862   0.425  11.764 -0.6352 -0.0247  0.0892
 9861TIP3    H150998   1.874   0.391  11.853  0.5136 -2.0814 -0.7796
 9861TIP3    H250999   1.867   0.348  11.708  2.3576  1.5283 -2.0623
 9862TIP3   OH251000   5.084   2.446  11.806 -0.0918 -0.3217  0.1652
 9862TIP3    H151001   5.155   2.465  11.868 -0.6595  0.1293  0.6899
 9862TIP3    H251002   5.072   2.528  11.758 -0.5093 -0.2756  0.3429
 9863TIP3   OH251003   4.176   1.854   0.793  0.9335 -0.0013 -0.0705
 9863TIP3    H151004   4.152   1.945   0.810  0.1754 -0.0045 -1.0615
 9863TIP3    H251005   4.271   1.851   0.808  1.0398  1.0492 -0.4787
 9864TIP3   OH251006   4.497   4.789   3.298  0.4940  0.0645 -0.1524
 9864TIP3    H151007   4.511   4.867   3.244 -1.0364 -0.2673 -1.1081
 9864TIP3    H251008   4.464   4.824   3.381 -1.0518  0.4535 -0.8853
 9865TIP3   OH251009   3.417   0.577  11.728  0.1045  0.7460  0.1442
 9865TIP3    H151010   3.370   0.566  11.645 -1.0737  0.8569  0.7872
 9865TIP3    H251011   3.450   0.666  11.725 -1.6716  1.4511  0.6465
 9866TIP3   OH251012   0.044   4.285   3.616  0.1145 -0.3507  0.3138
 9866TIP3    H151013  -0.018   4.260   3.684 -0.8380  0.4149 -0.2456
 9866TIP3    H251014   0.106   4.343   3.660 -0.5083  0.1599  0.5324
 9867TIP3   OH251015   6.669   5.068   3.768 -0.9623 -0.3334 -0.0879
 9867TIP3    H151016   6.662   5.053   3.862 -1.9272 -1.9830 -0.3930
 9867TIP3    H251017   6.614   5.146   3.752 -1.2365 -0.3724  0.6319
 9868TIP3   OH251018   4.429   2.245   4.029 -0.0821 -0.1293 -0.3610
 9868TIP3    H151019   4.354   2.218   4.081  1.8809 -0.6139  2.4886
 9868TIP3    H251020   4.430   2.341   4.037 -0.0004 -0.1747  0.2415
 9869TIP3   OH251021   0.131   3.343  14.215  0.2728  0.0139 -0.2341
 9869TIP3    H151022   0.218   3.304  14.203 -0.3267 -1.1850 -0.7733
 9869TIP3    H251023   0.070   3.273  14.193 -0.9234 -0.6168  4.2061
 9870TIP3   OH251024   6.215   0.377   6.284  0.0472 -0.5077 -0.1419
 9870TIP3    H151025   6.244   0.466   6.262 -1.9019 -0.4705 -3.1956
 9870TIP3    H251026   6.296   0.328   6.296  1.2392  1.1703 -0.8812
 9871TIP3   OH251027   5.332   5.692  17.111  0.0131  0.1152 -0.1506
 9871TIP3    H151028   5.285   5.618  17.150  1.4505 -0.5670  0.3482
 9871TIP3    H251029   5.338   5.670  17.018  1.4016 -0.9714  0.1673
 9872TIP3   OH251030   2.247   1.183  11.546  0.1007 -0.5928  0.1711
 9872TIP3    H151031   2.204   1.236  11.480 -1.6703 -1.2604  0.7343
 9872TIP3    H251032   2.188   1.185  11.621  1.1871 -1.3479  1.0920
 9873TIP3   OH251033   2.129   0.095  16.092  0.5208 -0.0847  0.4952
 9873TIP3    H151034   2.160   0.167  16.147 -0.8069  0.9171 -0.0217
 9873TIP3    H251035   2.039   0.080  16.121  0.6931 -1.3783  0.4144
 9874TIP3   OH251036   2.787   3.017   0.969  0.2015  0.0573 -0.0174
 9874TIP3    H151037   2.735   3.051   1.042  0.8297  0.9997  0.0072
 9874TIP3    H251038   2.762   3.073   0.895 -1.7098 -1.9418 -1.0067
 9875TIP3   OH251039   1.452   4.754   1.759  0.0099  0.0148  0.2346
 9875TIP3    H151040   1.385   4.734   1.694  1.1321 -2.2508 -0.3240
 9875TIP3    H251041   1.523   4.795   1.709  0.5335 -0.9739  0.1430
 9876TIP3   OH251042   5.179   0.192  13.000 -1.0119  0.4748  0.3328
 9876TIP3    H151043   5.256   0.248  12.995  0.3926 -1.3454  0.5461
 9876TIP3    H251044   5.166   0.175  13.093 -0.4102 -0.8274  0.2044
 9877TIP3   OH251045   5.738   3.255   0.998 -0.0358 -0.1310 -0.3566
 9877TIP3    H151046   5.716   3.217   1.082 -0.4874 -0.6292 -0.6950
 9877TIP3    H251047   5.696   3.341   0.998 -0.1427 -0.1849 -0.1302
 9878TIP3   OH251048   1.753   3.374  12.237  0.5331 -0.1812  0.2642
 9878TIP3    H151049   1.836   3.376  12.188 -0.2708  0.2450 -1.1208
 9878TIP3    H251050   1.699   3.311  12.190 -0.6326  1.0025 -0.0325
 9879TIP3   OH251051   5.504   5.177  10.953  0.0173 -0.2108  0.5515
 9879TIP3    H151052   5.489   5.126  11.033  1.1724 -0.1534  0.8233
 9879TIP3    H251053   5.423   5.168  10.903 -0.1007 -1.6519  0.9535
 9880TIP3   OH251054   5.018   0.975   6.084 -0.0927 -0.1675 -0.6976
 9880TIP3    H151055   4.941   0.979   6.141 -0.1146  2.2208 -0.8018
 9880TIP3    H251056   5.091   0.957   6.144 -0.5303 -1.1354 -0.4300
 9881TIP3   OH251057   6.281   2.323  13.818  0.0873  0.2007  0.0269
 9881TIP3    H151058   6.237   2.382  13.757 -1.1299 -0.5261  0.1619
 9881TIP3    H251059   6.337   2.269  13.762  1.1680  1.4151 -0.1009
 9882TIP3   OH251060   3.863   2.734  14.085  0.1185 -0.1842 -0.0279
 9882TIP3    H151061   3.835   2.662  14.141  0.6495 -1.4834 -1.3937
 9882TIP3    H251062   3.823   2.716  14.000  1.1587  0.5399 -0.6897
 9883TIP3   OH251063   6.043   2.149   5.276  0.1494 -0.6993  0.0163
 9883TIP3    H151064   6.011   2.068   5.315  0.1889 -0.0489  1.4578
 9883TIP3    H251065   6.112   2.121   5.216  1.3965 -1.6319  1.8011
 9884TIP3   OH251066   2.189   5.056   5.470 -0.1588  0.0693 -0.1553
 9884TIP3    H151067   2.163   5.143   5.499  0.8213  0.6813 -1.0183
 9884TIP3    H251068   2.281   5.049   5.494 -0.2201 -0.7279 -0.1133
 9885TIP3   OH251069   3.602   4.638   2.048  0.5981 -0.6398 -0.0701
 9885TIP3    H151070   3.691   4.607   2.030  0.7261  0.2117 -1.0185
 9885TIP3    H251071   3.562   4.569   2.100  1.5322 -1.4406 -0.3930
 9886TIP3   OH251072   1.447   0.528   2.520  0.0603  0.2538  0.1687
 9886TIP3    H151073   1.484   0.611   2.550 -1.4192  1.0631 -0.1325
 9886TIP3    H251074   1.470   0.524   2.427 -0.8112  0.8921 -0.0866
 9887TIP3   OH251075   0.941   2.150  11.936  0.2820 -0.0414  0.5277
 9887TIP3    H151076   1.002   2.086  11.900 -0.2971 -0.8122  0.9028
 9887TIP3    H251077   0.863   2.100  11.957 -0.3343  0.8667  0.4435
 9888TIP3   OH251078   2.971   4.409  13.012  0.1071  0.0795 -0.5576
 9888TIP3    H151079   2.898   4.428  13.071 -1.0666  0.0602 -1.9433
 9888TIP3    H251080   2.933   4.350  12.946  0.5234  2.3971 -3.0210
 9889TIP3   OH251081   6.630   5.898   0.535 -0.3160 -0.0611 -0.6318
 9889TIP3    H151082   6.617   5.948   0.454  0.4511 -0.1198 -0.8067
 9889TIP3    H251083   6.602   5.809   0.514 -1.9214  0.3368 -0.2444
 9890TIP3   OH251084   0.985   1.085  14.173  0.7342  0.0912 -0.3681
 9890TIP3    H151085   0.999   1.179  14.182 -0.2291  0.2118  0.0579
 9890TIP3    H251086   0.929   1.062  14.248 -1.6008 -0.2352 -2.1044
 9891TIP3   OH251087   6.006   1.520  15.270  0.2066 -0.5178 -0.1036
 9891TIP3    H151088   6.100   1.501  15.265  0.2076 -0.3920 -0.6052
 9891TIP3    H251089   5.965   1.443  15.230  0.0698 -0.7796  0.5236
 9892TIP3   OH251090   2.592   6.514  12.617  0.6480  0.0905  0.2740
 9892TIP3    H151091   2.519   6.575  12.623 -1.0040 -1.8552  1.2636
 9892TIP3    H251092   2.669   6.570  12.601 -0.4730  2.5850  2.7363
 9893TIP3   OH251093   5.814   6.394   5.166 -0.1449 -0.0912 -0.2361
 9893TIP3    H151094   5.823   6.456   5.093  0.7685  0.6733  0.5100
 9893TIP3    H251095   5.758   6.439   5.229  0.2795 -0.1511  0.1825
 9894TIP3   OH251096   0.013   0.751   0.743  0.4945 -0.2262 -0.6426
 9894TIP3    H151097   0.001   0.738   0.838  0.3346 -1.6360 -0.8343
 9894TIP3    H251098   0.100   0.714   0.725  0.5730  0.1492 -1.0292
 9895TIP3   OH251099   5.052   3.810  12.372 -0.1283 -0.0359 -0.4666
 9895TIP3    H151100   5.114   3.795  12.444  2.3763  1.6791 -2.0762
 9895TIP3    H251101   5.090   3.762  12.298 -2.2354 -1.1461 -0.8826
 9896TIP3   OH251102   4.076   4.001  11.563 -0.2513  0.7548 -0.2867
 9896TIP3    H151103   4.085   4.029  11.654  1.5113  2.6103 -0.9661
 9896TIP3    H251104   4.166   3.995  11.530 -0.7905 -0.9414 -1.6523
 9897TIP3   OH251105   1.108   5.985   0.414 -0.3750  0.1586  0.3410
 9897TIP3    H151106   1.187   6.011   0.367 -0.2791  0.0805  0.4586
 9897TIP3    H251107   1.103   6.044   0.489 -0.2999  0.0085  0.4634
 9898TIP3   OH251108   2.950   0.107   2.637 -0.0203 -0.0771  0.1237
 9898TIP3    H151109   2.938   0.014   2.658  0.9886 -0.2970 -0.2034
 9898TIP3    H251110   3.036   0.129   2.673  0.3361  0.3710 -0.9646
 9899TIP3   OH251111   3.173   0.214   0.224  0.2507 -0.4907  0.0015
 9899TIP3    H151112   3.199   0.168   0.304  1.1294 -1.0995 -0.6144
 9899TIP3    H251113   3.255   0.248   0.188  0.3571 -2.7475 -2.1717
 9900TIP3   OH251114   6.652   0.847   1.419  0.0366  0.2875  0.6526
 9900TIP3    H151115   6.584   0.822   1.480 -1.6290 -1.7895 -1.8294
 9900TIP3    H251116   6.701   0.766   1.402  1.3996  1.1332  0.3191
 9901TIP3   OH251117   5.333   1.620   2.334  0.0697 -0.5712 -0.0453
 9901TIP3    H151118   5.372   1.560   2.271  0.6228  0.0289 -0.2912
 9901TIP3    H251119   5.332   1.572   2.416  1.9945 -0.3701  0.1297
 9902TIP3   OH251120   2.721   4.798   5.702 -0.1993  0.3645  0.0019
 9902TIP3    H151121   2.627   4.779   5.701 -0.3585  1.1402 -0.5056
 9902TIP3    H251122   2.758   4.732   5.761 -0.7899 -1.2387 -1.3272
 9903TIP3   OH251123   3.814   5.080  10.381 -0.0668  0.3485  0.4926
 9903TIP3    H151124   3.828   4.989  10.355 -1.2125 -0.0549  1.2164
 9903TIP3    H251125   3.804   5.127  10.298  4.0124  0.5287 -0.1336
 9904TIP3   OH251126   0.970   0.511  13.016  0.1305 -0.0713  0.1060
 9904TIP3    H151127   0.908   0.504  12.943 -0.3601 -1.3048  0.6083
 9904TIP3    H251128   1.002   0.601  13.012 -1.3147  0.4438 -0.4722
 9905TIP3   OH251129   1.951   2.633  11.760  0.1920  0.4596  0.5266
 9905TIP3    H151130   1.977   2.566  11.697  2.5946  0.8724  1.0055
 9905TIP3    H251131   1.876   2.676  11.718  0.1348 -0.8906 -0.8796
 9906TIP3   OH251132   6.669   0.672  12.793  0.1395 -0.8557 -0.0705
 9906TIP3    H151133   6.725   0.628  12.728  1.0420  0.0097  0.0886
 9906TIP3    H251134   6.582   0.669  12.755  0.2835 -2.1664 -0.3739
 9907TIP3   OH251135   1.665   6.269  13.761  0.3408 -0.3094  0.2918
 9907TIP3    H151136   1.634   6.320  13.837 -0.9195 -0.6254  0.0083
 9907TIP3    H251137   1.697   6.335  13.700  0.8029 -0.0078  0.8520
 9908TIP3   OH251138   0.318   5.092   1.974 -0.6300 -0.1977 -0.2570
 9908TIP3    H151139   0.299   5.079   1.882 -1.2360  1.0382 -0.3329
 9908TIP3    H251140   0.243   5.055   2.020 -0.5352 -0.4202 -0.2818
 9909TIP3   OH251141   5.604   4.151  17.215  0.4310 -0.6715  0.3264
 9909TIP3    H151142   5.548   4.162  17.292 -0.0484  2.9588 -0.3804
 9909TIP3    H251143   5.543   4.125  17.145  0.5394 -1.9230  0.6767
 9910TIP3   OH251144   0.431   6.053   0.786  0.4938  0.7075 -0.2830
 9910TIP3    H151145   0.524   6.048   0.763  0.4332  1.7475 -0.8451
 9910TIP3    H251146   0.395   6.117   0.724 -0.6927 -0.0149 -0.3633
 9911TIP3   OH251147   3.724   2.285   6.273 -0.2312 -0.3140  0.2272
 9911TIP3    H151148   3.679   2.370   6.280  1.2757  0.3929  2.3068
 9911TIP3    H251149   3.814   2.303   6.300  0.3078 -2.4454  0.0183
 9912TIP3   OH251150   0.573   4.014   2.092  0.0962  0.5613  0.3225
 9912TIP3    H151151   0.501   4.061   2.134 -1.3440 -1.5390  0.3074
 9912TIP3    H251152   0.535   3.978   2.012  1.1667 -0.6061  0.3146
 9913TIP3   OH251153   3.195   2.822  12.713 -0.3976  0.0486 -0.1284
 9913TIP3    H151154   3.203   2.877  12.635 -1.2398  0.3771  0.0059
 9913TIP3    H251155   3.219   2.881  12.786  0.4734 -0.2811 -0.1327
 9914TIP3   OH251156   5.922   6.633   4.310  0.2103 -0.0588 -0.2165
 9914TIP3    H151157   5.840   6.584   4.318  0.9088 -1.3017 -0.3713
 9914TIP3    H251158   5.975   6.581   4.249  2.0611 -0.6586  1.7808
 9915TIP3   OH251159   4.359   5.634   3.202  0.4250 -0.0096  0.2435
 9915TIP3    H151160   4.315   5.557   3.235  0.1331  0.0888  0.0892
 9915TIP3    H251161   4.298   5.706   3.219  0.9217  0.2662  0.8713
 9916TIP3   OH251162   2.892   5.655   0.632 -0.1070  0.4760  0.0465
 9916TIP3    H151163   2.945   5.576   0.624  0.4355  0.8588 -0.1340
 9916TIP3    H251164   2.819   5.640   0.571 -0.7187 -0.4481  0.9728
 9917TIP3   OH251165   6.153   0.222  11.714  0.2229  0.2591  0.0723
 9917TIP3    H151166   6.115   0.166  11.782  0.7612 -0.8824 -0.5465
 9917TIP3    H251167   6.120   0.185  11.632  0.3387  1.0528 -0.3415
 9918TIP3   OH251168   2.608   3.630  12.326 -0.5663 -0.1602  0.0709
 9918TIP3    H151169   2.594   3.611  12.419 -3.4944 -0.0642 -0.2489
 9918TIP3    H251170   2.652   3.715  12.326 -0.1195 -0.3670  1.3554
 9919TIP3   OH251171   2.505   1.941  16.479 -0.8741 -0.2445 -0.1871
 9919TIP3    H151172   2.423   1.904  16.510 -0.9931  0.4818  0.3776
 9919TIP3    H251173   2.510   1.914  16.387 -1.5302 -0.6436 -0.1127
 9920TIP3   OH251174   0.935   4.542  10.660  0.0467  0.5796 -0.2172
 9920TIP3    H151175   0.892   4.478  10.603  0.8419  0.9131 -1.2420
 9920TIP3    H251176   0.906   4.627  10.626 -0.2703  0.7784  0.5379
 9921TIP3   OH251177   2.999   2.640  17.101  0.6131 -0.1206  0.4456
 9921TIP3    H151178   2.965   2.563  17.146 -0.0191 -0.4897 -0.6295
 9921TIP3    H251179   3.092   2.622  17.089  0.6338 -0.3466  0.9434
 9922TIP3   OH251180   3.225   4.783   3.741  0.1422 -0.0428 -0.2577
 9922TIP3    H151181   3.159   4.852   3.741 -1.5186 -1.4500  2.2973
 9922TIP3    H251182   3.196   4.723   3.671 -0.0954  0.3579 -0.5098
 9923TIP3   OH251183   0.911   5.646   4.593  0.4243 -0.3030  0.1736
 9923TIP3    H151184   0.997   5.605   4.603  0.0982 -0.9793  0.3130
 9923TIP3    H251185   0.928   5.727   4.545  0.9965 -1.0240 -0.8811
 9924TIP3   OH251186   4.399   0.566  11.410 -0.0983  0.4844 -0.3611
 9924TIP3    H151187   4.369   0.477  11.427 -1.5602  0.6447 -1.8082
 9924TIP3    H251188   4.328   0.606  11.361 -0.5804  3.2586  2.2923
 9925TIP3   OH251189   4.187   3.075  13.038 -0.0711 -0.1153 -0.6224
 9925TIP3    H151190   4.094   3.099  13.033 -1.0603 -2.5030  2.7318
 9925TIP3    H251191   4.221   3.091  12.950 -3.0256  3.0520 -1.3898
 9926TIP3   OH251192   4.046   0.691  12.616 -0.9952  0.2548 -0.3138
 9926TIP3    H151193   4.045   0.596  12.599  1.3022  0.2281 -0.5987
 9926TIP3    H251194   4.086   0.699  12.702 -0.3014  1.0116 -0.7014
 9927TIP3   OH251195   2.000   0.379  12.728  0.1500 -0.4712  0.3164
 9927TIP3    H151196   1.978   0.392  12.635  1.5850 -1.5361 -0.1999
 9927TIP3    H251197   2.067   0.444  12.746 -0.9458  0.5213  0.9677
 9928TIP3   OH251198   2.885   0.037  11.923 -0.5164  0.0285  0.3706
 9928TIP3    H151199   2.951   0.006  11.861 -0.6421 -2.4704  1.3643
 9928TIP3    H251200   2.929   0.105  11.974  1.1827 -1.3049  0.7513
 9929TIP3   OH251201   4.510   1.555  14.093 -0.4106  0.7456  0.0214
 9929TIP3    H151202   4.469   1.642  14.098 -0.3850  0.8266 -1.0783
 9929TIP3    H251203   4.437   1.494  14.106 -0.2387  0.9005  2.1836
 9930TIP3   OH251204   3.544   4.874   2.899  0.2460 -0.2878  0.0853
 9930TIP3    H151205   3.478   4.820   2.857 -0.7700  0.3738  0.7730
 9930TIP3    H251206   3.581   4.818   2.968 -1.2073  0.0349  1.1777
 9931TIP3   OH251207   6.337   3.404  17.049  0.2088 -0.3389  0.7157
 9931TIP3    H151208   6.397   3.399  17.123  0.2519 -1.0141  0.6375
 9931TIP3    H251209   6.258   3.360  17.078 -0.2413  0.5000  0.7981
 9932TIP3   OH251210   5.247   5.889   4.767  0.1425  0.2480 -0.1534
 9932TIP3    H151211   5.223   5.800   4.743  2.2551 -0.7494  1.1433
 9932TIP3    H251212   5.180   5.916   4.830  0.0321 -0.8003  0.1897
 9933TIP3   OH251213   5.832   1.619  14.597 -0.1101  0.2127 -0.3238
 9933TIP3    H151214   5.887   1.541  14.599  1.2445  1.1248 -0.3782
 9933TIP3    H251215   5.888   1.688  14.634 -0.5381  1.5981 -2.1357
 9934TIP3   OH251216   4.114   2.376   6.095 -0.0033 -0.1204 -0.2500
 9934TIP3    H151217   4.094   2.372   6.189 -0.7834 -0.1250 -0.4094
 9934TIP3    H251218   4.057   2.310   6.056  0.6876 -0.4757 -0.6743
 9935TIP3   OH251219   4.096   2.974   3.669 -0.3971 -0.1894  0.5654
 9935TIP3    H151220   4.092   2.884   3.704  1.2155 -0.3055  0.5064
 9935TIP3    H251221   4.175   3.011   3.708  0.4822  0.2845 -1.5545
 9936TIP3   OH251222   0.176   1.426   5.936 -0.6069  0.1250  0.6242
 9936TIP3    H151223   0.141   1.512   5.913 -0.5013 -0.1038 -0.4283
 9936TIP3    H251224   0.152   1.369   5.863 -0.6070 -0.7293  1.2709
 9937TIP3   OH251225   1.165   5.315   4.367 -0.2012 -0.2374  0.0009
 9937TIP3    H151226   1.204   5.369   4.435  0.6055 -1.3946  0.4889
 9937TIP3    H251227   1.071   5.333   4.374 -0.0398  0.3885  0.7637
 9938TIP3   OH251228   1.831   0.629  11.405  0.1264 -0.4614 -0.0552
 9938TIP3    H151229   1.922   0.657  11.418  0.7889 -2.6479  0.3575
 9938TIP3    H251230   1.829   0.595  11.316 -0.5544  0.4198 -0.3943
 9939TIP3   OH251231   1.764   3.332  12.779 -0.4308 -0.1340 -0.0182
 9939TIP3    H151232   1.716   3.367  12.704 -1.7193 -1.7081  0.0197
 9939TIP3    H251233   1.820   3.263  12.742  0.2949  0.3139  0.2256
 9940TIP3   OH251234   5.643   3.297  12.014  0.2358 -0.3074  0.3527
 9940TIP3    H151235   5.578   3.310  11.946 -0.9175 -0.1602  1.4495
 9940TIP3    H251236   5.699   3.227  11.980  0.4282  0.5763 -1.2456
 9941TIP3   OH251237   0.633   2.065  13.418  0.6190  0.5031 -0.8500
 9941TIP3    H151238   0.629   1.970  13.413 -0.2154  0.5428 -1.1513
 9941TIP3    H251239   0.636   2.085  13.511  0.2172  0.2004 -0.7724
 9942TIP3   OH251240   1.592   2.417   3.206 -0.2093  0.6506  0.6830
 9942TIP3    H151241   1.519   2.407   3.144 -1.0813  1.5181  1.5367
 9942TIP3    H251242   1.600   2.331   3.247 -0.5873  0.4752  0.3984
 9943TIP3   OH251243   4.137   1.553  13.605 -0.4010  0.3901  0.2717
 9943TIP3    H151244   4.065   1.576  13.664 -1.3418  0.9108 -1.0390
 9943TIP3    H251245   4.107   1.472  13.563  0.0455  0.2880  0.1514
 9944TIP3   OH251246   4.312   0.821   5.890 -0.0687  0.5842  0.2622
 9944TIP3    H151247   4.240   0.764   5.916  0.6759 -0.3670  0.2694
 9944TIP3    H251248   4.391   0.768   5.902  0.5241  1.1097 -1.1621
 9945TIP3   OH251249   5.947   6.637   4.605  0.5052 -0.4102 -0.0291
 9945TIP3    H151250   5.974   6.646   4.513  4.1707 -3.0866  0.5185
 9945TIP3    H251251   5.876   6.573   4.603 -0.0475  0.2129 -1.0420
 9946TIP3   OH251252   3.675   6.353  14.836  0.1549 -0.0898 -0.1761
 9946TIP3    H151253   3.658   6.300  14.758 -1.0239 -1.3530  0.8797
 9946TIP3    H251254   3.698   6.439  14.802  0.4175 -0.8123 -1.9247
 9947TIP3   OH251255   3.206   4.623  14.082 -0.1324  0.1300  0.3847
 9947TIP3    H151256   3.158   4.544  14.055  1.2840 -0.2628 -1.1405
 9947TIP3    H251257   3.217   4.672  14.001  1.7906  0.3364  0.7364
 9948TIP3   OH251258   0.019   6.577  16.804 -0.0136 -0.2138  0.0242
 9948TIP3    H151259  -0.020   6.636  16.740 -1.3303  2.3884  2.9363
 9948TIP3    H251260  -0.039   6.501  16.806  0.0495 -0.3454 -1.7548
 9949TIP3   OH251261   3.618   1.384  16.109  0.0343 -0.1312  0.0085
 9949TIP3    H151262   3.656   1.469  16.130 -1.0307  0.2178  0.6578
 9949TIP3    H251263   3.621   1.378  16.014 -0.7494  1.0822 -0.1140
 9950TIP3   OH251264   4.841   3.006  13.489 -0.0573 -0.3773  0.0436
 9950TIP3    H151265   4.933   2.983  13.488  0.0017 -0.1967  0.6950
 9950TIP3    H251266   4.801   2.945  13.551 -0.2110  0.1397  0.4572
 9951TIP3   OH251267   4.446   1.561   2.226 -0.3768  0.2371  0.1874
 9951TIP3    H151268   4.414   1.650   2.238  0.2416  0.5237 -0.2411
 9951TIP3    H251269   4.484   1.561   2.138 -1.6601 -0.8437 -0.3997
 9952TIP3   OH251270   3.063   5.815  12.202  0.5248 -0.1751  0.1471
 9952TIP3    H151271   3.048   5.811  12.296 -0.9009  1.5008  0.0392
 9952TIP3    H251272   3.155   5.793  12.191  0.6089 -0.8080  1.8821
 9953TIP3   OH251273   0.262   6.364   2.780 -0.1111 -0.6111  0.2513
 9953TIP3    H151274   0.205   6.313   2.837 -1.8373  2.3036  1.3565
 9953TIP3    H251275   0.301   6.430   2.837  0.9551  0.1671 -1.2930
 9954TIP3   OH251276   5.511   3.886  11.739 -0.0400 -0.5155  0.1383
 9954TIP3    H151277   5.521   3.824  11.667 -0.2270  1.1088 -1.3611
 9954TIP3    H251278   5.600   3.918  11.754 -0.0659 -0.5422  0.3409
 9955TIP3   OH251279   6.446   4.339   2.950 -0.0505  0.8171 -0.4369
 9955TIP3    H151280   6.380   4.379   3.007  1.7109  0.9278  1.6353
 9955TIP3    H251281   6.501   4.412   2.922  2.4171  0.1810  2.3354
 9956TIP3   OH251282   5.246   3.832   2.594 -0.2437  0.3443  0.5824
 9956TIP3    H151283   5.214   3.909   2.547  2.6361 -0.0932 -2.4471
 9956TIP3    H251284   5.253   3.861   2.685  0.2713  3.5656 -0.3484
 9957TIP3   OH251285   0.491   2.668   3.502  0.1179  0.4693  0.1937
 9957TIP3    H151286   0.405   2.647   3.537  1.2519 -1.1331  2.2599
 9957TIP3    H251287   0.485   2.760   3.476 -2.0755  0.5122  0.6723
 9958TIP3   OH251288   0.012   5.395  12.733 -0.0407 -0.3642 -0.4304
 9958TIP3    H151289  -0.003   5.400  12.639  0.9377  1.1506 -0.5403
 9958TIP3    H251290   0.034   5.303  12.749 -0.0590 -0.6108 -1.6934
 9959TIP3   OH251291   5.959   6.001  15.769  0.2882  0.3129 -0.2547
 9959TIP3    H151292   5.953   6.078  15.713 -0.5790  0.2284 -0.2871
 9959TIP3    H251293   6.025   5.946  15.726  1.5815  1.4152  0.2533
 9960TIP3   OH251294   5.623   0.447   5.933  0.9317 -0.2026 -0.2554
 9960TIP3    H151295   5.631   0.452   6.028  0.6525 -0.8998 -0.1897
 9960TIP3    H251296   5.595   0.357   5.915 -0.1574  0.2363 -0.9106
 9961TIP3   OH251297   4.107   4.340  11.333 -0.3514 -0.1435 -0.0371
 9961TIP3    H151298   4.013   4.353  11.334 -0.3560 -0.0810 -0.6822
 9961TIP3    H251299   4.141   4.409  11.275 -0.0662 -1.0122 -0.9425
 9962TIP3   OH251300   0.362   6.744  11.556 -0.4341  0.0723  0.3810
 9962TIP3    H151301   0.432   6.693  11.596 -0.8988 -0.8095  0.1048
 9962TIP3    H251302   0.407   6.815  11.511  0.3663 -0.8870 -0.3993
 9963TIP3   OH251303   0.913   6.514  11.321  0.1037 -0.3152  0.4645
 9963TIP3    H151304   0.888   6.429  11.357  0.8216 -0.8352 -0.2207
 9963TIP3    H251305   1.008   6.507  11.309  0.1850  0.6252  0.4939
 9964TIP3   OH251306   0.390   4.371   2.702  0.3758  0.0176 -0.2487
 9964TIP3    H151307   0.319   4.396   2.762  0.8748 -0.9172  0.7596
 9964TIP3    H251308   0.409   4.280   2.724 -0.1291 -0.7202 -2.5686
 9965TIP3   OH251309   6.419   6.744  10.466 -0.0748  0.0150  0.3155
 9965TIP3    H151310   6.393   6.654  10.485 -0.4518  0.1924  0.6600
 9965TIP3    H251311   6.513   6.739  10.448  0.4955 -0.0694  2.9647
 9966TIP3   OH251312   6.026   3.233   3.776 -0.0113  0.3720 -0.3977
 9966TIP3    H151313   6.098   3.170   3.777  0.1334  0.5180 -1.0602
 9966TIP3    H251314   5.992   3.233   3.866  0.5962  0.0533 -0.1649
 9967TIP3   OH251315   3.850   4.423   3.000 -0.2399  0.0014 -0.1945
 9967TIP3    H151316   3.926   4.365   3.006  0.1636  0.4165 -1.0750
 9967TIP3    H251317   3.880   4.505   3.039 -0.7393 -0.2922  0.8484
 9968TIP3   OH251318   1.822   1.396  15.604 -0.1066  1.0779 -0.6942
 9968TIP3    H151319   1.859   1.309  15.598  1.7656  1.5165  2.4008
 9968TIP3    H251320   1.889   1.454  15.568  0.4000  1.5139  0.8778
 9969TIP3   OH251321   0.249   0.710  14.659 -0.1350 -0.6002  0.6305
 9969TIP3    H151322   0.213   0.650  14.593 -0.6784  0.0781  0.2918
 9969TIP3    H251323   0.240   0.797  14.619  0.4395 -0.2681  1.2021
 9970TIP3   OH251324   0.286   1.600  16.185  0.1261  0.0765 -0.5439
 9970TIP3    H151325   0.211   1.648  16.220 -1.8797 -2.1422 -1.5115
 9970TIP3    H251326   0.256   1.509  16.182  2.3329 -0.6632 -2.4086
 9971TIP3   OH251327   0.329   1.795  13.579  0.7410  0.7160 -0.6379
 9971TIP3    H151328   0.302   1.710  13.614 -1.3634  1.8811  0.8033
 9971TIP3    H251329   0.415   1.811  13.619 -0.5014  0.8899  2.2631
 9972TIP3   OH251330   5.187   4.764  16.972 -0.8435  0.0678  0.0397
 9972TIP3    H151331   5.113   4.727  17.021  0.1705 -2.2040 -0.0279
 9972TIP3    H251332   5.253   4.694  16.972  0.6590  1.4167 -1.3317
 9973TIP3   OH251333   2.664   5.482  14.685 -0.0883  0.6930 -0.6329
 9973TIP3    H151334   2.717   5.451  14.612  0.8764  1.7039 -0.3847
 9973TIP3    H251335   2.723   5.482  14.760 -1.4390 -1.7760  0.5621
 9974TIP3   OH251336   4.600   1.029  14.007  0.0598 -0.2591 -0.1632
 9974TIP3    H151337   4.590   1.124  14.012 -1.1984 -0.4300  1.3887
 9974TIP3    H251338   4.693   1.014  14.023 -0.1193  0.6365  2.1916
 9975TIP3   OH251339   6.727   2.656   2.217 -0.3674  0.1160 -0.4725
 9975TIP3    H151340   6.717   2.722   2.148 -0.9474 -0.2777 -0.7757
 9975TIP3    H251341   6.639   2.620   2.228 -0.4680  0.7707  1.0880
 9976TIP3   OH251342   6.497   2.204  15.950  0.1163 -0.5015 -0.1018
 9976TIP3    H151343   6.476   2.129  16.005  0.5912 -1.3140 -1.0046
 9976TIP3    H251344   6.575   2.242  15.989  1.4505 -2.0714 -1.1333
 9977TIP3   OH251345   4.331   0.498  13.944 -0.5973 -0.6826 -0.2059
 9977TIP3    H151346   4.326   0.412  13.903 -1.9002 -0.6885 -0.0887
 9977TIP3    H251347   4.315   0.560  13.872 -0.1196 -0.5581 -0.2074
 9978TIP3   OH251348   1.216   2.397   4.128 -0.0933 -0.4596  0.1194
 9978TIP3    H151349   1.197   2.452   4.052 -2.2528 -0.2822  0.7225
 9978TIP3    H251350   1.130   2.381   4.168  0.4339 -4.0656  0.1176
 9979TIP3   OH251351   5.598   4.392  10.217 -0.0296  0.1638 -0.3161
 9979TIP3    H151352   5.553   4.459  10.166 -1.0223  0.0978  0.4359
 9979TIP3    H251353   5.600   4.315  10.160 -0.2070  0.4000 -0.6408
 9980TIP3   OH251354   3.656   5.594   0.246 -0.0143  0.1695  0.4097
 9980TIP3    H151355   3.592   5.588   0.175  0.8591  0.9461 -0.4837
 9980TIP3    H251356   3.707   5.514   0.239  1.1282  0.9628 -0.9433
 9981TIP3   OH251357   6.189   5.299   2.302 -0.0326 -0.4174 -0.4707
 9981TIP3    H151358   6.260   5.242   2.332 -0.3868 -0.9239 -0.5758
 9981TIP3    H251359   6.122   5.293   2.370  1.3901  2.8317  1.4573
 9982TIP3   OH251360   0.626   3.220   1.381 -0.0688 -0.3432 -0.1681
 9982TIP3    H151361   0.718   3.212   1.357 -0.1266 -0.7883 -0.2518
 9982TIP3    H251362   0.608   3.314   1.379  0.6257 -0.1808  0.7782
 9983TIP3   OH251363   5.819   1.604   0.135 -0.0037  0.3057 -0.2907
 9983TIP3    H151364   5.812   1.663   0.210  1.0957  0.5778 -0.3784
 9983TIP3    H251365   5.799   1.517   0.170 -2.2986  0.7814 -0.2984
 9984TIP3   OH251366   2.811   3.458   1.574 -0.1409  0.4263 -0.2927
 9984TIP3    H151367   2.821   3.365   1.551  0.0237  0.2744  0.3707
 9984TIP3    H251368   2.730   3.485   1.530  0.2239  0.1797 -1.1348
 9985TIP3   OH251369   0.556   1.957   2.052  0.5370 -0.2482  0.1096
 9985TIP3    H151370   0.580   1.868   2.079  0.9261  0.0024  0.6047
 9985TIP3    H251371   0.594   2.014   2.119 -1.5260  0.1829  1.0245
 9986TIP3   OH251372   3.398   1.071   0.607 -0.3396  0.4121 -0.1854
 9986TIP3    H151373   3.323   1.018   0.632 -1.9082  3.0810  1.1521
 9986TIP3    H251374   3.369   1.120   0.530  0.5613  0.4175 -0.5353
 9987TIP3   OH251375   3.267   0.230  17.140 -0.1087  0.1131  0.0213
 9987TIP3    H151376   3.286   0.199  17.051  0.7979 -0.6973  0.4673
 9987TIP3    H251377   3.238   0.320  17.128  2.4802  0.9338 -0.9384
 9988TIP3   OH251378   6.315   2.580   6.355 -0.4970  0.6244  0.3147
 9988TIP3    H151379   6.315   2.492   6.318 -0.9215  0.9848 -0.5772
 9988TIP3    H251380   6.345   2.636   6.283  2.4017  0.9309  1.6061
 9989TIP3   OH251381   4.037   4.936  12.958 -0.3522  0.2840 -0.3705
 9989TIP3    H151382   3.947   4.944  12.990 -0.1653  2.7800 -0.3275
 9989TIP3    H251383   4.079   5.019  12.979  1.7119 -0.4501 -1.2499
 9990TIP3   OH251384   1.378   2.789   2.513  0.2420  0.2707 -0.1168
 9990TIP3    H151385   1.460   2.771   2.560 -0.1600 -1.3844  0.0232
 9990TIP3    H251386   1.406   2.822   2.427  0.9908  2.3258  0.8469
 9991TIP3   OH251387   2.618   2.002   1.791  0.1773  0.0871 -0.1922
 9991TIP3    H151388   2.591   2.029   1.703 -0.0841  0.0947 -0.1100
 9991TIP3    H251389   2.714   1.999   1.786  0.1265 -3.2616 -1.4715
 9992TIP3   OH251390   2.284   0.506   2.761 -0.0936 -0.1272 -0.7784
 9992TIP3    H151391   2.358   0.553   2.799  0.5965 -1.8903  0.1302
 9992TIP3    H251392   2.221   0.499   2.833 -0.6171  0.2120 -1.1873
 9993TIP3   OH251393   5.192   2.251  16.781 -0.1959 -0.3447 -0.1369
 9993TIP3    H151394   5.237   2.199  16.847 -0.2879  0.9614  0.9991
 9993TIP3    H251395   5.102   2.257  16.813  0.2807  2.2464  0.8970
 9994TIP3   OH251396   4.308   0.964  13.901  0.1921 -0.5336 -0.0633
 9994TIP3    H151397   4.404   0.958  13.906  0.0990 -1.1487  1.1834
 9994TIP3    H251398   4.276   0.899  13.964 -1.0285  1.5806  1.6085
 9995TIP3   OH251399   6.471   5.604  12.597 -0.1355 -0.5880  0.4000
 9995TIP3    H151400   6.506   5.605  12.686  3.0157  1.9596 -0.6695
 9995TIP3    H251401   6.445   5.695  12.580 -1.3896 -1.1682 -1.0789
 9996TIP3   OH251402   6.468   5.035  11.160  0.6081  0.1112 -0.7805
 9996TIP3    H151403   6.536   4.984  11.204  1.1269  1.3974 -0.0567
 9996TIP3    H251404   6.504   5.123  11.154 -1.7024  1.3174  1.3362
 9997TIP3   OH251405   0.787   5.033   2.481  0.1849  0.3480 -1.4648
 9997TIP3    H151406   0.732   5.111   2.471  0.9818  1.0848 -0.3650
 9997TIP3    H251407   0.730   4.960   2.459 -1.8137  0.9151  1.3176
 9998TIP3   OH251408   2.745   4.256   6.053  0.1023 -0.2479 -0.2229
 9998TIP3    H151409   2.829   4.299   6.042 -0.6536  1.2567 -0.3281
 9998TIP3    H251410   2.720   4.228   5.964  1.2008 -2.1842  0.0152
 9999TIP3   OH251411   3.429   5.506  12.221 -0.0706  0.4447  0.5520
 9999TIP3    H151412   3.475   5.452  12.285 -0.7357 -0.6529  0.1322
 9999TIP3    H251413   3.497   5.533  12.160 -0.0176 -1.8342 -0.5278
10000TIP3   OH251414   3.903   2.976  15.532 -0.3577  0.0330  0.0418
10000TIP3    H151415   3.971   2.911  15.513  0.2427  0.4591  0.6934
10000TIP3    H251416   3.889   3.021  15.448  2.3684  2.0030  0.5033
10001TIP3   OH251417   5.996   2.572   6.176 -0.0299 -0.5701 -0.2608
10001TIP3    H151418   6.082   2.613   6.188 -0.2644 -0.3041  0.6124
10001TIP3    H251419   5.935   2.633   6.217 -0.5206 -1.2367  0.0215
10002TIP3   OH251420   5.270   4.965   3.766  0.4304  0.7685 -0.2662
10002TIP3    H151421   5.258   5.056   3.792  1.6509  1.3905 -1.7249
10002TIP3    H251422   5.271   4.916   3.848  0.8859  2.2207  0.6208
10003TIP3   OH251423   5.457   6.332   5.363  0.2535  0.0393  0.5813
10003TIP3    H151424   5.523   6.392   5.397 -1.4702  0.9586  2.5231
10003TIP3    H251425   5.478   6.323   5.270  2.1973  1.4511  0.8291
10004TIP3   OH251426   4.312   0.779  13.179  0.0112 -0.3463  0.1485
10004TIP3    H151427   4.307   0.845  13.248  0.6919 -0.3514  0.2042
10004TIP3    H251428   4.304   0.829  13.098  0.2730 -0.2196  0.1986
10005TIP3   OH251429   4.451   0.827   1.420 -0.3909  0.1749  0.2478
10005TIP3    H151430   4.516   0.830   1.490  0.7016  2.3192 -0.7829
10005TIP3    H251431   4.436   0.918   1.396 -0.2450 -0.4744 -2.7300
10006TIP3   OH251432   1.483   0.611  12.622  0.2723 -0.1419  0.1311
10006TIP3    H151433   1.507   0.632  12.532  0.8503 -0.5447  0.1857
10006TIP3    H251434   1.543   0.541  12.648  0.8742  0.7359  1.2086
10007TIP3   OH251435   2.805   1.915  14.656  0.0906  0.0920 -0.1303
10007TIP3    H151436   2.849   1.998  14.641 -1.7818  0.5548 -4.2287
10007TIP3    H251437   2.714   1.939  14.676 -0.2051 -0.9725 -0.1188
10008TIP3   OH251438   2.203   0.818  15.976 -0.4226 -0.2364 -0.3122
10008TIP3    H151439   2.199   0.740  15.921 -0.1597  0.9268 -2.0719
10008TIP3    H251440   2.126   0.869  15.951 -0.6417  0.0447  0.8807
10009TIP3   OH251441   4.555   2.500   3.052  0.5754 -0.3561 -0.5179
10009TIP3    H151442   4.473   2.466   3.089  0.8265 -0.3822  0.0187
10009TIP3    H251443   4.550   2.594   3.067 -0.6626  0.0707 -3.0525
10010TIP3   OH251444   1.798   2.782   0.347 -0.3393  0.0581 -0.0545
10010TIP3    H151445   1.837   2.855   0.299  1.7378 -0.1471  1.2126
10010TIP3    H251446   1.754   2.730   0.279  1.7216  0.2383 -1.6370
10011TIP3   OH251447   0.144   1.869   3.857 -0.3941 -0.2327  0.6198
10011TIP3    H151448   0.149   1.847   3.764  0.2695  1.8097  0.1199
10011TIP3    H251449   0.167   1.787   3.902  3.5782 -0.2940 -1.0818
10012TIP3   OH251450   2.136   3.132  13.702  0.0793 -0.2455 -0.1146
10012TIP3    H151451   2.046   3.127  13.734  0.0084 -1.3108 -0.4279
10012TIP3    H251452   2.136   3.205  13.641 -0.5422 -0.1627 -0.0206
10013TIP3   OH251453   5.221   3.852   5.605  0.0669  0.3875 -0.2147
10013TIP3    H151454   5.226   3.805   5.689  0.5165 -1.8572 -1.4174
10013TIP3    H251455   5.312   3.854   5.574 -0.0972  1.2056 -0.6487
10014TIP3   OH251456   1.292   0.270   5.413  0.2301  0.0596 -0.4034
10014TIP3    H151457   1.225   0.320   5.365  1.4535 -0.3343 -2.6161
10014TIP3    H251458   1.275   0.179   5.390  1.8256 -0.0057 -1.4451
10015TIP3   OH251459   5.200   3.152  15.860 -0.2218 -0.3739  0.0561
10015TIP3    H151460   5.249   3.118  15.934  1.0013 -0.1099 -0.6106
10015TIP3    H251461   5.166   3.074  15.815 -1.7879 -0.5172  1.3816
10016TIP3   OH251462   0.313   6.174  13.101  0.2554 -0.0385  0.0188
10016TIP3    H151463   0.307   6.081  13.079  0.8442 -0.1130  0.1540
10016TIP3    H251464   0.313   6.218  13.016  1.0251 -0.2341 -0.0952
10017TIP3   OH251465   6.204   2.498  11.930  0.0216  0.1576 -0.2601
10017TIP3    H151466   6.250   2.430  11.880  0.6310  0.7499 -0.5261
10017TIP3    H251467   6.112   2.488  11.906  0.1047 -0.5559 -0.3134
10018TIP3   OH251468   3.151   5.819  10.500  0.1642 -0.0986 -0.0672
10018TIP3    H151469   3.192   5.814  10.587  0.0267  0.8469  0.0621
10018TIP3    H251470   3.091   5.745  10.498  0.2380 -0.1889  0.6125
10019TIP3   OH251471   3.194   6.233   3.676  0.0110  0.1462 -0.2132
10019TIP3    H151472   3.106   6.236   3.714  0.1033  0.5647 -0.0227
10019TIP3    H251473   3.204   6.318   3.634  0.7912  0.6028  0.8416
10020TIP3   OH251474   1.372   6.571  13.320  0.1427  0.0748  0.0207
10020TIP3    H151475   1.293   6.524  13.295 -0.0616 -0.3671  1.4318
10020TIP3    H251476   1.442   6.526  13.273 -0.3491  0.0343 -0.6946
10021TIP3   OH251477   1.436   3.330   6.775 -0.1339 -1.4647 -0.2863
10021TIP3    H151478   1.495   3.256   6.764  2.0222  0.1479 -0.2102
10021TIP3    H251479   1.493   3.407   6.769 -1.7291  0.1352  2.8524
10022TIP3   OH251480   6.776   0.146   4.560  0.1134 -0.2621 -0.0911
10022TIP3    H151481   6.840   0.185   4.501  0.3509  0.2620  0.5097
10022TIP3    H251482   6.712   0.104   4.502  1.3811 -1.4425 -0.7063
10023TIP3   OH251483   4.264   4.160  15.970  0.2251  0.0002  0.0200
10023TIP3    H151484   4.178   4.122  15.951  1.1931 -1.0716 -2.7750
10023TIP3    H251485   4.326   4.101  15.926  2.1237  2.4396 -0.7771
10024TIP3   OH251486   1.829   1.124   1.953  0.4202 -0.2745 -0.2488
10024TIP3    H151487   1.740   1.158   1.960  0.2575 -0.5347 -0.9812
10024TIP3    H251488   1.844   1.114   1.859  1.2562 -0.1487 -0.1439
10025TIP3   OH251489   5.100   5.588  13.583 -0.0602  0.4689 -0.2434
10025TIP3    H151490   5.042   5.662  13.598 -0.0614  0.4614 -0.2127
10025TIP3    H251491   5.155   5.584  13.661 -0.6623 -0.1181  0.1751
10026TIP3   OH251492   4.824   0.870   0.293 -0.2091 -0.6247  0.5242
10026TIP3    H151493   4.873   0.897   0.371 -1.1293  0.6063  0.7055
10026TIP3    H251494   4.861   0.923   0.222  1.0187 -2.1479 -0.0391
10027TIP3   OH251495   5.738   3.153   2.697 -0.1464  0.0870 -0.3848
10027TIP3    H151496   5.644   3.170   2.689  0.1136  0.6920 -3.2617
10027TIP3    H251497   5.776   3.238   2.720 -0.1320  0.4157 -1.5329
10028TIP3   OH251498   0.963   4.901  13.870  0.2195  0.3089 -0.2796
10028TIP3    H151499   0.872   4.883  13.848 -1.1898  2.2910  3.1274
10028TIP3    H251500   0.988   4.974  13.814 -1.0505  1.0980  0.1461
10029TIP3   OH251501   6.533   1.497  16.107  0.1305  0.0988 -0.3610
10029TIP3    H151502   6.494   1.563  16.164 -2.0352 -0.9461 -0.5242
10029TIP3    H251503   6.484   1.504  16.025 -0.9090 -2.3292 -0.0355
10030TIP3   OH251504   2.793   3.976   1.963 -0.5183  0.1304  0.5774
10030TIP3    H151505   2.811   3.962   2.056 -1.8122 -2.0436  0.5753
10030TIP3    H251506   2.728   3.909   1.941 -2.3598  2.3267 -1.2587
10031TIP3   OH251507   1.054   3.304  13.813  0.0664 -0.5156  0.0902
10031TIP3    H151508   1.129   3.359  13.789  0.1425 -1.0240 -0.9088
10031TIP3    H251509   1.093   3.230  13.860  0.3963 -1.4810 -1.6001
10032TIP3   OH251510   1.267   3.518   5.804  0.0939  0.0856  0.1796
10032TIP3    H151511   1.326   3.510   5.729 -0.8804 -0.4769 -0.5571
10032TIP3    H251512   1.304   3.589   5.857 -0.6156  2.3487 -2.1710
10033TIP3   OH251513   1.442   0.515  15.036 -0.3726 -0.2396  0.0101
10033TIP3    H151514   1.514   0.571  15.066 -0.7647 -0.1302  0.7646
10033TIP3    H251515   1.369   0.535  15.094 -0.7520 -0.9950 -0.1828
10034TIP3   OH251516   3.131   4.235   3.481  0.1083  0.5007 -0.0197
10034TIP3    H151517   3.054   4.178   3.480 -0.0458  0.7081 -0.7134
10034TIP3    H251518   3.172   4.220   3.566 -1.0557  0.8617  0.6155
10035TIP3   OH251519   1.259   1.952  13.654 -0.1099  0.2876  0.0285
10035TIP3    H151520   1.233   2.038  13.621 -0.9670 -0.4189 -1.2296
10035TIP3    H251521   1.177   1.914  13.687  0.3910  0.2172  1.2159
10036TIP3   OH251522   4.025   3.142  16.298 -0.1956  0.0475 -0.4429
10036TIP3    H151523   3.964   3.155  16.226  1.6340 -2.0182 -2.5663
10036TIP3    H251524   4.111   3.162  16.260  0.8440 -1.1921  1.1213
10037TIP3   OH251525   1.301   5.076  15.915 -0.2163 -0.9198  0.0809
10037TIP3    H151526   1.336   5.140  15.978  1.6450 -1.5818 -0.2103
10037TIP3    H251527   1.342   4.993  15.940  1.2277 -1.0538 -2.4379
10038TIP3   OH251528   2.232   0.054  10.541  0.4009  0.0512 -0.3230
10038TIP3    H151529   2.164  -0.009  10.519  1.2585 -0.4410 -1.7476
10038TIP3    H251530   2.295   0.005  10.594  0.4215  0.0617 -0.3367
10039TIP3   OH251531   3.721   5.890   4.084  0.1700  0.3133  0.2349
10039TIP3    H151532   3.756   5.899   3.995  1.1758 -0.9612  0.4609
10039TIP3    H251533   3.634   5.851   4.072 -0.3147  1.5103 -0.2417
10040TIP3   OH251534   0.609   1.943   3.152 -0.5874  0.1400 -0.1580
10040TIP3    H151535   0.565   1.864   3.122  0.7966 -0.3944 -0.8834
10040TIP3    H251536   0.569   1.963   3.237 -0.5793 -1.6627  0.3051
10041TIP3   OH251537   2.781   1.748   1.667 -0.2948  0.2195  0.5148
10041TIP3    H151538   2.804   1.809   1.737  0.3294 -1.2497  1.6560
10041TIP3    H251539   2.862   1.736   1.618 -0.6620  1.0292 -0.3148
10042TIP3   OH251540   4.932   3.625   4.625 -0.5078 -0.3155  0.1236
10042TIP3    H151541   4.911   3.624   4.531 -2.7661  0.1898  0.5701
10042TIP3    H251542   4.915   3.715   4.653 -1.2649 -0.8046  1.2988
10043TIP3   OH251543   0.311   1.282  11.261  0.0906  0.2640 -0.1691
10043TIP3    H151544   0.272   1.231  11.332 -0.9658  0.2641 -0.7406
10043TIP3    H251545   0.300   1.228  11.183 -0.3219  1.0086 -0.6365
10044TIP3   OH251546   1.135   3.112   6.466  0.3405  0.5692  0.2774
10044TIP3    H151547   1.066   3.046   6.467  1.7781 -1.0113  0.0797
10044TIP3    H251548   1.209   3.071   6.510  2.1795  0.9641 -2.1865
10045TIP3   OH251549   3.248   2.605  15.353  0.0034  0.4268 -0.2538
10045TIP3    H151550   3.304   2.671  15.395  1.5767 -1.6568  1.1156
10045TIP3    H251551   3.161   2.620  15.389  0.6401  0.8390  1.1681
10046TIP3   OH251552   2.402   3.214  14.890 -0.4057  0.3580 -0.3751
10046TIP3    H151553   2.432   3.266  14.965 -0.6967  2.0982 -1.3938
10046TIP3    H251554   2.441   3.258  14.814 -0.3236 -1.2002 -1.2755
10047TIP3   OH251555   1.629   1.841   2.078 -0.4902 -0.2230  0.1230
10047TIP3    H151556   1.708   1.798   2.048  1.1080  0.6323  2.7430
10047TIP3    H251557   1.592   1.782   2.143 -2.1069 -0.6332 -1.0948
10048TIP3   OH251558   1.671   5.907  16.716  0.1675 -0.3541 -0.6385
10048TIP3    H151559   1.619   5.926  16.639 -0.6281 -2.1038 -0.5629
10048TIP3    H251560   1.608   5.899  16.787  0.6912 -0.8288 -0.2100
10049TIP3   OH251561   3.896   1.060   1.108 -0.0897 -0.1063  0.0054
10049TIP3    H151562   3.884   0.989   1.172 -0.1499  0.3014  0.4587
10049TIP3    H251563   3.812   1.106   1.109  0.1939  0.4076  0.2599
10050TIP3   OH251564   5.016   6.189   6.148 -0.0368  0.2222 -0.0634
10050TIP3    H151565   5.107   6.184   6.119  0.4736  1.6824  1.1807
10050TIP3    H251566   4.996   6.100   6.180  0.4625 -0.4896 -1.6435
10051TIP3   OH251567   6.571   0.236  14.622 -0.5806  0.4792 -0.2790
10051TIP3    H151568   6.638   0.167  14.626  0.3179  1.3789  1.1502
10051TIP3    H251569   6.489   0.190  14.638  0.1810 -0.0783  2.6957
10052TIP3   OH251570   1.609   3.017  15.006 -0.5843  0.1324 -0.2685
10052TIP3    H151571   1.614   2.922  15.016  0.3369 -0.0587 -2.0760
10052TIP3    H251572   1.601   3.030  14.912  0.6146  1.8846 -0.1691
10053TIP3   OH251573   4.096   1.019  14.233 -0.1238  0.3717  0.0041
10053TIP3    H151574   4.090   1.114  14.228  2.0226  0.5031 -1.1611
10053TIP3    H251575   4.011   0.987  14.201 -1.1649  1.8503  1.1623
10054TIP3   OH251576   5.508   4.918   2.244  0.0166 -0.1595 -0.2516
10054TIP3    H151577   5.455   4.840   2.227  1.3345 -1.0450 -0.4379
10054TIP3    H251578   5.595   4.884   2.266  0.7987  1.2685 -0.9667
10055TIP3   OH251579   4.311   1.629  13.876 -0.0384 -0.0015 -0.3447
10055TIP3    H151580   4.310   1.692  13.947 -2.3190  0.1139 -0.4177
10055TIP3    H251581   4.311   1.544  13.919  0.0806  0.0578 -0.2267
10056TIP3   OH251582   3.306   1.610   4.198  0.0936 -0.0868 -0.2735
10056TIP3    H151583   3.305   1.515   4.214  1.3407 -0.2750 -1.1284
10056TIP3    H251584   3.264   1.619   4.112  1.1176 -0.0236 -0.7848
10057TIP3   OH251585   6.207   3.914   6.400 -0.3659  0.2495  0.5230
10057TIP3    H151586   6.270   3.932   6.471  1.0111  0.1421 -0.6261
10057TIP3    H251587   6.233   3.829   6.366 -2.0713 -0.4717  0.9433
10058TIP3   OH251588   0.102   1.406   6.293 -0.1439  0.4424  0.2590
10058TIP3    H151589   0.106   1.497   6.321  0.3673  0.9071 -1.2071
10058TIP3    H251590   0.010   1.383   6.299 -0.2129  0.9065  1.0702
10059TIP3   OH251591   1.975   3.683   4.100  0.2544 -0.7598  0.3265
10059TIP3    H151592   2.008   3.689   4.190 -0.5697  0.2204  0.5927
10059TIP3    H251593   1.939   3.770   4.083  1.9903 -0.3580 -1.6223
10060TIP3   OH251594   3.310   4.902   0.887 -0.5736 -0.3055  0.5044
10060TIP3    H151595   3.217   4.879   0.897 -0.1927 -1.4923  1.5197
10060TIP3    H251596   3.354   4.857   0.959  0.9888 -0.9324 -0.7675
10061TIP3   OH251597   0.560   4.483   5.541 -0.8461 -0.2393 -0.4828
10061TIP3    H151598   0.585   4.547   5.474 -0.1810 -1.6264 -1.6150
10061TIP3    H251599   0.567   4.530   5.624  1.4325  0.6393 -1.1124
10062TIP3   OH251600   5.028   4.254   5.012 -0.0534 -0.1146  0.1887
10062TIP3    H151601   5.082   4.212   5.078 -0.8775 -1.1962  0.2048
10062TIP3    H251602   5.000   4.183   4.955 -2.4031  0.1757  0.8725
10063TIP3   OH251603   4.708   4.973   3.986  0.0323 -0.0650 -0.0694
10063TIP3    H151604   4.797   4.939   3.984 -0.4116 -1.2832 -1.7338
10063TIP3    H251605   4.653   4.894   3.985 -1.0731  0.6530  1.4445
10064TIP3   OH251606   2.102   0.361   1.835 -0.4985 -0.0197  0.1149
10064TIP3    H151607   2.184   0.317   1.855 -0.4101 -0.6428 -1.4734
10064TIP3    H251608   2.104   0.441   1.887  0.8638 -0.2911  0.5016
10065TIP3   OH251609   3.382   2.421  14.525  0.4486 -0.1715  0.0759
10065TIP3    H151610   3.304   2.376  14.557  0.5318 -0.4353 -0.0954
10065TIP3    H251611   3.365   2.514  14.543  0.0414 -0.2171 -0.0731
10066TIP3   OH251612   0.835   0.038  14.478  0.0422  0.3281 -0.5557
10066TIP3    H151613   0.779   0.022  14.401  0.5123 -1.1698 -0.6178
10066TIP3    H251614   0.884   0.117  14.456 -0.7289  0.6228 -1.2719
10067TIP3   OH251615   5.329   4.341   0.577  0.1545 -0.0891 -0.2215
10067TIP3    H151616   5.397   4.394   0.619  0.8090 -1.4306  0.4575
10067TIP3    H251617   5.314   4.269   0.638 -0.6262 -0.7578 -1.1816
10068TIP3   OH251618   3.222   2.984   3.468 -0.5861 -0.1681 -0.4684
10068TIP3    H151619   3.172   3.000   3.549 -1.2308 -1.7150 -0.5250
10068TIP3    H251620   3.292   2.925   3.495 -0.3934 -0.1466 -0.9159
10069TIP3   OH251621   2.805   0.588  10.899 -0.1101  0.4754  0.3570
10069TIP3    H151622   2.886   0.555  10.938 -0.1246  0.0467  0.0394
10069TIP3    H251623   2.834   0.637  10.822 -0.2297 -1.1894 -0.7976
10070TIP3   OH251624   1.293   0.230   6.034 -0.1955 -0.3219  0.4091
10070TIP3    H151625   1.287   0.307   5.977 -0.1758  0.2688  1.1823
10070TIP3    H251626   1.239   0.253   6.110  0.8961 -0.5126  1.2653
10071TIP3   OH251627   4.546   3.119   0.402  0.1801  0.3447  0.2616
10071TIP3    H151628   4.477   3.088   0.460 -0.3492  1.1468  0.0856
10071TIP3    H251629   4.534   3.214   0.399 -1.5384  0.1717 -3.2464
10072TIP3   OH251630   0.392   2.723  13.456 -0.5975 -0.2257  0.2813
10072TIP3    H151631   0.485   2.726  13.478  0.0505 -0.1132 -2.2461
10072TIP3    H251632   0.375   2.630  13.441  0.0829  0.0585 -2.7991
10073TIP3   OH251633   3.862   5.587  15.170 -0.4117  0.1379 -0.0144
10073TIP3    H151634   3.812   5.510  15.196  1.9918 -1.2803  0.7868
10073TIP3    H251635   3.799   5.658  15.170 -1.8964 -0.8582  4.1407
10074TIP3   OH251636   1.382   4.093  12.295  0.1226  0.1986 -0.7461
10074TIP3    H151637   1.291   4.117  12.314  0.4648  0.9870 -0.0632
10074TIP3    H251638   1.432   4.171  12.314  1.3679 -1.1672  2.1648
10075TIP3   OH251639   3.042   1.697  16.061 -0.1481 -0.2938  0.5144
10075TIP3    H151640   3.042   1.686  16.156  1.7596 -0.4892  0.5284
10075TIP3    H251641   3.002   1.783  16.047  0.7692  0.3422  1.6089
10076TIP3   OH251642   2.850   4.236   0.690  0.4006  0.2275 -0.3668
10076TIP3    H151643   2.895   4.223   0.774  1.0311 -2.9125 -1.0654
10076TIP3    H251644   2.921   4.254   0.628  0.3457 -0.9104 -0.7883
10077TIP3   OH251645   0.603   1.653  15.335  0.2860 -0.5665  0.4766
10077TIP3    H151646   0.597   1.746  15.358  2.8297 -0.3062  0.4138
10077TIP3    H251647   0.643   1.654  15.248 -0.0957 -1.7335  0.2779
10078TIP3   OH251648   2.952   4.111  11.965 -0.1117 -0.0354  0.7214
10078TIP3    H151649   2.987   4.198  11.983 -2.1326  0.7206  1.2765
10078TIP3    H251650   2.965   4.062  12.047 -0.1435  0.1597  0.8425
10079TIP3   OH251651   1.841   0.524  12.208 -0.0464 -0.6632  0.5730
10079TIP3    H151652   1.871   0.467  12.138 -1.3211 -0.7933  0.1142
10079TIP3    H251653   1.909   0.592  12.215  0.2161 -0.7974 -0.6019
10080TIP3   OH251654   1.524   3.255   5.159  0.0320 -0.2574  0.0560
10080TIP3    H151655   1.437   3.234   5.194  0.5723 -2.2007  0.3613
10080TIP3    H251656   1.566   3.305   5.229 -0.4737 -0.2110  0.3323
10081TIP3   OH251657   3.342   2.772  16.705 -0.2482  0.0328  1.1958
10081TIP3    H151658   3.287   2.764  16.627 -0.0561  0.4048  1.0173
10081TIP3    H251659   3.321   2.858  16.740  0.6941  0.4546  0.7524
10082TIP3   OH251660   6.479   5.157  15.738  0.1947  0.1390  0.4145
10082TIP3    H151661   6.510   5.244  15.711  0.9492 -0.3874 -0.4563
10082TIP3    H251662   6.504   5.099  15.667 -0.6715 -0.7376  0.8008
10083TIP3   OH251663   3.976   5.572   4.371  0.0531 -0.5976  0.0673
10083TIP3    H151664   3.928   5.655   4.363  0.2690 -0.2808  1.6046
10083TIP3    H251665   3.936   5.514   4.306  1.1980  1.2788 -2.4705
10084TIP3   OH251666   1.900   0.965   1.411  0.0610 -0.0408  0.1928
10084TIP3    H151667   1.906   1.059   1.394 -1.0227 -0.2557 -1.5909
10084TIP3    H251668   1.984   0.930   1.381  0.9807  0.4569  2.0177
10085TIP3   OH251669   1.873   2.794  16.241  0.1247  0.4308  0.3166
10085TIP3    H151670   1.826   2.855  16.298  2.8153  2.6155  0.3868
10085TIP3    H251671   1.938   2.753  16.299 -0.5248 -1.2875 -0.1177
10086TIP3   OH251672   6.240   5.268   3.618 -0.0491 -0.1801  0.3746
10086TIP3    H151673   6.222   5.350   3.573  0.6622 -0.1361  0.1591
10086TIP3    H251674   6.159   5.248   3.665 -0.9491 -0.3836 -1.1587
10087TIP3   OH251675   0.858   5.612  13.492  0.1386  0.0579 -0.0844
10087TIP3    H151676   0.779   5.615  13.438 -0.9503 -3.4681  1.0504
10087TIP3    H251677   0.930   5.613  13.429 -0.8701  1.2904 -1.2579
10088TIP3   OH251678   2.510   4.543  11.744  0.0286  0.3201 -0.6597
10088TIP3    H151679   2.488   4.462  11.698  0.4051  0.7195 -1.5687
10088TIP3    H251680   2.599   4.564  11.714  0.2564  0.6224  0.2115
10089TIP3   OH251681   3.104   5.688   3.633 -0.7219 -0.2723  0.0018
10089TIP3    H151682   3.122   5.597   3.613  0.0548  0.1428 -1.3253
10089TIP3    H251683   3.015   5.703   3.600 -0.4121 -0.2677 -0.8662
10090TIP3   OH251684   4.499   3.709   1.311  0.1518  0.2658 -0.4084
10090TIP3    H151685   4.541   3.654   1.377 -0.3766  0.0652 -0.2335
10090TIP3    H251686   4.552   3.698   1.232  0.0219 -0.5416 -0.3908
10091TIP3   OH251687   5.233   5.785   6.010 -0.1801 -0.1126  0.4232
10091TIP3    H151688   5.248   5.846   5.938 -0.3301 -1.0583 -0.4506
10091TIP3    H251689   5.270   5.702   5.979  0.0165 -0.4755  1.5703
10092TIP3   OH251690   4.928   5.982  16.279  0.8698 -0.2064 -0.1698
10092TIP3    H151691   4.924   5.922  16.205  0.8304 -1.2044  0.6183
10092TIP3    H251692   4.963   6.063  16.242 -1.5371  0.1804 -1.8041
10093TIP3   OH251693   4.852   5.790  12.800  0.0815  0.2975 -0.3410
10093TIP3    H151694   4.772   5.738  12.814  0.2165 -0.0280 -0.7506
10093TIP3    H251695   4.820   5.875  12.770 -0.1402  0.4383  0.2701
10094TIP3   OH251696   5.425   2.169   5.810  0.6450 -0.2839 -0.1964
10094TIP3    H151697   5.370   2.091   5.814 -0.4221  0.5040  1.4128
10094TIP3    H251698   5.504   2.145   5.860 -0.1598 -0.0033  1.2552
10095TIP3   OH251699   2.777   5.385   3.622 -0.0999 -0.2959 -0.0017
10095TIP3    H151700   2.802   5.451   3.557  0.2740 -0.9077 -0.4824
10095TIP3    H251701   2.686   5.363   3.600 -0.6350  0.8920  0.8773
10096TIP3   OH251702   1.564   1.916   4.738 -0.4403 -0.7823 -0.0458
10096TIP3    H151703   1.638   1.955   4.785 -0.1665  0.8429 -1.7320
10096TIP3    H251704   1.585   1.823   4.734  0.4445 -0.6811  1.3466
10097TIP3   OH251705   6.408   1.254  11.149 -0.4880 -0.4633 -0.5083
10097TIP3    H151706   6.450   1.185  11.098  1.7304 -0.5211  1.2535
10097TIP3    H251707   6.458   1.333  11.130 -1.3882  0.1177 -0.5416
10098TIP3   OH251708   2.605   4.835  10.772  0.1522  0.2745 -0.0389
10098TIP3    H151709   2.631   4.833  10.680  1.9108 -0.2722  0.4399
10098TIP3    H251710   2.674   4.787  10.818 -1.4335 -0.7460  1.4082
10099TIP3   OH251711   6.120   2.828  11.553  0.2548  0.3668  0.2600
10099TIP3    H151712   6.182   2.859  11.487 -0.8544  0.7997 -0.6102
10099TIP3    H251713   6.138   2.882  11.630  2.5383 -1.1102  0.8546
10100TIP3   OH251714   5.563   5.094  12.830  0.4617 -0.3359  0.5025
10100TIP3    H151715   5.468   5.096  12.815  0.5126  1.4036  0.2377
10100TIP3    H251716   5.593   5.182  12.808  2.0716 -0.6972  1.1056
10101TIP3   OH251717   5.391   5.561   1.955 -0.4039  0.3535  0.6322
10101TIP3    H151718   5.408   5.655   1.951 -0.8812  0.4837  1.4043
10101TIP3    H251719   5.295   5.555   1.961 -0.5129 -0.2510 -1.1415
10102TIP3   OH251720   6.339   0.668  15.832  0.1463  0.1738  0.0548
10102TIP3    H151721   6.262   0.717  15.803 -1.4360 -0.7879  2.3395
10102TIP3    H251722   6.343   0.684  15.926  2.0809 -0.7539  0.1653
10103TIP3   OH251723   3.130   2.572   0.571  0.4241  0.5738  0.1868
10103TIP3    H151724   3.038   2.549   0.562  0.1659  0.9016  1.7162
10103TIP3    H251725   3.129   2.664   0.597  1.2519  0.9882 -1.1430
10104TIP3   OH251726   3.447   0.755  13.010 -0.2816  0.5299  0.2442
10104TIP3    H151727   3.396   0.761  13.091  0.9444  1.4136  0.9868
10104TIP3    H251728   3.467   0.845  12.987  0.4127  0.2305 -0.3730
10105TIP3   OH251729   0.617   4.520  15.926 -0.4631 -0.2706 -0.5370
10105TIP3    H151730   0.612   4.611  15.955  1.3514 -0.7656  1.6299
10105TIP3    H251731   0.657   4.525  15.839 -1.1133  1.0310 -0.7814
10106TIP3   OH251732   2.082   0.881  11.958  0.6115 -0.6864 -0.0219
10106TIP3    H151733   2.082   0.800  12.009 -0.0153 -0.2139  0.7502
10106TIP3    H251734   2.103   0.949  12.021  0.3941 -0.1552 -0.5140
10107TIP3   OH251735   2.585   6.683  14.197  0.7366  0.2586 -0.1451
10107TIP3    H151736   2.567   6.747  14.266  0.4425  0.7863 -0.7079
10107TIP3    H251737   2.535   6.605  14.223 -0.7548  1.0133 -0.6221
10108TIP3   OH251738   4.242   2.324   2.154 -0.2457 -0.0060 -0.3994
10108TIP3    H151739   4.326   2.369   2.165 -0.1676 -0.0638 -0.7465
10108TIP3    H251740   4.177   2.388   2.182 -0.1290  0.2949 -0.8091
10109TIP3   OH251741   6.247   6.492  16.802 -0.3583 -0.0156 -0.0912
10109TIP3    H151742   6.187   6.558  16.767 -0.5956  0.3176  0.9074
10109TIP3    H251743   6.331   6.539  16.810  0.0241 -0.4475 -1.3771
10110TIP3   OH251744   6.443   0.979  16.853 -0.8816  0.0743 -0.2696
10110TIP3    H151745   6.366   1.027  16.883  0.2348  1.0448  1.1449
10110TIP3    H251746   6.513   1.044  16.850 -0.1002 -0.7817 -1.5581
10111TIP3   OH251747   6.509   6.173   0.942 -0.0327 -0.1318  0.5671
10111TIP3    H151748   6.523   6.256   0.989  1.4441 -1.1568  2.0535
10111TIP3    H251749   6.586   6.121   0.964 -1.4292 -2.3002  0.5273
10112TIP3   OH251750   1.898   6.707  15.930  0.3362  0.1260 -0.2840
10112TIP3    H151751   1.919   6.795  15.963  1.2221  0.1783 -0.9473
10112TIP3    H251752   1.921   6.648  16.002  1.0627  0.3321 -0.3426
10113TIP3   OH251753   6.059   4.465   1.639 -0.0463  0.1732 -0.6599
10113TIP3    H151754   6.026   4.475   1.550 -0.3573  3.0847 -0.3313
10113TIP3    H251755   6.093   4.552   1.661  2.0999 -1.0754  1.2785
10114TIP3   OH251756   5.773   1.679  13.711 -0.3945  0.3497  0.3315
10114TIP3    H151757   5.760   1.689  13.617  1.9290  0.1328 -0.0718
10114TIP3    H251758   5.697   1.628  13.741 -0.9022 -0.0418 -1.4933
10115TIP3   OH251759   1.120   5.617  13.330  0.3006  0.0382  0.3335
10115TIP3    H151760   1.201   5.610  13.381  1.1734 -1.1177 -1.1119
10115TIP3    H251761   1.103   5.527  13.302 -0.2208  0.6200 -1.2766
10116TIP3   OH251762   1.287   3.831  10.821 -0.1975  0.6123  0.2148
10116TIP3    H151763   1.194   3.844  10.800 -0.2962  0.2595  0.4291
10116TIP3    H251764   1.321   3.919  10.836 -0.8812  0.6283  1.7766
10117TIP3   OH251765   0.696   0.365   1.296  0.0030 -0.0006  0.2028
10117TIP3    H151766   0.623   0.390   1.352  0.2288  0.0039  0.4944
10117TIP3    H251767   0.738   0.292   1.341 -0.1216 -0.3377 -0.2138
10118TIP3   OH251768   6.381   4.115  14.497 -0.0271  0.0691 -0.6776
10118TIP3    H151769   6.445   4.184  14.478  0.6441 -0.0432  0.9968
10118TIP3    H251770   6.333   4.148  14.573 -0.0101 -1.1049 -0.1453
10119TIP3   OH251771   2.135   6.136   0.518  0.6036 -0.5828  0.0267
10119TIP3    H151772   2.093   6.213   0.479  1.0468 -1.1591 -1.6558
10119TIP3    H251773   2.067   6.098   0.574  0.4703  1.1553  1.1244
10120TIP3   OH251774   2.511   1.347   3.354 -0.4240 -0.4184  0.4536
10120TIP3    H151775   2.461   1.351   3.435 -1.4255 -1.4893 -0.0865
10120TIP3    H251776   2.453   1.303   3.292  0.5573 -0.1789 -0.6712
10121TIP3   OH251777   1.726   5.641   0.369 -0.3660  0.1492 -0.6113
10121TIP3    H151778   1.757   5.707   0.431  0.3570  0.0531 -0.8548
10121TIP3    H251779   1.632   5.636   0.383 -0.4609  1.3615 -0.7064
10122TIP3   OH251780   0.232   0.536  16.335 -0.1321 -0.5334  0.3127
10122TIP3    H151781   0.289   0.561  16.408  0.2988 -0.0206 -0.1887
10122TIP3    H251782   0.199   0.619  16.301 -0.6697 -0.7920  0.1939
10123TIP3   OH251783   4.849   6.328  13.466  0.5453 -0.3668 -0.2977
10123TIP3    H151784   4.918   6.263  13.466  0.8192 -0.0787 -0.6414
10123TIP3    H251785   4.841   6.355  13.375 -1.0285 -1.4607 -0.5225
10124TIP3   OH251786   2.168   4.061   5.642 -0.0365 -0.5226 -0.3769
10124TIP3    H151787   2.169   4.149   5.681  0.7299 -1.6750  2.4345
10124TIP3    H251788   2.236   4.065   5.574 -1.0438  1.4220 -1.3567
10125TIP3   OH251789   3.150   2.733  15.898 -0.1490  0.0649 -0.0005
10125TIP3    H151790   3.114   2.703  15.814  1.6921 -1.0499 -0.4508
10125TIP3    H251791   3.151   2.655  15.953 -0.7434  0.6470  0.8561
10126TIP3   OH251792   2.845   1.742  11.849  0.1852  0.0995  0.2557
10126TIP3    H151793   2.940   1.753  11.851  0.3282 -1.0834  1.3775
10126TIP3    H251794   2.814   1.795  11.922  0.0634 -0.1150  0.3600
10127TIP3   OH251795   1.026   0.871   4.315 -0.0067 -1.1712 -0.3595
10127TIP3    H151796   1.003   0.821   4.393 -0.1532 -0.2046  0.2303
10127TIP3    H251797   0.950   0.926   4.299  0.0322 -1.3492 -1.1816
10128TIP3   OH251798   1.655   0.701   4.030  0.3600  0.2543  0.2204
10128TIP3    H151799   1.645   0.673   3.939  1.2533 -0.7220  0.4032
10128TIP3    H251800   1.593   0.773   4.040 -2.6114 -2.0483 -0.1129
10129TIP3   OH251801   4.201   3.896  13.843  0.1626  0.4277 -0.0434
10129TIP3    H151802   4.162   3.818  13.881  1.8739  0.1623  1.2961
10129TIP3    H251803   4.277   3.915  13.898  0.5800  2.2582 -1.1319
10130TIP3   OH251804   6.468   3.741  11.176  0.5418  0.2988  0.1792
10130TIP3    H151805   6.437   3.691  11.100 -1.4083  1.2050  0.3091
10130TIP3    H251806   6.502   3.674  11.235  1.7398 -0.4607 -1.2930
10131TIP3   OH251807   3.879   3.055   5.370 -0.2120 -0.1978 -0.3564
10131TIP3    H151808   3.947   3.031   5.433 -0.7933  0.5110  0.5662
10131TIP3    H251809   3.798   3.053   5.421 -0.7557 -0.1054 -1.2106
10132TIP3   OH251810   2.495   4.369   6.219 -0.4341  0.2706  0.1149
10132TIP3    H151811   2.580   4.385   6.178 -0.6882 -0.2228 -0.6320
10132TIP3    H251812   2.500   4.414   6.303  0.3010  0.8505 -0.2264
10133TIP3   OH251813   5.158   5.307   5.174  0.3434 -0.3819 -0.2824
10133TIP3    H151814   5.063   5.299   5.186  0.1985  1.8608  0.5422
10133TIP3    H251815   5.195   5.279   5.258  0.2320  0.9911  0.2505
10134TIP3   OH251816   3.995   0.656  12.171 -0.2725 -0.4046  0.3722
10134TIP3    H151817   3.940   0.705  12.231  1.9905  1.0490  1.4124
10134TIP3    H251818   3.969   0.685  12.084  1.6322  3.6755  0.9349
10135TIP3   OH251819   4.703   1.077  12.195  0.1568  0.1750 -0.4188
10135TIP3    H151820   4.714   0.992  12.238 -0.7997  0.1260 -0.2473
10135TIP3    H251821   4.727   1.061  12.104  0.2026 -0.2148 -0.3399
10136TIP3   OH251822   5.616   2.269   6.561 -0.3232 -0.0847 -0.0093
10136TIP3    H151823   5.551   2.261   6.631  1.0553 -0.6494  1.2576
10136TIP3    H251824   5.641   2.179   6.541  1.4271  0.1644  0.8774
10137TIP3   OH251825   5.823   3.043  12.215 -0.6927  0.1084 -0.3487
10137TIP3    H151826   5.873   3.104  12.159  2.3987 -1.7167  0.2128
10137TIP3    H251827   5.794   3.097  12.288  0.8934  1.2118 -0.4753
10138TIP3   OH251828   6.415   0.607  10.969 -0.0842  0.0303 -0.9214
10138TIP3    H151829   6.403   0.512  10.976 -2.1473  0.1911 -1.7134
10138TIP3    H251830   6.479   0.617  10.898 -2.2623 -0.7799 -3.1645
10139TIP3   OH251831   4.905   3.735   5.363  0.1536  0.8046  0.7004
10139TIP3    H151832   4.816   3.702   5.359  0.1121  1.0498 -1.0731
10139TIP3    H251833   4.960   3.658   5.346  0.2016  0.9239  0.2905
10140TIP3   OH251834   5.932   1.128   2.496  0.3419  0.0626 -0.4577
10140TIP3    H151835   5.991   1.072   2.446  2.0901  3.1096 -2.0834
10140TIP3    H251836   5.961   1.118   2.587  2.1391  0.0446 -0.9997
10141TIP3   OH251837   0.093   0.538   1.043  0.1558  0.0137  0.1197
10141TIP3    H151838   0.114   0.445   1.046 -0.5907 -0.1520  0.4772
10141TIP3    H251839   0.166   0.581   1.088  1.8263 -0.1205 -2.2788
10142TIP3   OH251840   5.998   0.108   5.913 -0.5157  0.5969  0.1782
10142TIP3    H151841   6.062   0.081   5.848 -0.8771 -0.1289  0.1051
10142TIP3    H251842   6.009   0.203   5.921 -0.1286  0.6202 -0.5682
10143TIP3   OH251843   0.224   6.303  13.365 -0.1594  0.8320 -0.3522
10143TIP3    H151844   0.233   6.285  13.272 -1.2279 -1.6218 -0.0511
10143TIP3    H251845   0.134   6.336  13.374 -0.0314  1.1400 -0.1831
10144TIP3   OH251846   5.997   5.826  10.960 -0.4552 -0.6992  0.2408
10144TIP3    H151847   6.027   5.886  10.893 -0.8165  0.1722  0.8418
10144TIP3    H251848   6.062   5.756  10.961  0.5694  0.2305  0.2738
10145TIP3   OH251849   1.725   4.285  12.753 -0.1651  0.4529  0.6705
10145TIP3    H151850   1.690   4.267  12.840 -0.5969  0.9377  0.6046
10145TIP3    H251851   1.653   4.328  12.706 -0.6334 -1.5788 -0.5955
10146TIP3   OH251852   0.100   2.046  11.208 -0.7767 -0.4634 -0.3732
10146TIP3    H151853   0.027   1.986  11.221 -1.3078  0.2897  0.1536
10146TIP3    H251854   0.096   2.069  11.115 -3.0186  1.8415  0.1981
10147TIP3   OH251855   4.208   2.776   0.649  0.4223  0.5071  0.3148
10147TIP3    H151856   4.148   2.828   0.703 -0.0797 -0.9188  1.1928
10147TIP3    H251857   4.178   2.790   0.559 -1.6185 -0.5778  0.7621
10148TIP3   OH251858   0.673   6.329  16.190 -0.4301 -0.1426 -0.0109
10148TIP3    H151859   0.662   6.386  16.267 -0.6236  0.0590 -0.1874
10148TIP3    H251860   0.697   6.244  16.227 -1.7474 -0.3866  0.3545
10149TIP3   OH251861   2.163   2.542   4.295  0.0764 -0.9786 -0.0873
10149TIP3    H151862   2.092   2.575   4.351 -0.4610  0.7844 -1.6867
10149TIP3    H251863   2.237   2.600   4.314  0.9643 -2.4944  1.2045
10150TIP3   OH251864   2.969   5.889   1.080 -0.2157  0.2664 -0.0628
10150TIP3    H151865   3.056   5.929   1.078  0.6670 -1.2037  2.9012
10150TIP3    H251866   2.968   5.829   1.005  2.5557 -1.7946  1.3605
10151TIP3   OH251867   5.189   4.256  12.832 -0.4546  0.0697 -0.5331
10151TIP3    H151868   5.233   4.339  12.813 -1.5297  0.5219 -1.0985
10151TIP3    H251869   5.209   4.201  12.756  1.6105 -0.8062  0.5471
10152TIP3   OH251870   6.721   1.312  13.646  0.2368 -0.6336 -0.1388
10152TIP3    H151871   6.631   1.303  13.677  0.0496  1.8072  0.2163
10152TIP3    H251872   6.773   1.259  13.707 -0.8164 -1.2059  0.2901
10153TIP3   OH251873   0.904   3.323   1.484 -0.7898  0.1221  0.7906
10153TIP3    H151874   0.964   3.353   1.415 -1.0833  0.7712  0.8119
10153TIP3    H251875   0.948   3.246   1.522 -0.5664 -0.1674 -0.0301
10154TIP3   OH251876   0.194   2.300   5.313  0.7882  0.2155 -0.2230
10154TIP3    H151877   0.165   2.291   5.223 -0.3330  3.4890 -0.3076
10154TIP3    H251878   0.129   2.253   5.365 -0.1040  0.6234 -0.9611
10155TIP3   OH251879   0.042   1.222   2.639 -0.7076  0.1077 -0.2644
10155TIP3    H151880   0.094   1.261   2.569  0.8301 -0.3637  0.5689
10155TIP3    H251881  -0.029   1.284   2.654  0.7909  1.8300 -0.0220
10156TIP3   OH251882   1.311   6.194  14.630  0.4324 -0.0518  0.3263
10156TIP3    H151883   1.266   6.182  14.547 -2.4231  1.9136  1.4487
10156TIP3    H251884   1.253   6.153  14.695  1.0483  1.1434  1.6891
10157TIP3   OH251885   5.177   1.773  11.584 -0.7192  0.3653 -0.4997
10157TIP3    H151886   5.110   1.753  11.649 -1.5959 -1.3280 -1.8498
10157TIP3    H251887   5.165   1.708  11.515  2.7571 -0.4944 -0.5254
10158TIP3   OH251888   2.967   1.753  14.310  0.0187  0.0606  0.1093
10158TIP3    H151889   2.944   1.825  14.369 -0.3547 -1.8419  2.4101
10158TIP3    H251890   2.884   1.709  14.293  0.4657 -0.7603  0.0213
10159TIP3   OH251891   5.404   0.978   2.108 -0.2877 -0.1099  0.0647
10159TIP3    H151892   5.494   0.946   2.106 -0.1788  0.2231 -1.2370
10159TIP3    H251893   5.393   1.025   2.026 -1.8182 -0.6017 -0.0494
10160TIP3   OH251894   3.201   4.855   4.078  0.6797  0.6266  0.3893
10160TIP3    H151895   3.196   4.876   4.171  1.7045  0.0912  0.5796
10160TIP3    H251896   3.294   4.859   4.057  0.6442 -0.8700 -0.2076
10161TIP3   OH251897   0.338   3.664   0.884 -0.2193  0.4023 -0.4105
10161TIP3    H151898   0.306   3.662   0.794 -2.8838 -1.4797  0.4575
10161TIP3    H251899   0.386   3.582   0.895  0.7307  0.9596 -0.2870
10162TIP3   OH251900   2.537   0.593  14.655 -0.1050 -0.4667 -0.3972
10162TIP3    H151901   2.614   0.625  14.607 -0.7685  0.0773 -1.1291
10162TIP3    H251902   2.573   0.536  14.723  0.9359 -0.3284 -0.8107
10163TIP3   OH251903   2.222   6.476   3.641 -0.1125  0.5359  0.3181
10163TIP3    H151904   2.236   6.421   3.718  0.1589  0.2877  0.0934
10163TIP3    H251905   2.127   6.489   3.637 -0.1634  0.2009  0.4506
10164TIP3   OH251906   2.380   0.343   0.087  0.3883  0.2329  0.0565
10164TIP3    H151907   2.337   0.266   0.124  0.4321  1.2507  2.3920
10164TIP3    H251908   2.472   0.317   0.078  0.2726 -0.2194  0.1671
10165TIP3   OH251909   3.981   6.675   5.091  0.0654  0.1207 -0.0056
10165TIP3    H151910   3.902   6.624   5.105 -0.3249  0.7720  0.2015
10165TIP3    H251911   4.049   6.628   5.139 -0.6848  0.8286  1.8366
10166TIP3   OH251912   2.039   0.110  14.401 -0.0752  1.0294  0.1535
10166TIP3    H151913   1.987   0.168  14.346  0.3434 -0.0543 -1.4469
10166TIP3    H251914   2.035   0.025  14.357  0.1327  0.0545  1.9012
10167TIP3   OH251915   6.541   2.115  11.841 -0.1849  0.2669  0.3343
10167TIP3    H151916   6.622   2.132  11.792 -0.1140  0.3969  0.4914
10167TIP3    H251917   6.548   2.173  11.917 -0.1660 -0.1258  0.6346
10168TIP3   OH251918   1.754   2.683   2.154 -0.5413  0.2155 -0.3602
10168TIP3    H151919   1.723   2.601   2.192 -0.0985 -0.3112 -1.1305
10168TIP3    H251920   1.807   2.723   2.223 -0.2222 -0.4513 -0.2211
10169TIP3   OH251921   2.897   4.387  13.472 -0.2603 -0.1738 -0.7569
10169TIP3    H151922   2.885   4.423  13.385 -0.4851  0.4706 -0.4626
10169TIP3    H251923   2.911   4.293  13.457  0.0029 -0.0253 -1.4996
10170TIP3   OH251924   1.015   2.974   1.382  0.5391 -0.5058  0.4599
10170TIP3    H151925   0.974   3.040   1.327 -0.2092 -0.1580  1.4150
10170TIP3    H251926   1.109   2.988   1.370  0.3877 -0.2830 -0.5318
10171TIP3   OH251927   4.069   1.095  12.558 -0.3829  0.1288  0.0739
10171TIP3    H151928   4.124   1.113  12.482 -0.4319  1.0860  0.2453
10171TIP3    H251929   4.112   1.022  12.602  0.7668  0.8407  0.1932
10172TIP3   OH251930   1.802   5.430   3.847  0.3662  0.3966 -0.1543
10172TIP3    H151931   1.782   5.391   3.762 -1.0977  1.4632 -0.3372
10172TIP3    H251932   1.731   5.492   3.862 -0.5648 -1.1431  2.7462
10173TIP3   OH251933   0.276   4.220   3.462  0.6574 -0.0413 -0.1018
10173TIP3    H151934   0.210   4.277   3.501 -0.2012 -0.0139 -1.5661
10173TIP3    H251935   0.248   4.207   3.372  2.7557  0.1445 -0.8416
10174TIP3   OH251936   3.963   5.405   3.102  0.4295 -0.0397  0.5257
10174TIP3    H151937   3.912   5.425   3.024  1.2440 -1.1211 -0.3180
10174TIP3    H251938   3.984   5.490   3.140 -0.8595  0.4585  0.1513
10175TIP3   OH251939   2.356   4.557  13.459 -0.1590 -1.0760 -0.5897
10175TIP3    H151940   2.448   4.572  13.483  0.2214 -2.0355 -1.3639
10175TIP3    H251941   2.360   4.519  13.371 -1.4023  0.4842 -1.3722
10176TIP3   OH251942   1.750   1.118  13.194  0.1094 -0.2784  0.2383
10176TIP3    H151943   1.700   1.161  13.264  1.3764 -0.4883  1.2829
10176TIP3    H251944   1.687   1.059  13.153 -1.4733  1.8820 -0.6996
10177TIP3   OH251945   5.015   6.391   2.162  0.2643 -0.3462  0.2041
10177TIP3    H151946   4.939   6.372   2.108  0.6618 -3.0884  0.4478
10177TIP3    H251947   4.983   6.389   2.252  0.2652  0.5522  0.2297
10178TIP3   OH251948   6.183   1.168   5.347 -0.3368  0.2708 -0.5971
10178TIP3    H151949   6.136   1.087   5.328 -0.4346  0.2984 -0.4747
10178TIP3    H251950   6.274   1.140   5.358 -0.0456  0.4408 -2.4079
10179TIP3   OH251951   6.696   2.622   0.467 -0.1328  0.4416  0.1274
10179TIP3    H151952   6.653   2.553   0.517 -1.4267  0.7114 -0.5698
10179TIP3    H251953   6.770   2.578   0.423  0.7428  0.1101  1.8517
10180TIP3   OH251954   6.561   4.782  14.712 -0.0598  0.0586  0.7464
10180TIP3    H151955   6.571   4.772  14.807  1.7416  0.8105  0.6826
10180TIP3    H251956   6.499   4.714  14.687 -2.5069  1.3647  2.7840
10181TIP3   OH251957   2.596   5.864   4.748  0.4041 -0.6873  0.8138
10181TIP3    H151958   2.646   5.898   4.821  0.5288  0.3390  0.2695
10181TIP3    H251959   2.505   5.888   4.768  0.5292  0.3070  0.2748
10182TIP3   OH251960   3.186   0.951   2.392 -0.2969 -0.1891  0.0044
10182TIP3    H151961   3.279   0.947   2.413 -0.5587  1.0800  1.6550
10182TIP3    H251962   3.180   1.016   2.322  0.0842 -0.4584 -0.2794
10183TIP3   OH251963   3.485   3.425   1.800 -0.5697  0.3928  0.4982
10183TIP3    H151964   3.538   3.371   1.858  0.0572  0.6328  0.1492
10183TIP3    H251965   3.523   3.512   1.807 -1.5468  0.7921  1.0248
10184TIP3   OH251966   3.348   2.136   0.004 -0.0406 -0.0374 -0.2380
10184TIP3    H151967   3.442   2.129   0.020 -0.0864  0.9501  0.5782
10184TIP3    H251968   3.339   2.207  -0.060 -0.2103 -0.4349 -0.6647
10185TIP3   OH251969   5.726   1.563   4.033 -0.5524 -0.2469 -0.4409
10185TIP3    H151970   5.729   1.631   3.965 -1.7814 -0.8730 -1.1631
10185TIP3    H251971   5.695   1.609   4.111  1.2187  0.5587 -0.1768
10186TIP3   OH251972   2.106   0.650  12.132  0.1950  0.4425  0.0670
10186TIP3    H151973   2.137   0.560  12.127 -0.7979 -0.0207  1.5402
10186TIP3    H251974   2.182   0.701  12.161  0.3682 -0.1816  0.7216
10187TIP3   OH251975   3.654   3.314  14.500 -0.8302 -0.0340 -0.8308
10187TIP3    H151976   3.604   3.395  14.494  1.3427  1.4710  0.3965
10187TIP3    H251977   3.655   3.293  14.593  0.8226  0.0172 -0.8070
10188TIP3   OH251978   2.505   3.175  16.503  0.0176  0.3532 -0.3521
10188TIP3    H151979   2.453   3.128  16.439 -2.8872  0.3018  1.8341
10188TIP3    H251980   2.481   3.267  16.490  0.4250  0.4870 -0.1721
10189TIP3   OH251981   0.721   6.711  17.099 -0.0960  0.0004  0.0759
10189TIP3    H151982   0.707   6.739  17.009  0.3555  1.9637  0.5674
10189TIP3    H251983   0.804   6.663  17.097  0.0487  0.2748 -0.5042
10190TIP3   OH251984   5.964   5.670   1.974  0.5245 -0.0203 -0.5019
10190TIP3    H151985   5.900   5.630   1.916 -0.0764  1.2192 -0.7200
10190TIP3    H251986   5.986   5.601   2.037 -1.0471 -0.4591 -0.3998
10191TIP3   OH251987   3.579   1.770  16.984  0.5073  0.2186  0.0186
10191TIP3    H151988   3.672   1.759  17.007  0.3590  1.7279  1.5329
10191TIP3    H251989   3.580   1.835  16.914  0.7007 -1.6312 -1.8056
10192TIP3   OH251990   3.421   3.698   6.325  0.4739  0.0120  0.4480
10192TIP3    H151991   3.368   3.704   6.404 -0.8408  0.5253 -0.4355
10192TIP3    H251992   3.464   3.784   6.318 -0.9394  0.6787 -0.4028
10193TIP3   OH251993   6.385   5.144  12.411  0.0228  0.3348 -0.5794
10193TIP3    H151994   6.419   5.132  12.500 -0.6649 -0.2042 -0.3787
10193TIP3    H251995   6.335   5.226  12.416 -0.3401  0.1064 -0.3562
10194TIP3   OH251996   5.238   0.149  12.123  0.0303  0.1378  0.2102
10194TIP3    H151997   5.183   0.226  12.136  0.3989  0.5230 -0.5238
10194TIP3    H251998   5.308   0.159  12.188  1.9154  2.1111 -1.9717
10195TIP3   OH251999   0.836   6.080   0.371  0.4129  0.1573 -0.3990
10195TIP3    H152000   0.879   6.161   0.398 -1.5858  0.2608  3.1242
10195TIP3    H252001   0.905   6.014   0.374  1.2373  1.0341  0.7553
10196TIP3   OH252002   5.157   0.944  13.834 -0.3735 -0.0341  0.0437
10196TIP3    H152003   5.199   0.882  13.893 -0.2333 -0.5520 -0.5882
10196TIP3    H252004   5.064   0.939  13.857 -0.5078 -1.2243 -0.6441
10197TIP3   OH252005   6.454   6.445   3.952 -0.2543  0.3952  0.3548
10197TIP3    H152006   6.365   6.413   3.968 -1.3146  2.2467 -1.4042
10197TIP3    H252007   6.462   6.449   3.857  2.4056 -1.3721  0.3821
10198TIP3   OH252008   3.886   5.241  17.264 -0.1503 -0.3552  0.5266
10198TIP3    H152009   3.837   5.286  17.333 -0.6408 -0.4703  0.2546
10198TIP3    H252010   3.952   5.191  17.311  1.0127  1.3474  0.8031
10199TIP3   OH252011   1.567   1.985   5.758 -0.1556 -0.5281  0.0571
10199TIP3    H152012   1.618   2.020   5.831 -0.2027  0.5074 -0.3912
10199TIP3    H252013   1.624   1.997   5.682 -0.7224 -0.1409 -0.3112
10200TIP3   OH252014   2.098   5.398   3.747 -0.1626  0.4507  0.0739
10200TIP3    H152015   2.141   5.353   3.820 -0.9619 -1.7191 -0.7285
10200TIP3    H252016   2.011   5.419   3.779 -0.4717 -0.3961 -0.1713
10201TIP3   OH252017   3.175   2.173  15.361  0.3163  0.2423  0.0699
10201TIP3    H152018   3.226   2.198  15.438  1.2528 -0.6888 -0.2289
10201TIP3    H252019   3.228   2.199  15.286  0.0887 -0.1831 -0.2481
10202TIP3   OH252020   0.790   5.329  14.309 -0.9814  0.2131 -0.3535
10202TIP3    H152021   0.729   5.283  14.251 -0.2260 -0.3369 -0.7261
10202TIP3    H252022   0.780   5.286  14.394 -2.2180  1.1341 -0.0027
10203TIP3   OH252023   5.320   6.653   2.117 -0.1151  0.1701  0.0511
10203TIP3    H152024   5.376   6.724   2.083  0.3502 -0.1918  0.0466
10203TIP3    H252025   5.237   6.663   2.071  0.1495  0.3418 -0.3928
10204TIP3   OH252026   0.391   2.782   4.741  0.1422  0.5114  0.3330
10204TIP3    H152027   0.405   2.725   4.817  0.2089 -0.4515 -0.3802
10204TIP3    H252028   0.297   2.801   4.743 -0.0734 -0.4571  0.0210
10205TIP3   OH252029   1.584   0.040  14.451  0.0965 -0.2953 -0.7192
10205TIP3    H152030   1.656   0.016  14.509 -0.5914 -1.1393 -0.1817
10205TIP3    H252031   1.582   0.135  14.452  0.2922 -0.2958  0.4131
10206TIP3   OH252032   2.541   6.717  14.518 -0.6151 -0.3843 -0.3791
10206TIP3    H152033   2.483   6.758  14.454 -0.8027  1.9303  1.1799
10206TIP3    H252034   2.488   6.708  14.597  0.1472 -1.4948  0.0394
10207TIP3   OH252035   2.637   0.095  16.777 -0.7651  0.1211  0.1847
10207TIP3    H152036   2.703   0.155  16.742  1.0905 -1.1718  1.3072
10207TIP3    H252037   2.571   0.090  16.708  0.8966  0.5382 -1.5428
10208TIP3   OH252038   0.740   1.909  12.293 -0.0636  0.0734  0.3330
10208TIP3    H152039   0.750   1.819  12.323  0.3902  0.6305  1.9358
10208TIP3    H252040   0.675   1.947  12.352 -1.2401  0.4641 -1.1381
10209TIP3   OH252041   4.113   5.364  16.736 -0.5264 -0.0918  0.2142
10209TIP3    H152042   4.152   5.395  16.654 -0.1342 -0.1458  0.3779
10209TIP3    H252043   4.021   5.347  16.714 -0.1647 -1.2251 -0.5050
10210TIP3   OH252044   4.161   4.554   3.510 -0.2184  0.5931  0.3107
10210TIP3    H152045   4.223   4.612   3.554  0.3534  0.0067  0.2941
10210TIP3    H252046   4.149   4.593   3.423  0.7756  0.2660  0.0171
10211TIP3   OH252047   3.536   4.103   0.840  0.6491 -0.0398 -0.2713
10211TIP3    H152048   3.544   4.096   0.745 -0.9865 -3.9105 -0.2815
10211TIP3    H252049   3.454   4.149   0.855  0.5305 -0.1067 -0.7259
10212TIP3   OH252050   5.535   3.276   3.936 -0.2371  0.1762 -0.1976
10212TIP3    H152051   5.513   3.360   3.895  3.3012  1.4043  0.1004
10212TIP3    H252052   5.489   3.277   4.020  0.4419  2.2633  0.1927
10213TIP3   OH252053   5.761   3.250  16.587  0.0885 -0.2244  0.3918
10213TIP3    H152054   5.720   3.223  16.669  1.3678  1.3969  1.6424
10213TIP3    H252055   5.739   3.181  16.525 -2.7274 -0.4797  1.4990
10214TIP3   OH252056   3.925   5.097  11.966  0.1898  0.5108 -0.1850
10214TIP3    H152057   3.969   5.150  12.033  0.6016  0.7930 -0.6700
10214TIP3    H252058   3.989   5.089  11.895  0.8621 -2.2560  0.6378
10215TIP3   OH252059   4.337   0.225   4.044  0.3119 -0.5713 -0.2928
10215TIP3    H152060   4.419   0.231   3.994  0.4488 -0.2978 -0.0398
10215TIP3    H252061   4.269   0.211   3.978  0.7173 -2.1908 -0.4065
10216TIP3   OH252062   3.658   1.076  15.348  0.0907 -0.1692  0.0441
10216TIP3    H152063   3.734   1.020  15.365 -0.8423 -1.3257  0.6311
10216TIP3    H252064   3.591   1.015  15.316 -1.2698  0.4184  1.6039
10217TIP3   OH252065   4.356   1.855   6.144  0.1786 -0.0517 -0.0914
10217TIP3    H152066   4.438   1.832   6.188  0.3081 -1.4240 -1.0204
10217TIP3    H252067   4.373   1.941   6.106  0.5122  0.5608  1.3842
10218TIP3   OH252068   1.142   0.013   0.744  0.3921  0.1312  0.0485
10218TIP3    H152069   1.054  -0.023   0.733  0.6537 -0.5245  0.0672
10218TIP3    H252070   1.188  -0.052   0.797 -0.0941  1.9798  3.0190
10219TIP3   OH252071   5.496   3.032  14.889 -0.5762  0.2844  0.1490
10219TIP3    H152072   5.476   2.989  14.972  1.4263  2.4297  1.8525
10219TIP3    H252073   5.481   3.125  14.905  0.7256  0.8576 -1.6167
10220TIP3   OH252074   6.374   5.414   1.421  0.3974  0.4650  0.8450
10220TIP3    H152075   6.315   5.428   1.347 -0.4607 -0.7934  1.2550
10220TIP3    H252076   6.427   5.493   1.425  0.3606  0.6078 -1.0175
10221TIP3   OH252077   0.610   2.521   1.790 -0.2440 -0.2979 -0.7516
10221TIP3    H152078   0.680   2.478   1.741 -0.8690 -0.7036 -1.3031
10221TIP3    H252079   0.650   2.603   1.821  0.2496 -0.1586 -1.7032
10222TIP3   OH252080   3.047   3.746  16.743 -0.6696  0.5074  0.4127
10222TIP3    H152081   3.101   3.719  16.817  0.2922 -0.0342 -0.4614
10222TIP3    H252082   3.081   3.832  16.718 -0.8141  0.5680  0.4192
10223TIP3   OH252083   1.165   6.763   1.964 -0.1729 -0.6170 -0.2049
10223TIP3    H152084   1.234   6.824   1.990 -0.1020 -1.1230  0.8531
10223TIP3    H252085   1.212   6.691   1.921  0.0990 -1.4331  1.3825
10224TIP3   OH252086   0.391   4.528  16.580  0.1787 -0.0715 -0.6835
10224TIP3    H152087   0.387   4.529  16.484 -2.0144  1.1657 -0.6446
10224TIP3    H252088   0.310   4.486  16.607  0.3334  0.4442  0.6553
10225TIP3   OH252089   3.526   5.552  17.261  0.0419 -0.0747  0.3047
10225TIP3    H152090   3.527   5.589  17.173 -0.4496  1.3804  0.8676
10225TIP3    H252091   3.451   5.595  17.304  0.0752 -0.9914  1.3305
10226TIP3   OH252092   1.805   1.198   0.818 -0.7153 -0.0335  0.1141
10226TIP3    H152093   1.811   1.113   0.861 -2.5886  0.7202  2.0774
10226TIP3    H252094   1.743   1.248   0.872 -1.0634  1.9721 -1.9648
10227TIP3   OH252095   0.846   4.518  11.939 -0.3471 -0.1786  0.3006
10227TIP3    H152096   0.880   4.431  11.920 -2.5808 -0.9873 -0.2867
10227TIP3    H252097   0.792   4.506  12.017 -0.9457  0.6066  0.0226
10228TIP3   OH252098   6.316   0.496   0.892  0.1731 -0.2466 -0.1078
10228TIP3    H152099   6.309   0.555   0.816  1.8122 -0.0445 -0.1422
10228TIP3    H252100   6.394   0.527   0.938 -0.1325 -1.1178  1.0183
10229TIP3   OH252101   3.737   6.176  15.495  0.3883  0.1360 -0.1414
10229TIP3    H152102   3.723   6.268  15.475  0.2631  0.1154 -0.1491
10229TIP3    H252103   3.831   6.163  15.483  0.3006  0.1027 -0.8195
10230TIP3   OH252104   6.329   0.770  13.270 -0.4131 -0.5461 -0.1742
10230TIP3    H152105   6.287   0.817  13.197  0.3048 -1.2272 -1.0433
10230TIP3    H252106   6.386   0.706  13.228  2.5263  1.1678  0.9229
10231TIP3   OH252107   6.485   0.401   4.673 -0.0960  0.0525  0.1211
10231TIP3    H152108   6.454   0.328   4.620 -0.0906 -0.0615  0.2766
10231TIP3    H252109   6.574   0.377   4.697  0.3214  0.6162 -0.7775
10232TIP3   OH252110   5.298   1.331  11.679  0.2052 -0.0998  0.3954
10232TIP3    H152111   5.326   1.422  11.669  1.2871 -0.5075 -0.4608
10232TIP3    H252112   5.205   1.337  11.701 -0.5630  1.1582 -2.7361
10233TIP3   OH252113   0.193   3.814   1.720 -0.6060  0.6036 -0.5239
10233TIP3    H152114   0.122   3.836   1.660 -1.0871 -1.0405 -0.5955
10233TIP3    H252115   0.243   3.746   1.675  0.4635  1.0718 -0.0696
10234TIP3   OH252116   3.680   5.966  13.695 -0.8599  0.2180 -0.4344
10234TIP3    H152117   3.612   6.034  13.703  0.8852  1.8850  1.2818
10234TIP3    H252118   3.761   6.015  13.681  0.2583 -1.6351 -0.7289
10235TIP3   OH252119   1.153   1.684   1.023 -0.1687 -0.4127  0.2333
10235TIP3    H152120   1.232   1.682   1.076 -0.2725 -0.1770  0.3986
10235TIP3    H252121   1.163   1.760   0.967 -0.0570 -0.6656 -0.0888
10236TIP3   OH252122   3.732   2.694  13.843  0.7593 -0.3791 -0.3963
10236TIP3    H152123   3.751   2.602  13.824  0.4022 -0.6386  0.4906
10236TIP3    H252124   3.743   2.738  13.758  0.9269 -1.2337 -0.8304
10237TIP3   OH252125   0.659   6.307   0.348  0.3008  0.4370 -0.3783
10237TIP3    H152126   0.650   6.220   0.309  0.6769 -2.6505  5.4023
10237TIP3    H252127   0.753   6.326   0.344  0.2951  0.3330 -1.1262
10238TIP3   OH252128   0.256   5.334   1.433 -0.0541 -0.0903 -0.6337
10238TIP3    H152129   0.165   5.362   1.443 -0.4623 -1.2311 -1.0649
10238TIP3    H252130   0.281   5.304   1.520  0.1632  0.8891 -0.3369
10239TIP3   OH252131   1.176   1.224   0.956  0.2520 -0.1088 -0.0135
10239TIP3    H152132   1.166   1.152   0.895  0.2063 -0.1626  0.0577
10239TIP3    H252133   1.200   1.299   0.901  1.4705 -0.4495  0.0444
10240TIP3   OH252134   4.555   2.084   2.922  0.4133  0.3288 -0.6371
10240TIP3    H152135   4.580   2.011   2.865  0.8907 -0.0572  0.0404
10240TIP3    H252136   4.565   2.162   2.868 -0.2707 -0.1198 -1.4258
10241TIP3   OH252137   6.353   4.059  11.736 -0.5633 -0.0372  0.0391
10241TIP3    H152138   6.344   4.009  11.817  3.3529 -0.5375  0.3501
10241TIP3    H252139   6.366   3.992  11.668 -0.0275  0.4562 -0.3500
10242TIP3   OH252140   2.536   3.369   2.092 -0.0952 -0.6704  0.6246
10242TIP3    H152141   2.509   3.432   2.159 -0.3528  1.4489 -1.3518
10242TIP3    H252142   2.624   3.398   2.066 -0.7781 -0.1399 -1.3148
10243TIP3   OH252143   2.195   1.795   6.669  0.3164  0.1181  0.2999
10243TIP3    H152144   2.174   1.708   6.703 -1.0244 -0.2166 -1.2942
10243TIP3    H252145   2.116   1.823   6.622  1.0340  1.8270  0.0218
10244TIP3   OH252146   3.240   4.331   6.027 -0.0351 -0.2817 -0.0677
10244TIP3    H152147   3.255   4.296   6.115 -2.6855  1.0619  1.0188
10244TIP3    H252148   3.295   4.409   6.023 -0.8896  0.4068  0.9656
10245TIP3   OH252149   3.237   5.402   5.768 -0.3179  1.2810  0.2994
10245TIP3    H152150   3.242   5.419   5.862 -0.4484  0.8050  0.3947
10245TIP3    H252151   3.325   5.374   5.743 -0.7546 -0.6171  0.6928
10246TIP3   OH252152   0.036   5.668   6.678 -0.1816  0.2956  0.1179
10246TIP3    H152153   0.018   5.598   6.615  0.2984 -0.1940  0.5200
10246TIP3    H252154   0.124   5.698   6.657  0.4659 -0.6988  1.3125
10247TIP3   OH252155   1.232   0.141   3.589  0.5185 -0.3973  0.6931
10247TIP3    H152156   1.148   0.141   3.544  1.0748 -1.5441 -0.4241
10247TIP3    H252157   1.254   0.234   3.598 -1.1300 -0.0644  1.5829
10248TIP3   OH252158   6.430   5.516  13.692 -0.1092 -0.1332  0.1260
10248TIP3    H152159   6.365   5.541  13.758  0.6061  0.1879  0.7230
10248TIP3    H252160   6.420   5.421  13.684 -1.5266  0.0589 -0.7436
10249TIP3   OH252161   4.289   3.619   3.577  0.2449 -0.3078 -0.1263
10249TIP3    H152162   4.379   3.587   3.571  0.7256  0.4488  1.9523
10249TIP3    H252163   4.295   3.711   3.551 -0.3755 -0.8024 -2.1410
10250TIP3   OH252164   0.613   4.439   1.988  0.1568 -0.6182 -0.1752
10250TIP3    H152165   0.643   4.530   1.996  1.5178 -1.1701  1.5458
10250TIP3    H252166   0.691   4.390   1.961 -0.7056 -1.2416 -1.7049
10251TIP3   OH252167   3.074   6.250  16.452  0.6317  0.3935  0.6072
10251TIP3    H152168   3.100   6.331  16.409 -1.4816  0.1783 -1.2908
10251TIP3    H252169   3.091   6.265  16.545  0.0973  3.1126  0.3390
10252TIP3   OH252170   5.173   2.530   3.293  0.4076 -0.0245  0.4723
10252TIP3    H152171   5.160   2.545   3.387  0.4565 -3.6008  1.2058
10252TIP3    H252172   5.266   2.549   3.279  0.5081  0.0926  1.2529
10253TIP3   OH252173   5.371   3.518   4.013  0.0218 -0.5378 -0.2821
10253TIP3    H152174   5.434   3.493   4.081 -0.0937 -3.0241 -0.9799
10253TIP3    H252175   5.290   3.473   4.038 -0.7102  0.4396 -0.8271
10254TIP3   OH252176   4.084   6.758   4.843  0.5062  0.2805  0.0114
10254TIP3    H152177   3.991   6.762   4.819  0.9165 -0.0175 -1.7401
10254TIP3    H252178   4.083   6.740   4.937 -1.2055 -0.2910 -0.0767
10255TIP3   OH252179   4.564   1.305   0.819  0.3969  0.2060  0.1103
10255TIP3    H152180   4.516   1.224   0.837 -0.2507  0.2535 -1.2719
10255TIP3    H252181   4.647   1.276   0.781  1.0021  0.1626  1.3964
10256TIP3   OH252182   6.292   4.838   3.717 -0.8737 -0.4820 -0.0598
10256TIP3    H152183   6.274   4.745   3.729  0.2758 -0.5785  1.0427
10256TIP3    H252184   6.239   4.882   3.784 -0.4229 -0.4483  0.2807
10257TIP3   OH252185   3.730   6.686   1.564  0.3691 -0.8371 -0.3310
10257TIP3    H152186   3.668   6.632   1.516 -1.9955  0.3234  1.2107
10257TIP3    H252187   3.733   6.768   1.516  2.0922 -1.4180 -1.3178
10258TIP3   OH252188   2.155   2.644  17.143 -0.5495  0.0331 -0.6593
10258TIP3    H152189   2.242   2.660  17.109 -0.9260  0.9678 -1.2154
10258TIP3    H252190   2.121   2.572  17.089 -0.2874 -0.0434 -0.7246
10259TIP3   OH252191   1.154   3.152   0.197 -0.3362  0.4714  0.9157
10259TIP3    H152192   1.120   3.073   0.156  0.6827  0.0133  0.9263
10259TIP3    H252193   1.208   3.120   0.269  0.3285  1.1640  0.7314
10260TIP3   OH252194   6.652   1.801  11.593  1.1550 -0.1164  0.1864
10260TIP3    H152195   6.703   1.808  11.674  0.6398 -1.2031  0.6294
10260TIP3    H252196   6.647   1.707  11.577 -2.2266 -0.2084  1.1667
10261TIP3   OH252197   4.641   1.432   3.331 -0.3773  0.2399  0.3345
10261TIP3    H152198   4.603   1.411   3.416 -0.6204 -2.2354 -0.3016
10261TIP3    H252199   4.735   1.435   3.347 -0.4808  0.7409  0.8646
10262TIP3   OH252200   1.783   1.024   0.535  0.1176  0.0567 -0.3183
10262TIP3    H152201   1.809   0.932   0.537  3.2025  0.7934  0.4691
10262TIP3    H252202   1.781   1.050   0.628  0.0828  0.9567 -0.5586
10263TIP3   OH252203   6.049   2.710  13.762  0.0345  0.2742  0.1806
10263TIP3    H152204   5.987   2.671  13.700  0.3056  0.7111 -0.3671
10263TIP3    H252205   6.135   2.696  13.722  0.1229  1.6280 -0.1347
10264TIP3   OH252206   5.334   6.389  12.515 -0.0037 -0.2147  0.0146
10264TIP3    H152207   5.269   6.326  12.484 -0.8707  0.1944  0.9229
10264TIP3    H252208   5.289   6.473  12.510  0.4206  0.0664  0.7450
10265TIP3   OH252209   0.899   1.226  16.454 -0.5765 -0.2376  0.1987
10265TIP3    H152210   0.937   1.308  16.423  1.3822 -1.4070 -0.6806
10265TIP3    H252211   0.805   1.235  16.438 -0.6415  2.4007  1.5414
10266TIP3   OH252212   0.118   1.000   2.275  0.1512 -0.7076 -0.1478
10266TIP3    H152213   0.137   1.088   2.309 -0.1715 -0.5419 -0.3860
10266TIP3    H252214   0.170   0.941   2.330 -3.1116 -0.8142  3.1658
10267TIP3   OH252215   0.186   1.164  13.080 -0.4431 -0.6922  0.5688
10267TIP3    H152216   0.107   1.217  13.085 -1.0221 -1.5418  0.5941
10267TIP3    H252217   0.158   1.076  13.107  0.6051 -0.8995  1.0270
10268TIP3   OH252218   1.262   5.333  11.673  0.2250  0.5903  0.0087
10268TIP3    H152219   1.264   5.426  11.699  0.4223  1.2262 -2.1002
10268TIP3    H252220   1.170   5.308  11.682  0.6069 -0.0847  3.8080
10269TIP3   OH252221   3.655   1.672  11.299  0.0691 -0.2682  0.0053
10269TIP3    H152222   3.626   1.581  11.304 -0.6288  0.0092  2.1066
10269TIP3    H252223   3.627   1.711  11.382  0.6374  1.7905 -0.6979
10270TIP3   OH252224   5.352   4.990  10.375  0.1278 -0.0410  0.3565
10270TIP3    H152225   5.445   5.007  10.392  0.0798 -0.2045  0.7918
10270TIP3    H252226   5.316   5.076  10.351  0.1671  0.2276  1.2393
10271TIP3   OH252227   0.766   4.324  15.579 -0.5851 -0.5379  0.4663
10271TIP3    H152228   0.705   4.259  15.544 -0.2849  0.2268 -1.5797
10271TIP3    H252229   0.852   4.286  15.566 -0.5134 -1.0462  2.1616
10272TIP3   OH252230   4.070   2.746  14.853  0.3618  0.3702  0.2987
10272TIP3    H152231   4.140   2.686  14.828  0.2117  0.1220  0.4697
10272TIP3    H252232   4.078   2.819  14.791 -2.0283 -1.6623 -2.7591
10273TIP3   OH252233   6.106   6.134   5.650 -0.3334 -0.6738 -0.3867
10273TIP3    H152234   6.176   6.193   5.621 -0.2977 -1.1752 -1.3840
10273TIP3    H252235   6.062   6.181   5.721  0.7991 -0.2140  0.0184
10274TIP3   OH252236   2.503   1.704  14.809 -0.2363  0.1612 -0.3764
10274TIP3    H152237   2.575   1.640  14.810 -1.1689 -0.9053  0.1986
10274TIP3    H252238   2.449   1.679  14.734 -1.4263 -0.6972  0.7232
10275TIP3   OH252239   6.544   5.308   1.664  0.3392 -0.3913  0.2397
10275TIP3    H152240   6.461   5.319   1.619  1.1111  0.6963 -0.9997
10275TIP3    H252241   6.568   5.396   1.692  2.1182 -0.2638 -1.4262
10276TIP3   OH252242   5.531   1.903   2.559  0.1765  0.2702  0.1630
10276TIP3    H152243   5.591   1.944   2.497 -0.6346 -0.0934 -0.9023
10276TIP3    H252244   5.447   1.948   2.545 -0.5064 -1.1025 -0.3993
10277TIP3   OH252245   1.169   0.114   4.390 -0.3180 -0.4280 -0.1194
10277TIP3    H152246   1.259   0.136   4.415 -0.2304 -0.6476 -0.2419
10277TIP3    H252247   1.115   0.180   4.433 -0.1969 -0.9932  0.9211
10278TIP3   OH252248   3.792   1.391   1.747  0.0912 -0.1472 -0.3357
10278TIP3    H152249   3.817   1.308   1.707  1.3609  1.1679 -2.5126
10278TIP3    H252250   3.869   1.447   1.735 -0.6931  1.3170  1.1410
10279TIP3   OH252251   0.553   2.662   4.392  0.0741  0.2056  0.3401
10279TIP3    H152252   0.541   2.748   4.430  1.2531  0.7720 -0.4985
10279TIP3    H252253   0.628   2.672   4.332  0.1568 -1.3542  0.1280
10280TIP3   OH252254   6.468   1.946  11.250  0.1016 -0.3964  0.4909
10280TIP3    H152255   6.525   1.869  11.257  1.1170  0.1285 -1.1875
10280TIP3    H252256   6.444   1.949  11.157  1.0366  1.9208  0.2535
10281TIP3   OH252257   0.057   6.217  11.173 -0.4400 -0.3673 -0.2282
10281TIP3    H152258   0.097   6.168  11.101 -1.4621  0.9020 -1.7286
10281TIP3    H252259   0.125   6.221  11.240  0.1249 -2.6505 -0.5674
10282TIP3   OH252260   2.573   0.245  11.211 -0.1136  0.3714 -0.0673
10282TIP3    H152261   2.600   0.154  11.198  0.3668  0.0907  2.3524
10282TIP3    H252262   2.636   0.296  11.162 -0.1059 -0.5821 -1.0785
10283TIP3   OH252263   2.878   0.257   6.849  0.0141 -0.2790 -0.1412
10283TIP3    H152264   2.922   0.174   6.868  2.7476  1.2244  0.5983
10283TIP3    H252265   2.884   0.266   6.754  0.5510 -0.4940 -0.1296
10284TIP3   OH252266   6.343   2.807  14.969 -0.5297  0.0699  0.4437
10284TIP3    H152267   6.311   2.837  14.884 -1.7144 -0.1995  0.7794
10284TIP3    H252268   6.433   2.839  14.973 -0.1220 -0.7375 -1.3162
10285TIP3   OH252269   5.606   4.010  14.911 -0.3070 -0.0779 -0.0523
10285TIP3    H152270   5.543   3.949  14.874  1.4582 -1.6275 -0.6639
10285TIP3    H252271   5.677   4.014  14.847  0.9551  0.3547  1.2896
10286TIP3   OH252272   0.376   6.033  11.773 -0.1391 -0.1536 -0.0218
10286TIP3    H152273   0.440   5.982  11.822 -0.5401 -0.5675  0.0803
10286TIP3    H252274   0.339   6.094  11.837  1.5270  1.4433 -0.5160
10287TIP3   OH252275   4.800   0.940  16.574 -0.3211  0.6751  0.0624
10287TIP3    H152276   4.733   1.008  16.574 -0.5478  0.4577  0.9685
10287TIP3    H252277   4.839   0.945  16.486 -3.5952 -1.2378 -1.6914
10288TIP3   OH252278   3.623   0.527  14.850 -0.6719  0.4769 -0.1087
10288TIP3    H152279   3.582   0.572  14.925  0.2097 -0.2535  0.8428
10288TIP3    H252280   3.549   0.490  14.802 -1.5857  3.8211 -1.6295
10289TIP3   OH252281   5.889   1.345   2.047  0.2852  0.0789  0.0389
10289TIP3    H152282   5.907   1.298   1.966  3.2507  1.9271 -0.5252
10289TIP3    H252283   5.806   1.309   2.078 -1.4258 -0.1681 -4.1735
10290TIP3   OH252284   4.580   3.813   6.397 -0.1733  0.2495 -0.1845
10290TIP3    H152285   4.617   3.804   6.485 -0.2536 -2.1747 -0.3367
10290TIP3    H252286   4.487   3.827   6.411 -0.1903 -0.1541  0.1289
10291TIP3   OH252287   1.009   4.188  14.871  0.2364 -0.0687 -0.0327
10291TIP3    H152288   1.100   4.191  14.900  0.6188 -2.5271 -0.7165
10291TIP3    H252289   1.002   4.261  14.808  1.4623  0.6945  0.6673
10292TIP3   OH252290   5.140   5.674  16.531 -0.0424 -0.8592 -0.2766
10292TIP3    H152291   5.082   5.731  16.582  0.3247 -1.2004  0.5467
10292TIP3    H252292   5.170   5.728  16.458  0.6062  0.1454  0.7018
10293TIP3   OH252293   0.901   4.315  12.479  0.2313 -0.3534 -0.7521
10293TIP3    H152294   0.901   4.411  12.475 -1.1363 -0.2883  0.0220
10293TIP3    H252295   0.954   4.295  12.556  0.3279 -0.2146 -0.7818
10294TIP3   OH252296   1.116   0.763  12.964  0.0919  0.6168  0.2967
10294TIP3    H152297   1.197   0.777  12.915 -0.0177  0.9925  0.2195
10294TIP3    H252298   1.146   0.746  13.054  0.3276 -0.7350 -0.0080
10295TIP3   OH252299   5.633   6.206  16.893  0.4278 -0.2042  0.7051
10295TIP3    H152300   5.683   6.208  16.974  2.7190  1.2119 -0.6359
10295TIP3    H252301   5.667   6.279  16.841 -2.2243  0.0696 -0.8367
10296TIP3   OH252302   2.309   3.896   2.023  0.1290  0.3530  0.5577
10296TIP3    H152303   2.333   3.821   1.970 -1.6346 -0.3610  0.6808
10296TIP3    H252304   2.293   3.859   2.110  1.8165  1.3139  1.3088
10297TIP3   OH252305   1.309   4.378   2.680 -0.1828  0.2363  0.2869
10297TIP3    H152306   1.229   4.428   2.697 -0.6623 -0.5028  0.2692
10297TIP3    H252307   1.283   4.287   2.691  0.0547 -0.1814 -2.0740
10298TIP3   OH252308   1.373   1.541   0.642  0.1891 -0.1174  0.1982
10298TIP3    H152309   1.435   1.543   0.715  1.3788 -1.1438 -0.7223
10298TIP3    H252310   1.390   1.458   0.599 -1.5301 -0.2062 -0.3901
10299TIP3   OH252311   1.027   6.013  16.108  0.1793  0.4877 -0.1922
10299TIP3    H152312   1.006   6.106  16.108 -0.1717  0.4106  0.0403
10299TIP3    H252313   1.058   5.995  16.019  1.3534  1.0673  0.0882
10300TIP3   OH252314   0.848   5.636   4.874  0.2745  0.1155  0.6164
10300TIP3    H152315   0.847   5.648   4.779 -0.1872  0.9716  0.7255
10300TIP3    H252316   0.926   5.582   4.890  1.2753  1.2874 -0.1018
10301TIP3   OH252317   5.086   3.175  12.141 -0.4044  0.3083  0.0300
10301TIP3    H152318   5.080   3.091  12.095 -0.7411 -0.5020  1.4765
10301TIP3    H252319   5.151   3.225  12.092  0.9913 -1.4168  0.0271
10302TIP3   OH252320   2.036   5.624   2.861  0.4898  0.3394 -0.3259
10302TIP3    H152321   2.068   5.709   2.830  0.4429  0.4142 -0.1741
10302TIP3    H252322   2.105   5.562   2.837 -0.3362  0.0745 -2.1973
10303TIP3   OH252323   6.100   6.668  11.225  0.5012  0.0042 -0.0187
10303TIP3    H152324   6.037   6.697  11.291  1.9950 -0.1702  1.5575
10303TIP3    H252325   6.063   6.698  11.142 -0.5205  1.9692  1.0633
10304TIP3   OH252326   4.611   4.929  17.159 -0.0566 -0.6475  0.2408
10304TIP3    H152327   4.662   4.911  17.081 -0.5184 -1.1258  0.0425
10304TIP3    H252328   4.661   4.890  17.231 -2.0296 -4.9191 -0.3866
10305TIP3   OH252329   2.090   5.895   5.869 -0.0639 -0.6619  0.5168
10305TIP3    H152330   2.032   5.921   5.940 -0.3697 -1.2152  0.4718
10305TIP3    H252331   2.057   5.943   5.793  0.3057 -0.0164  0.7545
10306TIP3   OH252332   2.483   4.357   0.995 -0.4225 -0.0956  0.0494
10306TIP3    H152333   2.464   4.321   1.082 -0.0762  1.2271  0.6894
10306TIP3    H252334   2.471   4.451   1.005  3.0810  0.5325 -0.3538
10307TIP3   OH252335   1.099   5.129   0.810  0.5560  0.5469  0.2921
10307TIP3    H152336   1.181   5.173   0.834  1.0052 -0.9038  1.5235
10307TIP3    H252337   1.032   5.196   0.826  1.4391  1.6394 -0.3848
10308TIP3   OH252338   5.081   5.550  10.304  0.1475  0.1975  0.2597
10308TIP3    H152339   5.099   5.644  10.305 -0.1833  0.2761 -0.7028
10308TIP3    H252340   5.006   5.539  10.363  2.2539  0.0562  3.1626
10309TIP3   OH252341   2.806   6.306   2.324  0.0139 -0.5168  0.4131
10309TIP3    H152342   2.822   6.277   2.234  0.6488  1.1589 -0.0468
10309TIP3    H252343   2.762   6.390   2.314  2.2223  0.8651  1.6140
10310TIP3   OH252344   4.235   0.759   2.019 -0.2723 -0.5587  0.1537
10310TIP3    H152345   4.320   0.802   2.029  0.8181 -2.3256 -0.8604
10310TIP3    H252346   4.194   0.802   1.944 -0.1530  0.1312  0.4846
10311TIP3   OH252347   4.123   5.824  17.064  0.1217 -0.3440  0.0497
10311TIP3    H152348   4.128   5.744  17.012 -1.6382 -0.6337  0.2884
10311TIP3    H252349   4.205   5.870  17.043  0.3035 -1.2967 -1.5554
10312TIP3   OH252350   6.331   5.862   4.539 -0.3914 -0.2138 -0.0753
10312TIP3    H152351   6.394   5.794   4.564  0.4545  0.6204  0.1645
10312TIP3    H252352   6.376   5.913   4.471 -0.9349  0.2047 -0.1329
10313TIP3   OH252353   4.031   1.231  13.154  0.6686  0.5189  0.1497
10313TIP3    H152354   4.083   1.152  13.141 -1.2943 -0.6573 -1.0066
10313TIP3    H252355   4.066   1.293  13.091  0.2759 -0.4886 -1.0952
10314TIP3   OH252356   1.625   1.624   4.434 -0.0430 -0.2810  0.5374
10314TIP3    H152357   1.634   1.655   4.524 -0.6200  1.0330  0.1640
10314TIP3    H252358   1.663   1.694   4.381 -0.7761 -0.5042 -0.3016
10315TIP3   OH252359   6.014   4.269  15.884 -0.4126  0.3897 -0.4444
10315TIP3    H152360   6.002   4.285  15.978  0.6923  0.5007 -0.3087
10315TIP3    H252361   6.002   4.175  15.873  1.8801 -0.0528  0.2493
10316TIP3   OH252362   4.906   5.212  15.613 -0.4997 -0.2715 -0.1098
10316TIP3    H152363   4.998   5.217  15.640 -0.5980  1.1086  0.0638
10316TIP3    H252364   4.888   5.118  15.605  0.7712 -0.5774  0.3615
10317TIP3   OH252365   2.908   3.774   5.339 -0.5730  0.2456 -0.2261
10317TIP3    H152366   2.911   3.691   5.387  1.6632  0.8756  0.8996
10317TIP3    H252367   2.835   3.765   5.279 -1.3839 -1.9172  0.9761
10318TIP3   OH252368   4.640   0.515   3.568  0.3094  0.4446 -0.0139
10318TIP3    H152369   4.570   0.554   3.620 -0.8128  0.5114 -1.5038
10318TIP3    H252370   4.661   0.433   3.613 -0.8111  0.3692  0.3937
10319TIP3   OH252371   1.315   1.481  17.089 -0.2577  0.8409 -0.2658
10319TIP3    H152372   1.251   1.529  17.142 -1.9578 -0.0045 -1.4640
10319TIP3    H252373   1.333   1.402  17.141 -0.0049  1.1912  0.1840
10320TIP3   OH252374   5.370   2.528   1.770  0.8309  0.4108  0.1859
10320TIP3    H152375   5.408   2.614   1.757 -0.8965  1.4405  1.4698
10320TIP3    H252376   5.275   2.543   1.769  0.4832 -1.5146  0.1823
10321TIP3   OH252377   5.932   2.470   0.192 -0.3988  0.0817 -0.0396
10321TIP3    H152378   5.980   2.437   0.116 -0.9589 -0.5970 -0.1066
10321TIP3    H252379   5.984   2.442   0.267 -1.3014 -1.7538 -0.0489
10322TIP3   OH252380   5.555   0.804   4.022  0.0253 -0.2431  0.3513
10322TIP3    H152381   5.460   0.813   4.014  0.1958  0.4445 -1.4062
10322TIP3    H252382   5.589   0.890   3.997  1.1444 -0.8383 -0.2221
10323TIP3   OH252383   0.232   4.445  16.017  0.4426 -0.0650  0.3092
10323TIP3    H152384   0.210   4.433  15.924  0.0368 -0.5427  0.4578
10323TIP3    H252385   0.281   4.366  16.040  0.0144 -0.2385  0.6486
10324TIP3   OH252386   4.379   0.631  15.414  0.0825  0.3993 -0.3501
10324TIP3    H152387   4.285   0.627  15.400 -0.1463  0.3376  1.0567
10324TIP3    H252388   4.408   0.540  15.405 -0.0652  0.3485 -0.3178
10325TIP3   OH252389   6.690   0.807   5.064  0.2642 -0.0730  0.8973
10325TIP3    H152390   6.702   0.715   5.089  0.2206 -0.5597 -0.7721
10325TIP3    H252391   6.626   0.841   5.128 -2.6359 -2.2432 -0.6058
10326TIP3   OH252392   3.722   5.594   5.287  0.4138 -0.0939 -0.3996
10326TIP3    H152393   3.778   5.520   5.308 -0.4149 -1.1342 -1.7274
10326TIP3    H252394   3.777   5.651   5.233  0.3346 -0.9740 -1.4573
10327TIP3   OH252395   4.251   6.016   1.620 -0.0904 -0.4330  0.6304
10327TIP3    H152396   4.323   5.961   1.651 -0.4281 -0.4818  1.3516
10327TIP3    H252397   4.176   5.956   1.612 -0.0363 -0.4040 -0.2113
10328TIP3   OH252398   6.470   4.324   5.289 -0.4494 -0.5420  0.3376
10328TIP3    H152399   6.515   4.405   5.313 -0.4994 -0.2074 -0.6373
10328TIP3    H252400   6.419   4.348   5.211 -2.7952 -0.7218  1.7167
10329TIP3   OH252401   2.993   5.190   3.617 -0.3946  0.0473  0.0010
10329TIP3    H152402   2.946   5.121   3.568 -0.0364  0.5336 -1.0654
10329TIP3    H252403   2.933   5.264   3.617 -1.6550 -0.8263  2.9250
10330TIP3   OH252404   0.853   1.477   3.297  0.2310  0.1670  0.1612
10330TIP3    H152405   0.933   1.469   3.349 -0.7316  0.2881  1.7051
10330TIP3    H252406   0.849   1.570   3.273  0.4723  0.1880  0.1998
10331TIP3   OH252407   5.085   1.183  16.188 -0.4317 -0.1601 -0.4048
10331TIP3    H152408   5.160   1.136  16.151 -0.5717  0.7861 -1.9610
10331TIP3    H252409   5.034   1.211  16.112 -2.5164 -0.9574  0.6042
10332TIP3   OH252410   5.206   4.985  15.581 -0.3376  0.5237 -0.3777
10332TIP3    H152411   5.273   5.052  15.566 -0.8738  1.5914  1.5393
10332TIP3    H252412   5.246   4.924  15.642 -0.6789  0.4694 -0.2029
10333TIP3   OH252413   1.241   4.852  12.256  0.1916 -0.0180 -0.1561
10333TIP3    H152414   1.269   4.838  12.346 -1.1697  0.8058  0.4265
10333TIP3    H252415   1.310   4.813  12.203  0.9075 -0.7110  1.2395
10334TIP3   OH252416   1.733   1.905  15.283 -0.3313  0.0703 -0.3693
10334TIP3    H152417   1.702   1.965  15.215 -0.4109  0.2751 -0.1547
10334TIP3    H252418   1.653   1.868  15.320 -0.6575  3.4276  2.7921
10335TIP3   OH252419   4.900   4.499   4.763 -0.0076  0.1618 -0.4868
10335TIP3    H152420   4.934   4.419   4.725  0.4402 -0.5232  1.2468
10335TIP3    H252421   4.978   4.550   4.787 -0.2085 -0.0228  0.6562
10336TIP3   OH252422   1.838   2.337  10.990 -0.0581  0.0450 -0.3667
10336TIP3    H152423   1.767   2.399  11.009  2.5805  3.3396 -0.2631
10336TIP3    H252424   1.856   2.349  10.897 -0.3190 -1.6536 -0.6736
10337TIP3   OH252425   5.139   3.515  12.445  0.2303  0.0452  0.3978
10337TIP3    H152426   5.125   3.469  12.528  0.1607  1.6398  1.3116
10337TIP3    H252427   5.057   3.504  12.397  0.3841 -1.1565  0.3930
10338TIP3   OH252428   3.430   1.735   0.232  0.0920 -0.5267  0.2023
10338TIP3    H152429   3.480   1.688   0.166  1.4281  1.0544  0.0076
10338TIP3    H252430   3.486   1.809   0.256 -1.0500 -0.1628  1.9391
10339TIP3   OH252431   1.565   6.478   1.064  0.6986  0.3409  0.3705
10339TIP3    H152432   1.654   6.489   1.032  0.5519  0.4086 -0.0218
10339TIP3    H252433   1.573   6.419   1.139  0.8174 -1.6373 -1.1055
10340TIP3   OH252434   1.010   6.215   5.116  0.1035  0.0202 -0.0826
10340TIP3    H152435   1.020   6.126   5.148 -3.1400 -0.0512  1.0398
10340TIP3    H252436   1.015   6.207   5.021  0.0844 -1.3332  0.0114
10341TIP3   OH252437   6.152   0.383  16.850  0.0354 -0.0208  0.5155
10341TIP3    H152438   6.232   0.435  16.857 -0.0192 -0.1038  2.1393
10341TIP3    H252439   6.082   0.447  16.836  0.3116  0.0732 -0.5977
10342TIP3   OH252440   5.421   1.176  14.930 -0.3803  0.1655  0.3835
10342TIP3    H152441   5.421   1.104  14.867 -0.3614  1.4248 -1.1108
10342TIP3    H252442   5.513   1.199  14.941 -0.3612 -0.2109  1.0955
10343TIP3   OH252443   5.375   5.043   1.453  0.5321  0.0590 -0.3691
10343TIP3    H152444   5.337   5.021   1.538  0.5935 -0.2164 -0.4115
10343TIP3    H252445   5.385   5.138   1.454 -1.3802  0.3136 -0.8482
10344TIP3   OH252446   5.129   5.875  11.750 -0.1580 -0.5053 -0.0326
10344TIP3    H152447   5.179   5.955  11.732 -0.2012 -0.4532  0.0795
10344TIP3    H252448   5.182   5.828  11.815  0.7042 -1.3672 -1.3102
10345TIP3   OH252449   6.175   5.048  11.202 -0.0972 -0.4349 -0.0874
10345TIP3    H152450   6.121   5.117  11.240 -0.4180 -0.8173  0.1622
10345TIP3    H252451   6.253   5.045  11.257 -0.6748 -1.1596  0.7090
10346TIP3   OH252452   2.600   2.589   3.275  0.3433 -0.0808 -0.3772
10346TIP3    H152453   2.664   2.653   3.308 -1.2420  1.0934  0.5434
10346TIP3    H252454   2.606   2.515   3.335 -1.2234  1.2785  1.5731
10347TIP3   OH252455   4.750   5.962  14.839 -0.2383  0.2795  0.1981
10347TIP3    H152456   4.825   5.972  14.780  0.2426  0.2930  0.8058
10347TIP3    H252457   4.778   6.003  14.921 -0.6890 -0.2320  0.6153
10348TIP3   OH252458   3.210   4.311  11.911 -0.1971 -0.0653  0.2958
10348TIP3    H152459   3.288   4.316  11.856 -0.2836  2.5494  0.3205
10348TIP3    H252460   3.244   4.298  11.999  0.0685 -1.2588  0.0383
10349TIP3   OH252461   2.486   2.067   0.837  0.7157 -0.1784  0.5738
10349TIP3    H152462   2.502   1.994   0.777 -1.3476 -0.9978  0.9143
10349TIP3    H252463   2.498   2.030   0.924  3.2015  0.8788  0.7443
10350TIP3   OH252464   5.715   5.120  14.543  0.2895 -0.2654 -0.3559
10350TIP3    H152465   5.704   5.025  14.541 -0.1983 -0.2043 -0.8021
10350TIP3    H252466   5.807   5.133  14.564 -0.2283 -0.8133  2.8219
10351TIP3   OH252467   6.561   0.652   2.450 -0.0246  0.2619 -0.0260
10351TIP3    H152468   6.547   0.695   2.366 -1.7901  1.1257  0.6616
10351TIP3    H252469   6.564   0.724   2.513  3.9250 -0.1254  0.4641
10352TIP3   OH252470   5.475   3.342  14.468 -0.7102 -0.2925 -0.4291
10352TIP3    H152471   5.542   3.310  14.529  0.8375  1.5955 -1.0420
10352TIP3    H252472   5.394   3.341  14.518 -0.0787 -1.7527  0.6391
10353TIP3   OH252473   1.443   2.262   4.113  0.2028  0.4067 -0.7247
10353TIP3    H152474   1.484   2.264   4.199 -2.6229 -0.0662  0.7288
10353TIP3    H252475   1.381   2.334   4.113  0.0539  0.3332 -2.3574
10354TIP3   OH252476   6.268   6.725  13.016  0.1264 -0.4416  0.3747
10354TIP3    H152477   6.335   6.717  12.948 -1.7073 -1.7346 -1.3781
10354TIP3    H252478   6.313   6.768  13.089  2.7357 -0.8978 -0.8571
10355TIP3   OH252479   4.003   5.322  14.042 -0.7478 -0.4026 -0.1673
10355TIP3    H152480   3.917   5.358  14.063 -1.8125 -2.6725 -0.3764
10355TIP3    H252481   4.025   5.267  14.117  0.0650 -0.6179 -0.5564
10356TIP3   OH252482   6.105   3.135  11.568 -0.8290 -0.2568 -0.0392
10356TIP3    H152483   6.130   3.113  11.658 -1.0369 -1.1525 -0.1975
10356TIP3    H252484   6.162   3.082  11.513 -0.7314  0.2583 -0.4441
10357TIP3   OH252485   6.391   3.178   1.592  0.1571  0.0950  0.2111
10357TIP3    H152486   6.418   3.130   1.514 -2.1368 -0.6365 -0.1796
10357TIP3    H252487   6.361   3.263   1.559 -1.2822 -0.3986  0.2235
10358TIP3   OH252488   0.179   5.890  16.943 -0.3011  0.8652  0.1268
10358TIP3    H152489   0.153   5.906  17.034 -0.9383  1.2670 -0.1190
10358TIP3    H252490   0.202   5.977  16.909 -0.3215  0.7553 -0.1683
10359TIP3   OH252491   6.252   2.009  12.219 -0.0933  0.0470 -0.0623
10359TIP3    H152492   6.317   2.075  12.241  0.4049 -0.0686 -1.1181
10359TIP3    H252493   6.288   1.965  12.142 -0.9049 -0.7638  0.0003
10360TIP3   OH252494   3.337   2.153   2.702  0.3481  0.4396 -0.1691
10360TIP3    H152495   3.364   2.244   2.692  1.2330  0.2140  0.0788
10360TIP3    H252496   3.280   2.136   2.627  0.7921  0.9732 -0.6327
10361TIP3   OH252497   3.929   5.733   6.510  0.0287  0.1945 -0.2533
10361TIP3    H152498   3.972   5.713   6.593  1.2706  0.0190 -0.9169
10361TIP3    H252499   3.843   5.691   6.516  0.8588 -1.4947  0.1795
10362TIP3   OH252500   0.840   2.219  13.648  0.5666  0.3884 -0.2651
10362TIP3    H152501   0.755   2.197  13.685 -0.3509  0.4674 -2.1716
10362TIP3    H252502   0.886   2.266  13.718 -0.7465 -0.1157  0.9740
10363TIP3   OH252503   4.664   1.128   2.181  0.1619 -0.1359  0.0345
10363TIP3    H152504   4.577   1.098   2.208  0.4636 -0.9690  0.1086
10363TIP3    H252505   4.680   1.206   2.234 -0.1721 -0.4851  0.6583
10364TIP3   OH252506   1.196   6.503   4.663  0.0722 -0.0231 -0.1563
10364TIP3    H152507   1.145   6.569   4.616 -1.2029 -1.9768 -1.7008
10364TIP3    H252508   1.186   6.526   4.755 -0.5805  1.7171 -0.6136
10365TIP3   OH252509   5.188   2.699   3.801 -0.6371 -0.3670 -0.1437
10365TIP3    H152510   5.141   2.675   3.721 -3.8533  2.0727  0.8279
10365TIP3    H252511   5.269   2.741   3.769 -2.0379  0.9720 -2.2159
10366TIP3   OH252512   3.543   6.334   2.285 -0.5767  0.0758  0.1481
10366TIP3    H152513   3.562   6.424   2.257 -0.6182 -0.4334 -1.6052
10366TIP3    H252514   3.624   6.286   2.270 -1.6118 -1.0029 -2.6850
10367TIP3   OH252515   4.331   4.580  14.571 -0.1869  0.6131 -0.2421
10367TIP3    H152516   4.393   4.647  14.542  0.5748 -0.6285 -1.6350
10367TIP3    H252517   4.374   4.539  14.647 -0.2305  1.0902  0.0392
10368TIP3   OH252518   4.409   2.377   5.347 -0.5611 -0.1157 -0.0551
10368TIP3    H152519   4.385   2.459   5.390 -0.0301  0.1632 -0.2898
10368TIP3    H252520   4.379   2.388   5.256 -2.2364 -0.9403  0.3615
10369TIP3   OH252521   4.289   2.419   5.097 -0.0291  0.9190 -0.3452
10369TIP3    H152522   4.338   2.492   5.059  0.7355 -0.1227 -1.4669
10369TIP3    H252523   4.197   2.440   5.081  0.2439  0.9651 -1.9686
10370TIP3   OH252524   5.879   4.966   6.038 -0.0033 -0.5484 -0.0403
10370TIP3    H152525   5.927   5.046   6.017 -2.1032  0.4123 -1.6316
10370TIP3    H252526   5.788   4.987   6.015 -1.3779 -1.9976  3.4167
10371TIP3   OH252527   4.469   0.629   3.954  0.3107 -0.5236 -0.2238
10371TIP3    H152528   4.476   0.677   4.036  1.6503  1.0599 -1.1924
10371TIP3    H252529   4.376   0.616   3.941 -0.2484  2.6876 -0.3160
10372TIP3   OH252530   6.362   3.171  13.533  0.6530  0.0661  0.0272
10372TIP3    H152531   6.390   3.190  13.622 -3.4706 -0.8447  1.7149
10372TIP3    H252532   6.344   3.077  13.532  0.6315  0.0458 -1.7832
10373TIP3   OH252533   2.758   0.516   2.394  0.3766 -0.0026  0.1523
10373TIP3    H152534   2.802   0.448   2.446 -0.7492 -0.8751  0.0067
10373TIP3    H252535   2.667   0.512   2.422  0.3811  1.8693  0.5472
10374TIP3   OH252536   6.684   1.345  11.334  0.0938 -0.2244 -0.6358
10374TIP3    H152537   6.629   1.272  11.304  0.3283 -0.3910 -0.6669
10374TIP3    H252538   6.685   1.406  11.260  2.1591 -1.4636 -1.7614
10375TIP3   OH252539   1.815   3.740  14.988 -0.1496 -0.2261 -0.0049
10375TIP3    H152540   1.839   3.672  15.051 -2.5460 -1.5000 -0.3479
10375TIP3    H252541   1.826   3.699  14.902 -2.3159 -0.5114 -0.1975
10376TIP3   OH252542   3.516   4.855  12.480 -0.3003  0.7566  0.0775
10376TIP3    H152543   3.551   4.795  12.545 -4.1361 -0.0558  1.6745
10376TIP3    H252544   3.557   4.828  12.397  1.7922 -0.7272  1.5001
10377TIP3   OH252545   0.428   6.310  16.050 -0.0478 -0.3866  0.1011
10377TIP3    H152546   0.513   6.325  16.093  0.2111 -1.5566  0.0256
10377TIP3    H252547   0.451   6.278  15.963 -0.5751  1.4114 -0.7442
10378TIP3   OH252548   5.689   4.433   1.932  0.2822  0.5758  0.1626
10378TIP3    H152549   5.723   4.381   1.859 -0.4782 -0.3835  0.4722
10378TIP3    H252550   5.759   4.495   1.951  0.4147  1.0019 -1.5162
10379TIP3   OH252551   1.132   4.462  11.558 -0.9121  0.0526  0.3728
10379TIP3    H152552   1.190   4.386  11.552  0.2560  0.8488  1.0704
10379TIP3    H252553   1.044   4.426  11.563 -0.4649 -1.2043 -0.4734
10380TIP3   OH252554   4.156   6.761  16.373  0.5408  0.1097 -0.1641
10380TIP3    H152555   4.177   6.817  16.448  1.9472 -0.4426 -0.1267
10380TIP3    H252556   4.063   6.741  16.384 -0.2977  3.1612 -0.6692
10381TIP3   OH252557   2.179   2.237   0.202 -0.4149 -0.2581 -0.1850
10381TIP3    H152558   2.105   2.293   0.178 -0.0894  0.1095 -0.3499
10381TIP3    H252559   2.213   2.205   0.118 -1.5734 -2.0094 -0.0412
10382TIP3   OH252560   0.542   4.922   5.886 -0.3100  0.5705 -0.1856
10382TIP3    H152561   0.628   4.932   5.927 -0.8600 -0.4924  1.3287
10382TIP3    H252562   0.561   4.906   5.794  1.0907  0.9385  0.0161
10383TIP3   OH252563   5.322   2.904  14.671 -0.4035 -0.1649 -0.1900
10383TIP3    H152564   5.362   2.939  14.750 -0.9592  0.5333 -0.2112
10383TIP3    H252565   5.283   2.980  14.627 -0.7100 -0.6442 -0.7762
10384TIP3   OH252566   0.414   6.000   4.700 -0.3324 -0.3143  0.4329
10384TIP3    H152567   0.437   5.911   4.676  0.6946 -0.0884  0.5415
10384TIP3    H252568   0.431   6.006   4.794  0.6555  0.2840  0.2394
10385TIP3   OH252569   3.289   3.962  13.294 -0.0712 -0.4108  0.5723
10385TIP3    H152570   3.355   3.921  13.349 -0.1657 -1.7794 -0.2706
10385TIP3    H252571   3.336   4.031  13.246  1.0837 -2.1282 -0.8886
10386TIP3   OH252572   0.791   3.164   2.207  0.5485  0.1302 -0.7576
10386TIP3    H152573   0.785   3.222   2.131  0.7402  1.0605 -0.0779
10386TIP3    H252574   0.795   3.223   2.282 -0.4522 -0.7716  0.0482
10387TIP3   OH252575   0.960   4.386   1.466 -0.1271 -0.0303  0.2177
10387TIP3    H152576   1.023   4.457   1.480  0.3389 -0.5209  0.6382
10387TIP3    H252577   0.996   4.312   1.515 -1.0309 -0.3183  0.4623
10388TIP3   OH252578   1.910   2.471   6.191  0.2701  0.0743  0.8247
10388TIP3    H152579   1.833   2.429   6.228  0.4553 -0.9743  0.0560
10388TIP3    H252580   1.976   2.465   6.260 -0.6864  2.2043  2.0262
10389TIP3   OH252581   3.018   4.597   5.164 -0.2704 -0.3932  0.2644
10389TIP3    H152582   3.054   4.682   5.189 -1.1068  0.9057 -2.5212
10389TIP3    H252583   3.054   4.535   5.228 -0.7796  2.2040  3.3046
10390TIP3   OH252584   1.584   4.785   0.455 -1.1863  0.2682  0.3900
10390TIP3    H152585   1.501   4.741   0.471 -2.3180  2.0960 -0.0336
10390TIP3    H252586   1.588   4.854   0.521  0.3287 -0.1732  0.8058
10391TIP3   OH252587   0.485   6.502  14.678 -0.6760  0.9696  0.5608
10391TIP3    H152588   0.441   6.542  14.753 -0.3786 -0.1911  1.3806
10391TIP3    H252589   0.433   6.424  14.659 -0.3167  0.8578  0.0312
10392TIP3   OH252590   0.411   6.202  13.688 -0.2387  0.7248 -0.0099
10392TIP3    H152591   0.407   6.203  13.592 -0.2068  0.2821 -0.0173
10392TIP3    H252592   0.411   6.295  13.713 -2.6414  0.8763 -0.3438
10393TIP3   OH252593   3.368   0.391   3.024 -0.3863 -0.4095 -0.3527
10393TIP3    H152594   3.323   0.334   3.086 -0.1321 -0.5036 -0.2545
10393TIP3    H252595   3.328   0.477   3.038 -0.6509 -0.5270 -0.3834
10394TIP3   OH252596   0.472   2.508  16.728  1.0788 -0.4204  0.2449
10394TIP3    H152597   0.463   2.564  16.806 -2.2627 -2.0617  1.2128
10394TIP3    H252598   0.419   2.551  16.661  3.5683  0.7358 -1.1291
10395TIP3   OH252599   2.505   5.626  11.951 -0.0891 -0.1087  0.2698
10395TIP3    H152600   2.470   5.553  11.900  0.2282 -0.4994  0.6061
10395TIP3    H252601   2.555   5.678  11.888 -0.9754  0.2633 -0.1400
10396TIP3   OH252602   6.262   2.041  15.265 -0.4656  0.3129 -0.3644
10396TIP3    H152603   6.226   2.007  15.183  0.3158 -0.9974 -0.1916
10396TIP3    H252604   6.345   1.996  15.275  0.8334  2.5627 -0.2806
10397TIP3   OH252605   5.498   1.657  15.116 -0.3348 -0.1981 -0.0641
10397TIP3    H152606   5.590   1.646  15.090 -0.3566 -1.1438  0.2160
10397TIP3    H252607   5.468   1.733  15.066  0.4958 -0.1009 -0.4350
10398TIP3   OH252608   5.562   4.057   5.292  0.4901  0.4960 -0.1338
10398TIP3    H152609   5.506   4.087   5.363 -0.9260 -1.1809 -0.4669
10398TIP3    H252610   5.645   4.036   5.334 -0.0123  0.4278  0.8591
10399TIP3   OH252611   3.699   4.118  16.974 -0.3919  0.6183 -0.8659
10399TIP3    H152612   3.735   4.176  16.906  0.0381  1.8029  0.3251
10399TIP3    H252613   3.774   4.093  17.027 -0.6929 -0.4645 -0.9261
10400TIP3   OH252614   6.589   0.549   0.365  0.1672  0.6073  0.5741
10400TIP3    H152615   6.502   0.544   0.325  0.8756 -0.3265 -0.9478
10400TIP3    H252616   6.577   0.513   0.453 -0.7775 -0.5781 -0.0062
10401TIP3   OH252617   4.101   2.759  15.601  0.8834  0.5347 -0.1398
10401TIP3    H152618   4.065   2.752  15.689  0.1119  0.4568 -0.4537
10401TIP3    H252619   4.162   2.686  15.593 -0.5526 -0.6924 -0.3577
10402TIP3   OH252620   3.817   4.657   5.259 -0.9966 -0.2538  0.3329
10402TIP3    H152621   3.794   4.623   5.172  0.6216 -0.7223  0.0533
10402TIP3    H252622   3.735   4.656   5.307 -2.1575  0.9514 -1.4734
10403TIP3   OH252623   4.879   4.545  11.482  0.0644  0.1254 -0.4113
10403TIP3    H152624   4.902   4.464  11.528  0.5801  0.1454 -0.6349
10403TIP3    H252625   4.896   4.525  11.390  1.6724  0.9873 -0.3259
10404TIP3   OH252626   1.658   0.489   5.925  0.3218 -1.0075  0.0354
10404TIP3    H152627   1.640   0.480   5.831 -0.7611 -0.4852  0.1823
10404TIP3    H252628   1.752   0.505   5.929  0.1475  0.5448 -1.0861
10405TIP3   OH252629   1.130   5.669  14.386  0.1565  0.0231  0.1806
10405TIP3    H152630   1.200   5.658  14.450  1.9513  0.9532 -1.5094
10405TIP3    H252631   1.149   5.606  14.317  0.3448  1.4121 -1.0995
10406TIP3   OH252632   4.069   3.297   1.533  0.1344  0.1703  0.4298
10406TIP3    H152633   3.997   3.359   1.526 -0.1321 -0.2623 -1.6097
10406TIP3    H252634   4.027   3.214   1.555 -0.2511 -0.3510 -1.9324
10407TIP3   OH252635   4.530   2.863  13.588 -0.3170 -0.1705 -0.0248
10407TIP3    H152636   4.571   2.845  13.504  1.7133  1.4402  0.5342
10407TIP3    H252637   4.467   2.791  13.600 -0.1820 -0.8143 -2.5529
10408TIP3   OH252638   2.363   3.148  13.192  0.0313 -0.1287  0.1867
10408TIP3    H152639   2.360   3.146  13.097  1.0580 -0.0798  0.1364
10408TIP3    H252640   2.455   3.129  13.213 -0.5819 -2.2445  1.2411
10409TIP3   OH252641   2.636   0.204  14.483  0.1211 -0.4122  0.8119
10409TIP3    H152642   2.586   0.284  14.499  0.2172 -0.6916  2.7833
10409TIP3    H252643   2.607   0.144  14.552  0.7809 -1.7259 -0.0284
10410TIP3   OH252644   1.041   1.864  11.336  0.0692 -0.2005  1.1220
10410TIP3    H152645   0.950   1.864  11.305  0.8638  0.3264 -1.4234
10410TIP3    H252646   1.080   1.785  11.298  1.7675  1.8057 -1.6919
10411TIP3   OH252647   1.775   6.375   3.079 -0.0425 -0.2149  0.5767
10411TIP3    H152648   1.742   6.318   3.009  0.7075  1.0989 -0.9165
10411TIP3    H252649   1.701   6.383   3.139 -0.2616 -2.5104  0.7340
10412TIP3   OH252650   0.051   1.218   0.288  0.0500 -0.1513 -0.0347
10412TIP3    H152651   0.022   1.304   0.318  0.1957  0.6352 -1.9967
10412TIP3    H252652   0.145   1.217   0.304  0.2819  0.6311 -1.2769
10413TIP3   OH252653   1.602   1.302   2.317  0.3327 -0.0706 -0.2632
10413TIP3    H152654   1.527   1.247   2.292  1.3358 -1.0316 -1.2482
10413TIP3    H252655   1.589   1.318   2.411 -0.8579 -0.6101 -0.3143
10414TIP3   OH252656   5.445   0.031   3.575 -0.2164  0.3757  0.5762
10414TIP3    H152657   5.477  -0.056   3.551  0.0564  0.5945  0.1373
10414TIP3    H252658   5.518   0.089   3.556 -0.6181  0.7850  0.2705
10415TIP3   OH252659   1.513   3.251  11.809  0.1710 -0.4881 -0.2338
10415TIP3    H152660   1.455   3.188  11.767 -0.0986 -0.0827 -0.4830
10415TIP3    H252661   1.550   3.204  11.884  0.5523 -1.1731 -0.8438
10416TIP3   OH252662   6.697   1.216   0.921  0.0137 -0.4209 -0.6627
10416TIP3    H152663   6.684   1.140   0.864  0.1676 -1.3789  0.5658
10416TIP3    H252664   6.776   1.197   0.971 -2.1380 -1.4295  2.6769
10417TIP3   OH252665   5.379   0.194  15.990  0.0850 -0.1959  0.1527
10417TIP3    H152666   5.393   0.253  16.064  0.5708  1.1520 -0.9507
10417TIP3    H252667   5.465   0.158  15.971  0.1192  0.0738 -0.2272
10418TIP3   OH252668   3.842   1.136   1.602 -0.1970  0.0618  0.1227
10418TIP3    H152669   3.923   1.100   1.639 -0.8740 -1.9728 -0.2278
10418TIP3    H252670   3.859   1.143   1.508 -0.5862 -0.9662 -0.0444
10419TIP3   OH252671   0.992   1.804  17.174  0.2739  0.5536  0.1623
10419TIP3    H152672   1.018   1.727  17.225 -0.4962  0.0885 -0.1286
10419TIP3    H252673   0.992   1.876  17.238  0.1543  0.1426  0.6366
10420TIP3   OH252674   0.864   1.858   4.470  0.1341  0.1425 -0.5736
10420TIP3    H152675   0.811   1.886   4.545  1.8305  1.3206  0.2444
10420TIP3    H252676   0.945   1.825   4.509  0.3780 -0.8419 -1.8339
10421TIP3   OH252677   0.444   5.437  13.895  0.0620 -0.4680  0.0015
10421TIP3    H152678   0.536   5.437  13.920  0.4579 -2.0410 -1.2830
10421TIP3    H252679   0.398   5.402  13.972  0.7805 -1.5745 -0.0541
10422TIP3   OH252680   6.011   0.337   6.087 -0.2722  0.7053  0.3652
10422TIP3    H152681   6.096   0.348   6.129 -0.0130 -1.9876  0.7111
10422TIP3    H252682   5.949   0.331   6.160 -0.8318  2.6810  0.1167
10423TIP3   OH252683   3.407   6.154  15.815 -0.6386 -0.5924  0.2860
10423TIP3    H152684   3.479   6.108  15.771  0.5516  1.0790  0.3987
10423TIP3    H252685   3.333   6.144  15.756  0.3155 -0.3492 -0.9950
10424TIP3   OH252686   1.428   5.111  12.421  0.4145 -0.1978 -0.2330
10424TIP3    H152687   1.357   5.100  12.358  1.6431 -1.2812 -1.5032
10424TIP3    H252688   1.508   5.109  12.368  1.4095  1.0024  1.1512
10425TIP3   OH252689   4.076   0.994   3.149  0.2198 -0.3066 -0.5476
10425TIP3    H152690   4.151   1.041   3.186  1.0202 -2.6489  1.0132
10425TIP3    H252691   4.102   0.902   3.149 -2.3718 -1.1403 -0.6728
10426TIP3   OH252692   1.617   3.453  15.904 -0.0089 -0.4283 -0.2929
10426TIP3    H152693   1.614   3.447  15.809  1.8266 -1.3976 -0.3283
10426TIP3    H252694   1.709   3.473  15.924 -0.5711  0.8912  1.2398
10427TIP3   OH252695   0.452   6.423  12.584  0.3563  0.6868 -0.4004
10427TIP3    H152696   0.394   6.376  12.524 -1.1800  0.0923  1.4253
10427TIP3    H252697   0.516   6.358  12.611  0.2587  0.5844 -0.4137
10428TIP3   OH252698   4.674   4.658  11.704  0.2725  0.3793  0.4872
10428TIP3    H152699   4.587   4.684  11.673 -0.0929 -1.1215  0.1729
10428TIP3    H252700   4.726   4.648  11.624  0.2946 -0.1753  0.5642
10429TIP3   OH252701   2.666   2.269   2.295 -0.4867 -0.4404  0.6214
10429TIP3    H152702   2.614   2.198   2.333  1.5920 -1.5809  1.4835
10429TIP3    H252703   2.687   2.239   2.207  0.2865 -0.8835  0.9425
10430TIP3   OH252704   4.451   0.131  16.613  0.2853  0.0219  0.5930
10430TIP3    H152705   4.497   0.186  16.549  0.3549  0.0546  0.6703
10430TIP3    H252706   4.375   0.183  16.639  0.1689 -0.0592  0.4153
10431TIP3   OH252707   1.658   5.684   2.461  0.1187 -0.0913 -0.6891
10431TIP3    H152708   1.577   5.729   2.437 -0.4768 -1.7069 -1.8801
10431TIP3    H252709   1.630   5.595   2.482  1.4615 -0.3615  0.0449
10432TIP3   OH252710   6.094   3.173   0.651  0.7802  0.4355 -0.2009
10432TIP3    H152711   6.174   3.160   0.599  1.1252  1.9298 -0.1044
10432TIP3    H252712   6.120   3.236   0.719 -0.3994  0.6935  0.0309
10433TIP3   OH252713   3.620   2.932  14.107  0.2171  0.1756 -0.2587
10433TIP3    H152714   3.609   2.979  14.190  0.0472  1.1533 -0.8128
10433TIP3    H252715   3.686   2.866  14.126 -1.5720 -1.2841  1.3147
10434TIP3   OH252716   2.595   6.175   0.910 -0.5533 -0.3505  0.2819
10434TIP3    H152717   2.684   6.198   0.937 -0.7397  1.2756 -0.3329
10434TIP3    H252718   2.570   6.102   0.967  1.4121 -1.3155 -0.0180
10435TIP3   OH252719   0.800   3.322   2.004  0.2267  0.0600 -0.0898
10435TIP3    H152720   0.793   3.412   2.035  1.1392 -0.1962  0.9189
10435TIP3    H252721   0.883   3.319   1.958  0.7572 -0.5283  0.8683
10436TIP3   OH252722   5.127   5.652   3.093 -0.0779  0.2177  0.1277
10436TIP3    H152723   5.047   5.601   3.084  0.8957 -1.0134 -3.1718
10436TIP3    H252724   5.103   5.739   3.058 -0.3057  0.2913  0.4588
10437TIP3   OH252725   5.637   0.352   2.583 -0.1583 -0.3131  0.0100
10437TIP3    H152726   5.575   0.286   2.550  0.5021 -1.2619  0.6010
10437TIP3    H252727   5.723   0.318   2.557  0.3627 -0.8853  2.2825
10438TIP3   OH252728   4.404   1.779   2.028 -0.4211  0.6211 -0.2881
10438TIP3    H152729   4.412   1.688   2.001  0.6119  0.2077  1.3035
10438TIP3    H252730   4.313   1.788   2.056 -0.7658  0.3335 -1.2901
10439TIP3   OH252731   0.666   4.039   4.169  0.2175  0.5395  0.0299
10439TIP3    H152732   0.704   4.123   4.196 -2.7124  2.0116  0.0450
10439TIP3    H252733   0.628   4.056   4.083 -0.1705 -0.8644 -0.1002
10440TIP3   OH252734   4.228   2.640   3.510 -0.2466  0.3998 -0.2733
10440TIP3    H152735   4.235   2.548   3.539 -1.9419  0.4874  0.5776
10440TIP3    H252736   4.318   2.671   3.507  0.3197 -1.0877  0.1262
10441TIP3   OH252737   6.566   4.725   4.498 -0.8105  0.0844  0.2755
10441TIP3    H152738   6.584   4.776   4.419  1.0194 -1.0133 -0.0765
10441TIP3    H252739   6.523   4.646   4.466 -1.7571  0.4558  0.5991
10442TIP3   OH252740   4.476   3.766   2.038  1.3131  0.3955  0.5955
10442TIP3    H152741   4.486   3.841   1.979 -1.4213  1.7883  1.7268
10442TIP3    H252742   4.533   3.787   2.112  0.1597  1.7554  1.1683
10443TIP3   OH252743   3.303   3.161  12.688  0.1673 -0.4554  0.5691
10443TIP3    H152744   3.376   3.198  12.638 -1.2374  1.1002 -0.4204
10443TIP3    H252745   3.251   3.113  12.624 -0.4120 -0.4138  0.9977
10444TIP3   OH252746   1.440   4.580   2.407  0.4078  0.5002  0.3261
10444TIP3    H152747   1.455   4.519   2.335  1.6790  0.5672  0.5051
10444TIP3    H252748   1.521   4.577   2.459  0.1449  1.6491  0.8457
10445TIP3   OH252749   4.598   4.768  13.310 -0.5947 -0.1029 -0.9916
10445TIP3    H152750   4.587   4.742  13.401 -0.4956  1.0449 -0.6394
10445TIP3    H252751   4.601   4.685  13.262 -0.9059 -0.7123  0.0091
10446TIP3   OH252752   2.431   1.698   6.503  0.5374  0.6657 -0.5585
10446TIP3    H152753   2.419   1.708   6.597  0.2902  0.2588 -0.5455
10446TIP3    H252754   2.386   1.774   6.465 -1.2968 -0.3276 -0.4625
10447TIP3   OH252755   0.183   3.838  14.049  0.0759 -0.1246  0.0777
10447TIP3    H152756   0.136   3.763  14.086  0.2538  0.7634  2.2616
10447TIP3    H252757   0.115   3.889  14.005 -0.3760 -0.6711  0.1292
10448TIP3   OH252758   3.168   0.783   5.566  0.0518  0.7475 -0.2965
10448TIP3    H152759   3.129   0.747   5.646 -0.5064 -1.1113 -1.3261
10448TIP3    H252760   3.096   0.829   5.524  0.8896  3.7202  1.2649
10449TIP3   OH252761   2.597   4.547   0.441 -0.3202 -0.2341  0.8206
10449TIP3    H152762   2.521   4.534   0.385  0.7488  1.8108 -1.3382
10449TIP3    H252763   2.672   4.527   0.385  0.8066  1.2732  1.6990
10450TIP3   OH252764   0.356   2.683   4.999  0.2569  0.3575 -0.2771
10450TIP3    H152765   0.281   2.718   5.047  0.4199  0.2868  0.0309
10450TIP3    H252766   0.372   2.597   5.039  1.3958  0.9669  0.6376
10451TIP3   OH252767   5.249   5.823  12.010  0.5362  0.0852 -0.0003
10451TIP3    H152768   5.254   5.916  12.033 -0.8132  0.0363  0.5832
10451TIP3    H252769   5.259   5.777  12.093  1.6107 -0.3163 -0.3424
10452TIP3   OH252770   5.748   4.748  17.228 -0.4234  0.3808  0.3113
10452TIP3    H152771   5.840   4.775  17.234  0.2371 -1.4559 -0.7919
10452TIP3    H252772   5.729   4.711  17.315 -0.6280  2.1364  1.0516
10453TIP3   OH252773   3.366   3.852   0.395 -0.3999 -0.3238 -0.0769
10453TIP3    H152774   3.372   3.787   0.325 -0.5333 -1.1411  0.6574
10453TIP3    H252775   3.361   3.800   0.475 -2.6064  0.5498  0.3940
10454TIP3   OH252776   3.082   3.997   2.734 -1.0611  0.4137  0.8440
10454TIP3    H152777   3.044   3.995   2.646 -1.7887  2.1940  1.0830
10454TIP3    H252778   3.071   4.087   2.763  0.8354  0.3036  2.0591
10455TIP3   OH252779   6.425   6.716  13.661  0.2415 -0.1344  1.4306
10455TIP3    H152780   6.461   6.728  13.749  0.6155  0.2822  1.2247
10455TIP3    H252781   6.499   6.689  13.608  0.3394  1.0287  0.9387
10456TIP3   OH252782   3.235   0.885  17.218  0.7279  0.2083  0.1053
10456TIP3    H152783   3.157   0.927  17.183  1.9228  2.0778 -0.4536
10456TIP3    H252784   3.202   0.827  17.288 -1.2194  0.0457 -0.8929
10457TIP3   OH252785   5.629   6.432  13.121  0.2231 -0.4445  0.3422
10457TIP3    H152786   5.636   6.496  13.192 -0.3866  0.0222 -0.0138
10457TIP3    H252787   5.709   6.445  13.069 -0.0924  0.3261  0.0360
10458TIP3   OH252788   5.805   5.557   1.799 -0.2522  0.5923 -0.1112
10458TIP3    H152789   5.768   5.493   1.860 -1.5442  1.4770  0.0787
10458TIP3    H252790   5.792   5.517   1.712  0.0646  0.0765  0.0724
10459TIP3   OH252791   2.777   1.412  16.915 -0.3854 -0.5981  0.5783
10459TIP3    H152792   2.793   1.329  16.869  1.1882  0.0249 -0.0510
10459TIP3    H252793   2.684   1.429  16.902  0.1220  0.0517 -3.2847
10460TIP3   OH252794   4.195   0.039  12.282  0.4024 -0.2749 -0.4064
10460TIP3    H152795   4.241   0.061  12.363 -1.5193  0.1557  0.6307
10460TIP3    H252796   4.172  -0.053  12.292 -1.5434  0.2386  0.5206
10461TIP3   OH252797   5.121   3.314  15.560  0.6393 -0.1819  0.4727
10461TIP3    H152798   5.028   3.311  15.538  0.1066  0.5841  2.3859
10461TIP3    H252799   5.123   3.339  15.652  2.7823  0.6337  0.2695
10462TIP3   OH252800   3.169   4.793   5.262  0.0787 -0.2360 -0.0585
10462TIP3    H152801   3.206   4.779   5.349  1.3183 -2.1260 -0.8087
10462TIP3    H252802   3.244   4.817   5.208 -0.5385  0.1034 -0.7724
10463TIP3   OH252803   4.070   6.057  12.924 -0.1042 -0.1812 -0.4591
10463TIP3    H152804   4.057   6.048  13.018  0.2637 -0.4203 -0.4263
10463TIP3    H252805   4.056   6.150  12.906  4.5019  0.9999  0.6427
10464TIP3   OH252806   6.687   2.307  12.407  0.1297 -0.1716  0.0123
10464TIP3    H152807   6.704   2.363  12.483  0.8996  0.2413 -0.4545
10464TIP3    H252808   6.594   2.284  12.416  0.1983 -0.1204  1.0659
10465TIP3   OH252809   0.664   0.368  17.211  0.0085 -0.4966 -0.3036
10465TIP3    H152810   0.572   0.385  17.191  0.0695  1.0268  0.5673
10465TIP3    H252811   0.699   0.453  17.236  1.1290 -1.4152  1.4321
10466TIP3   OH252812   2.390   1.227   3.144  0.3756 -0.1798  0.2948
10466TIP3    H152813   2.313   1.198   3.193 -0.6749 -0.6368 -1.5149
10466TIP3    H252814   2.405   1.157   3.080  2.3523 -0.1165  0.6134
10467TIP3   OH252815   2.125   2.310  15.012  0.2431  0.1756  0.0312
10467TIP3    H152816   2.060   2.290  15.079  0.2514  1.0235  0.3055
10467TIP3    H252817   2.206   2.270  15.044  0.4381  1.2525  0.9424
10468TIP3   OH252818   2.603   6.610  11.912  0.5987 -0.7656 -0.4662
10468TIP3    H152819   2.664   6.536  11.902  1.0198 -0.5477  0.4287
10468TIP3    H252820   2.519   6.569  11.933  1.3674 -0.9447  2.6258
10469TIP3   OH252821   0.321   6.766  12.155  0.1547 -0.1949  0.3467
10469TIP3    H152822   0.382   6.799  12.221 -1.2432  0.4818  1.3861
10469TIP3    H252823   0.277   6.692  12.198 -1.2793  0.6995  0.4942
10470TIP3   OH252824   3.730   4.978   3.168 -0.3820 -0.5200 -0.2195
10470TIP3    H152825   3.738   5.021   3.083  2.0097 -0.0841  0.1566
10470TIP3    H252826   3.761   4.888   3.152 -2.5389 -1.2917 -0.3557
10471TIP3   OH252827   6.079   5.819  16.146  0.8342  0.2080 -0.0639
10471TIP3    H152828   6.046   5.905  16.122  0.4666 -0.3348 -1.7033
10471TIP3    H252829   6.052   5.807  16.237  0.4208  1.5938  0.0197
10472TIP3   OH252830   2.424   4.729   4.647 -0.1386 -0.0265 -0.0307
10472TIP3    H152831   2.410   4.660   4.712 -3.6512 -1.1073 -1.6683
10472TIP3    H252832   2.339   4.739   4.605  1.3819  2.2170 -2.9090
10473TIP3   OH252833   0.344   1.566   3.693  0.4538 -0.2023  0.2300
10473TIP3    H152834   0.268   1.532   3.646  1.0786 -0.4120 -0.6558
10473TIP3    H252835   0.318   1.565   3.785 -0.7407  0.0728 -0.0897
10474TIP3   OH252836   6.515   1.955  16.931  0.2141 -0.7869 -0.3531
10474TIP3    H152837   6.544   2.023  16.869 -3.3462  2.0694  0.7500
10474TIP3    H252838   6.431   1.925  16.895 -0.4087 -1.3344  1.4740
10475TIP3   OH252839   3.093   1.851  14.100 -0.2587 -0.5686  0.3674
10475TIP3    H152840   3.034   1.897  14.041 -0.0325 -0.7049  0.0351
10475TIP3    H252841   3.035   1.809  14.164 -0.4330  0.9999  1.2903
10476TIP3   OH252842   1.609   0.407  14.716 -0.1154 -0.3838 -0.1731
10476TIP3    H152843   1.620   0.502  14.720  0.4684 -0.4798  1.4562
10476TIP3    H252844   1.698   0.373  14.731 -0.5974 -1.1689  1.0743
10477TIP3   OH252845   1.848   4.720  15.440  0.3013  0.2566  0.1808
10477TIP3    H152846   1.767   4.683  15.403  0.2725 -0.0384  0.5323
10477TIP3    H252847   1.885   4.772  15.369 -0.2189  0.4244  0.0267
10478TIP3   OH252848   3.999   6.401   6.273  0.5252  0.0095  0.4363
10478TIP3    H152849   4.024   6.486   6.309  1.0738 -0.1150  0.3559
10478TIP3    H252850   4.061   6.339   6.312  0.8809 -0.1858 -0.4074
10479TIP3   OH252851   2.830   3.505  12.505  0.3624  0.5696  0.0723
10479TIP3    H152852   2.877   3.425  12.530  0.4282  0.8177  0.7672
10479TIP3    H252853   2.898   3.562  12.469  0.5356  0.7917  0.7449
10480TIP3   OH252854   4.173   6.631   6.354  0.0865 -0.5067 -0.3307
10480TIP3    H152855   4.198   6.687   6.281 -0.4828 -0.8116 -0.7596
10480TIP3    H252856   4.116   6.686   6.408 -0.0916 -0.5175 -0.5061
10481TIP3   OH252857   4.324   5.398   5.206 -0.1996 -0.0844 -0.4958
10481TIP3    H152858   4.390   5.354   5.259  0.0022  1.6769  0.7933
10481TIP3    H252859   4.362   5.404   5.118  0.9547  0.0485  0.0039
10482TIP3   OH252860   4.138   5.662  13.077  0.0799  1.0425  0.0344
10482TIP3    H152861   4.094   5.730  13.026  1.5186  1.7749 -0.2695
10482TIP3    H252862   4.187   5.612  13.012 -1.3435 -0.6313  0.1881
10483TIP3   OH252863   0.260   6.130   4.257  0.2289 -0.0639  0.2678
10483TIP3    H152864   0.173   6.162   4.280  0.3014 -0.1079  0.6154
10483TIP3    H252865   0.288   6.186   4.185  0.1245  0.2946  0.5020
10484TIP3   OH252866   4.252   2.955   0.030  0.3536 -0.4745  0.4658
10484TIP3    H152867   4.190   3.002  -0.026  0.1357 -1.2315  0.0621
10484TIP3    H252868   4.265   3.013   0.105  0.6756  0.5760 -0.3737
10485TIP3   OH252869   0.729   5.465   3.988  0.5093 -0.6876 -0.6363
10485TIP3    H152870   0.784   5.391   3.963  1.1004  0.3418 -2.5963
10485TIP3    H252871   0.789   5.528   4.028  0.3485 -0.5154 -0.6607
10486TIP3   OH252872   0.020   5.858   5.195  0.3194  0.0295 -1.0111
10486TIP3    H152873   0.078   5.926   5.163 -0.1019  1.4752  1.0962
10486TIP3    H252874  -0.045   5.905   5.248  0.8815 -2.0800  1.7732
10487TIP3   OH252875   2.267   4.404   2.498  0.3517  0.2793 -0.3906
10487TIP3    H152876   2.284   4.351   2.420  0.4066 -3.9757  2.2010
10487TIP3    H252877   2.172   4.405   2.507  0.3944 -1.9236  0.9812
10488TIP3   OH252878   5.552   3.455   4.197  0.0424 -0.2794 -0.0814
10488TIP3    H152879   5.503   3.445   4.279 -0.8313  2.4322 -0.1793
10488TIP3    H252880   5.625   3.394   4.206 -0.5180 -0.7222  2.3120
10489TIP3   OH252881   6.258   2.555   4.247  0.2926 -0.3436  0.2569
10489TIP3    H152882   6.260   2.614   4.322  1.2493 -1.8333  1.4462
10489TIP3    H252883   6.165   2.537   4.234  0.1687 -0.9247  1.7996
10490TIP3   OH252884   0.946   1.191  14.951  0.1056 -0.1992 -0.3563
10490TIP3    H152885   0.861   1.234  14.940 -0.6110 -1.6191 -0.5666
10490TIP3    H252886   0.944   1.118  14.890  1.6942  0.0198 -0.7264
10491TIP3   OH252887   3.308   3.569   1.332  0.3156  0.1002  0.2677
10491TIP3    H152888   3.314   3.612   1.417 -0.9693  2.3279 -0.6929
10491TIP3    H252889   3.284   3.478   1.352  0.2219  0.5313  2.2556
10492TIP3   OH252890   0.489   1.920  15.169 -0.0369  0.4300 -0.1589
10492TIP3    H152891   0.441   2.002  15.158 -0.2085  0.2153 -1.0353
10492TIP3    H252892   0.490   1.881  15.082 -0.6622 -0.8898  0.4109
10493TIP3   OH252893   5.931   3.659   2.441  0.1883  0.1859 -0.4555
10493TIP3    H152894   5.996   3.659   2.371 -0.1410 -1.0919 -0.7826
10493TIP3    H252895   5.983   3.658   2.522  0.5680  1.6480 -0.6540
10494TIP3   OH252896   3.733   5.211  14.947  0.0340  0.0519 -0.5970
10494TIP3    H152897   3.784   5.289  14.928 -0.6073  0.0421 -2.6323
10494TIP3    H252898   3.663   5.241  15.005  1.7143  0.2519  1.3943
10495TIP3   OH252899   2.221   1.767   3.725 -0.8049  0.1559 -0.2329
10495TIP3    H152900   2.241   1.678   3.697  2.4376  1.5617 -3.2946
10495TIP3    H252901   2.276   1.782   3.802 -0.2119 -0.0931 -0.6003
10496TIP3   OH252902   1.613   1.774  16.309 -0.7900 -0.3736  0.3278
10496TIP3    H152903   1.695   1.728  16.292  0.2732  0.8064  1.9743
10496TIP3    H252904   1.636   1.867  16.305 -1.7290 -0.0147  2.1130
10497TIP3   OH252905   5.286   2.550  16.803  0.2409 -0.6296  0.2759
10497TIP3    H152906   5.275   2.455  16.801  1.5699 -0.8716  2.2120
10497TIP3    H252907   5.377   2.564  16.778 -0.2923  0.2862 -1.3414
10498TIP3   OH252908   0.419   4.354  17.220  0.4029 -0.1394 -0.5019
10498TIP3    H152909   0.412   4.261  17.238  1.1376 -0.2133 -0.5523
10498TIP3    H252910   0.500   4.363  17.170  0.3300  0.5199 -0.5154
10499TIP3   OH252911   2.255   5.301   1.660  0.0370  0.1344  0.3601
10499TIP3    H152912   2.344   5.277   1.634  0.4779  0.5393  1.4559
10499TIP3    H252913   2.214   5.218   1.683 -0.7723 -0.4252 -2.6906
10500TIP3   OH252914   6.215   3.783   4.424 -0.0295  0.1391  0.3613
10500TIP3    H152915   6.234   3.740   4.508  1.7949 -2.9321 -1.4460
10500TIP3    H252916   6.120   3.771   4.413 -0.0572 -0.7512  1.3289
10501TIP3   OH252917   1.438   4.944  13.448  0.0096  0.2446  0.4601
10501TIP3    H152918   1.494   5.020  13.460  1.2700 -0.8656  2.2543
10501TIP3    H252919   1.397   4.932  13.534 -1.4026 -0.1726 -0.2572
10502TIP3   OH252920   2.427   0.104  11.917 -0.1403 -0.1382  0.4017
10502TIP3    H152921   2.349   0.062  11.953  0.0899  0.3341  1.5047
10502TIP3    H252922   2.397   0.191  11.891  0.0907  0.1837  1.1872
10503TIP3   OH252923   1.962   0.307  13.571  0.2495 -0.0796 -0.8075
10503TIP3    H152924   1.952   0.389  13.619  0.5062 -1.2062  1.3168
10503TIP3    H252925   2.052   0.308  13.539 -0.0239  0.8354 -1.5761
10504TIP3   OH252926   3.801   2.755  17.125 -0.2617  0.7993 -0.1211
10504TIP3    H152927   3.784   2.775  17.217  1.4936 -0.3752  0.5090
10504TIP3    H252928   3.744   2.680  17.106  0.4659  0.0753  0.4797
10505TIP3   OH252929   3.538   1.548  15.797  0.2401 -0.2798 -0.0036
10505TIP3    H152930   3.624   1.513  15.772  0.5246  0.0185  0.5211
10505TIP3    H252931   3.558   1.631  15.840 -0.3201 -0.1739  0.0572
10506TIP3   OH252932   3.052   5.478   5.418 -0.5165 -0.1655 -0.6178
10506TIP3    H152933   2.981   5.520   5.370 -2.1067 -2.1281 -0.1478
10506TIP3    H252934   3.110   5.445   5.350 -0.5410  0.6625 -1.0485
10507TIP3   OH252935   6.035   4.025  14.539  0.2507  0.3944  0.0960
10507TIP3    H152936   5.976   4.026  14.464  0.4025  3.1206 -0.0817
10507TIP3    H252937   6.120   3.998  14.502 -0.0652  0.0040 -0.3579
10508TIP3   OH252938   5.806   4.926  14.181  0.0407 -0.0363  0.0739
10508TIP3    H152939   5.734   4.870  14.155 -0.0919  1.1779 -2.4792
10508TIP3    H252940   5.879   4.900  14.124  0.3430  1.4944 -0.2956
10509TIP3   OH252941   4.912   5.378  15.888 -0.1286 -0.6378 -0.2462
10509TIP3    H152942   4.929   5.295  15.844  0.6300 -0.8703  0.4701
10509TIP3    H252943   4.964   5.375  15.968  0.2603  0.7039 -0.4105
10510TIP3   OH252944   6.445   4.273   4.755 -0.1354  0.1279  0.3100
10510TIP3    H152945   6.365   4.259   4.805  0.3414  0.8002  1.2955
10510TIP3    H252946   6.513   4.288   4.821  0.6011  0.5913 -0.5220
10511TIP3   OH252947   4.190   1.946   2.472  0.4071  0.1422 -0.3539
10511TIP3    H152948   4.127   1.874   2.468 -0.4171  0.8250  0.3158
10511TIP3    H252949   4.148   2.017   2.424  0.9176  0.4217 -0.3911
10512TIP3   OH252950   3.062   2.407   4.552 -0.5882 -0.0247  0.7500
10512TIP3    H152951   3.092   2.490   4.515  0.2768 -0.3713  0.6494
10512TIP3    H252952   3.065   2.346   4.479 -0.5853 -0.2962  0.9758
10513TIP3   OH252953   0.744   1.324   2.715  0.2178  0.4713  0.1502
10513TIP3    H152954   0.804   1.349   2.785  1.2514  2.0187 -1.2117
10513TIP3    H252955   0.684   1.399   2.708  0.9302  0.9231 -1.4367
10514TIP3   OH252956   3.028   0.374   6.244 -0.5486  0.2155  0.2167
10514TIP3    H152957   3.096   0.407   6.303 -0.2608  1.1533 -0.5914
10514TIP3    H252958   3.027   0.280   6.258  2.1033 -0.0683 -0.9006
10515TIP3   OH252959   5.062   2.043   1.246  0.7604 -0.3681  0.1365
10515TIP3    H152960   5.054   1.963   1.298 -0.9559  0.0183  0.5269
10515TIP3    H252961   4.978   2.050   1.200  2.1193 -0.5938 -2.6033
10516TIP3   OH252962   1.052   2.502  14.556  0.0815 -0.0691 -0.0793
10516TIP3    H152963   1.072   2.455  14.638  2.3259 -0.3611 -0.7082
10516TIP3    H252964   0.972   2.550  14.574  0.2817 -0.4753  2.1616
10517TIP3   OH252965   6.002   5.410   5.810  0.0253  0.5660  0.0071
10517TIP3    H152966   5.986   5.463   5.732  0.4303 -0.6408 -0.9244
10517TIP3    H252967   6.081   5.448   5.849  0.8244  0.1399 -1.1345
10518TIP3   OH252968   2.470   1.339  15.788 -0.3136  0.4081  0.4477
10518TIP3    H152969   2.440   1.392  15.862  1.9754  2.1540  0.2624
10518TIP3    H252970   2.485   1.402  15.718 -0.4096 -0.9367 -0.8250
10519TIP3   OH252971   0.085   1.174  13.836 -0.5027 -0.0140 -0.0382
10519TIP3    H152972   0.123   1.128  13.911 -1.8489 -0.9977  0.0746
10519TIP3    H252973   0.122   1.130  13.760 -0.4137 -0.0984  0.0535
10520TIP3   OH252974   0.055   1.732   6.103 -0.5296 -0.0713  0.2655
10520TIP3    H152975  -0.016   1.670   6.088  0.7771 -1.1606 -1.8749
10520TIP3    H252976   0.077   1.721   6.196 -3.1239  0.3421  0.9900
10521TIP3   OH252977   2.590   4.756  12.581 -0.4878 -0.2894  0.0352
10521TIP3    H152978   2.682   4.740  12.563 -0.1231  0.0514  1.4693
10521TIP3    H252979   2.552   4.779  12.496  1.3156  2.1904 -0.1993
10522TIP3   OH252980   5.349   1.938   3.427 -0.1822 -0.0454 -0.4957
10522TIP3    H152981   5.255   1.952   3.439 -0.3384 -1.4488  0.1083
10522TIP3    H252982   5.360   1.843   3.434  1.1592  0.0132 -1.4796
10523TIP3   OH252983   0.177   1.937   0.588 -0.2335  0.2468 -0.6375
10523TIP3    H152984   0.254   1.881   0.578  0.0453  0.5627 -0.2979
10523TIP3    H252985   0.103   1.880   0.568  0.0354 -0.2802 -0.1696
10524TIP3   OH252986   2.563   2.953  11.516 -0.1504 -0.3148 -0.1675
10524TIP3    H152987   2.556   2.859  11.535  1.7387 -0.7352 -1.3303
10524TIP3    H252988   2.655   2.974  11.532  0.0097  0.7853 -2.2574
10525TIP3   OH252989   0.658   4.917   5.580  0.3391  0.4847 -0.4591
10525TIP3    H152990   0.611   4.834   5.584  3.1527 -1.2449 -0.5316
10525TIP3    H252991   0.589   4.983   5.579 -2.0992 -1.8472 -2.0734
10526TIP3   OH252992   5.739   2.232   1.294  0.0511  0.6838  0.5119
10526TIP3    H152993   5.744   2.310   1.239 -0.1411  0.6116  0.3901
10526TIP3    H252994   5.815   2.238   1.352  1.0357  0.0628 -0.6748
10527TIP3   OH252995   6.326   5.579   0.158  0.2739 -0.5003 -0.4565
10527TIP3    H152996   6.403   5.525   0.172  0.3878 -0.2610 -0.1363
10527TIP3    H252997   6.267   5.525   0.106  1.2110 -0.1889 -1.9133
10528TIP3   OH252998   3.086   6.254   0.844  1.0198  0.0481  0.0535
10528TIP3    H152999   3.125   6.340   0.861  3.7523 -0.6026 -2.1268
10528TIP3    H253000   3.160   6.199   0.819 -1.0152 -2.0782 -1.7250
10529TIP3   OH253001   5.154   3.887   0.336  0.0664  0.0102  0.9529
10529TIP3    H153002   5.060   3.877   0.316 -0.1800  2.0441  0.8839
10529TIP3    H253003   5.177   3.972   0.298  1.6891  0.0274  1.9083
10530TIP3   OH253004   1.436   4.995   3.178  0.4737 -0.8541  0.8665
10530TIP3    H153005   1.414   4.999   3.271 -3.6070 -0.4637  0.0869
10530TIP3    H253006   1.460   5.085   3.155 -2.9954  0.2245  0.8275
10531TIP3   OH253007   3.404   4.991  12.041  0.2877 -1.6393 -0.1111
10531TIP3    H153008   3.498   4.985  12.025  0.4587 -1.6185  0.8309
10531TIP3    H253009   3.364   4.965  11.958  1.1227 -1.4108 -0.5963
10532TIP3   OH253010   6.158   3.586   5.096 -0.2984  0.1201  0.1730
10532TIP3    H153011   6.200   3.660   5.050  1.1153 -1.1916 -0.7541
10532TIP3    H253012   6.068   3.615   5.110  0.5510  2.6053  1.1686
10533TIP3   OH253013   2.428   0.331  15.826 -0.8761  0.2038  0.0491
10533TIP3    H153014   2.398   0.259  15.770  0.3959  0.2102 -0.6749
10533TIP3    H253015   2.447   0.403  15.766  0.6373  0.1740  0.4461
10534TIP3   OH253016   1.010   2.618   4.185 -0.4395 -0.0818 -0.1185
10534TIP3    H153017   1.009   2.548   4.250 -0.9720  1.5665  1.7461
10534TIP3    H253018   1.098   2.653   4.190 -0.4871  0.0560 -0.2578
10535TIP3   OH253019   1.225   4.700  12.685  0.7156  0.2425 -0.2789
10535TIP3    H153020   1.275   4.652  12.751  1.8461  0.2066 -1.1414
10535TIP3    H253021   1.251   4.791  12.696 -1.4276  0.7669  1.3545
10536TIP3   OH253022   0.299   4.824  15.621 -0.4028 -0.7685  0.1267
10536TIP3    H153023   0.365   4.869  15.675 -1.0054  1.3824 -0.8378
10536TIP3    H253024   0.223   4.816  15.679 -0.8439  0.9859 -0.1701
10537TIP3   OH253025   4.712   2.674  12.093  0.8051  0.7508  0.1079
10537TIP3    H153026   4.727   2.744  12.157  2.2614  0.4660  0.1227
10537TIP3    H253027   4.633   2.630  12.123 -0.8452  3.0875 -0.5541
10538TIP3   OH253028   2.598   0.965   2.632 -0.1624 -0.0103 -0.3702
10538TIP3    H153029   2.508   0.946   2.656 -0.0069  0.4337  0.6235
10538TIP3    H253030   2.610   0.922   2.547 -1.9841  1.8194 -1.6555
10539TIP3   OH253031   1.952   0.655  16.860  0.0289 -0.3998  0.0237
10539TIP3    H153032   2.003   0.736  16.854 -0.4033 -0.1889 -0.8484
10539TIP3    H253033   2.013   0.591  16.897  0.9041 -0.1256 -0.9256
10540TIP3   OH253034   2.486   0.094  13.859  0.3586 -0.5396 -0.3123
10540TIP3    H153035   2.429   0.019  13.877  0.4707 -0.7168 -0.6704
10540TIP3    H253036   2.536   0.106  13.939  0.1017 -0.6388 -0.1375
10541TIP3   OH253037   4.806   4.577  11.927  0.1977  0.0971  0.3551
10541TIP3    H153038   4.749   4.573  11.850 -1.6111 -1.5231  1.6926
10541TIP3    H253039   4.865   4.651  11.909  0.4749 -0.7462 -2.9592
10542TIP3   OH253040   1.035   4.510  17.041  0.3024 -0.2212 -0.3460
10542TIP3    H153041   0.974   4.523  17.114  0.2162  0.7884 -0.5874
10542TIP3    H253042   1.056   4.599  17.012  0.2814 -0.6177 -1.5991
10543TIP3   OH253043   5.466   3.895  13.699  0.2705  0.5204  0.0734
10543TIP3    H153044   5.372   3.903  13.679  0.5148  1.5288 -0.7804
10543TIP3    H253045   5.490   3.809  13.666 -0.4189  0.0969  0.6243
10544TIP3   OH253046   2.997   0.753  12.481  0.3839  0.2297  0.6025
10544TIP3    H153047   3.021   0.846  12.473  0.6367  0.3018  1.8942
10544TIP3    H253048   2.909   0.748  12.444  0.9170  0.6905 -0.7833
10545TIP3   OH253049   4.341   2.481   4.790  0.0121 -0.2483 -0.0366
10545TIP3    H153050   4.361   2.530   4.870 -2.3829  1.7851 -0.5737
10545TIP3    H253051   4.406   2.411   4.789  2.1575  1.5099  2.0300
10546TIP3   OH253052   0.437   3.512  14.863  0.3979  0.1612 -0.0932
10546TIP3    H153053   0.470   3.539  14.777  0.2214  0.3220 -0.1093
10546TIP3    H253054   0.358   3.563  14.876  1.1327  1.1293  0.7520
10547TIP3   OH253055   2.885   0.270   6.587  0.1735 -0.1560 -0.0179
10547TIP3    H153056   2.860   0.323   6.512 -1.2945  0.2972  0.7618
10547TIP3    H253057   2.857   0.181   6.563  2.0530 -0.5282 -1.0511
10548TIP3   OH253058   2.508   1.705   1.849  0.0126  0.1068  0.4445
10548TIP3    H153059   2.577   1.762   1.817  0.8261 -1.6067 -1.0119
10548TIP3    H253060   2.433   1.723   1.792  0.5448 -0.8453 -0.5990
10549TIP3   OH253061   6.046   0.774   4.619  0.1546 -0.0326 -0.1574
10549TIP3    H153062   6.051   0.774   4.715  1.2184  1.7433 -0.1706
10549TIP3    H253063   6.087   0.692   4.593 -1.2546 -1.1468  0.8998
10550TIP3   OH253064   6.426   3.433  14.193  0.7061 -0.4345  0.6760
10550TIP3    H153065   6.424   3.426  14.097 -0.3990 -1.8498  0.7730
10550TIP3    H253066   6.420   3.527  14.210 -3.1059 -0.2766 -0.6200
10551TIP3   OH253067   3.522   0.096  11.568  0.2249 -0.0759 -0.3305
10551TIP3    H153068   3.446   0.124  11.516 -1.1104 -2.1905  0.3399
10551TIP3    H253069   3.523   0.156  11.643 -1.2296 -0.4277 -0.0000
10552TIP3   OH253070   5.566   5.550   5.366 -0.3856 -0.4566 -0.5094
10552TIP3    H153071   5.601   5.639   5.364 -1.1373 -0.1285  0.3201
10552TIP3    H253072   5.548   5.530   5.274 -1.6338  0.8473 -0.5943
10553TIP3   OH253073   1.611   3.062   5.896  0.0468  0.3824  0.5699
10553TIP3    H153074   1.689   3.021   5.858 -0.2672  1.0347 -0.8396
10553TIP3    H253075   1.541   3.041   5.834 -0.6320  0.8812  1.1619
10554TIP3   OH253076   3.685   3.827  16.925  0.1550 -0.5138  0.0342
10554TIP3    H153077   3.691   3.922  16.937  0.7952 -0.4874 -0.4325
10554TIP3    H253078   3.612   3.815  16.866  0.3171 -0.2774 -0.2204
10555TIP3   OH253079   4.285   6.551  13.351  0.2308 -0.6472 -0.7010
10555TIP3    H153080   4.278   6.560  13.446  0.0128  3.0330 -0.9161
10555TIP3    H253081   4.369   6.506  13.338  1.3657  0.7417  1.2403
10556TIP3   OH253082   2.885   3.980   5.743  0.0119  0.7090  0.2200
10556TIP3    H153083   2.927   3.951   5.824  1.1132  0.6339 -0.3599
10556TIP3    H253084   2.819   3.912   5.724 -0.7017  1.0483  1.3646
10557TIP3   OH253085   0.684   5.798   3.686 -0.2609 -0.3099  0.0644
10557TIP3    H153086   0.664   5.714   3.643 -1.6288  0.3503 -0.6553
10557TIP3    H253087   0.600   5.827   3.721  0.1027  0.9962 -0.1117
10558TIP3   OH253088   2.828   0.529   1.531  0.2257 -0.0464  0.9237
10558TIP3    H153089   2.913   0.556   1.566  0.6897  1.0479 -0.9105
10558TIP3    H253090   2.785   0.611   1.505  0.4602 -0.7738 -2.1412
10559TIP3   OH253091   6.763   2.012  15.427 -0.1081 -0.0348 -0.5879
10559TIP3    H153092   6.733   2.102  15.411  0.0395  0.0082 -0.6301
10559TIP3    H253093   6.744   1.996  15.519  0.1696  0.1610 -0.4926
10560TIP3   OH253094   2.642   1.183  12.383 -0.3691  0.0026 -0.2820
10560TIP3    H153095   2.686   1.142  12.308 -0.9013 -0.0761 -0.5536
10560TIP3    H253096   2.557   1.139  12.388 -1.9940  2.6866 -2.1031
10561TIP3   OH253097   2.577   3.655  16.295 -0.1136  0.3029  0.1324
10561TIP3    H153098   2.533   3.714  16.233 -0.4490  0.6428  0.6878
10561TIP3    H253099   2.636   3.711  16.344 -0.1180  0.1023  0.3692
10562TIP3   OH253100   0.059   1.959   0.055 -0.1506  0.0252 -0.2671
10562TIP3    H153101   0.103   1.993  -0.023 -0.2470 -2.8105 -1.6788
10562TIP3    H253102  -0.021   1.919   0.022 -1.6288  1.1285  1.7157
10563TIP3   OH253103   2.158   6.063  11.251 -0.1091  0.2261 -0.1203
10563TIP3    H153104   2.233   6.008  11.275 -1.2052 -1.9625 -1.4058
10563TIP3    H253105   2.083   6.020  11.292 -0.9338  1.2243 -0.5362
10564TIP3   OH253106   5.784   4.789  12.086  1.0431 -0.2745 -0.0215
10564TIP3    H153107   5.819   4.877  12.092 -1.6836  0.9510 -0.6123
10564TIP3    H253108   5.772   4.762  12.177 -0.7373  1.1609  0.2190
10565TIP3   OH253109   1.031   1.748  12.741  0.7253 -0.0105 -0.4312
10565TIP3    H153110   0.969   1.689  12.698  0.5794  1.6850 -2.6994
10565TIP3    H253111   1.102   1.758  12.678  1.9178  0.4032  0.9161
10566TIP3   OH253112   4.839   0.098  12.410  0.0393  0.1061 -0.1482
10566TIP3    H153113   4.912   0.150  12.442 -1.4332  0.9087  2.1196
10566TIP3    H253114   4.871   0.007  12.412  0.6703  0.3336  1.8223
10567TIP3   OH253115   0.352   5.030   2.398  0.4612  0.2452 -0.2912
10567TIP3    H153116   0.386   4.941   2.399 -1.5740 -0.5808  0.0301
10567TIP3    H253117   0.379   5.068   2.482  1.4862  0.0144 -0.5061
10568TIP3   OH253118   5.331   4.597  15.944 -0.1485  0.0005 -0.6255
10568TIP3    H153119   5.407   4.547  15.915  1.1357  0.5177  1.6297
10568TIP3    H253120   5.344   4.608  16.038 -3.7101 -1.0440  0.1488
10569TIP3   OH253121   4.182   1.785  16.543  0.1613 -0.3403  0.3866
10569TIP3    H153122   4.114   1.834  16.498  0.4617 -0.8232 -0.6356
10569TIP3    H253123   4.264   1.820  16.507  0.3782 -1.6798 -0.5016
10570TIP3   OH253124   1.448   5.597   1.193 -0.2283  0.8156  0.2411
10570TIP3    H153125   1.387   5.548   1.248  0.2736  1.9390  1.8903
10570TIP3    H253126   1.516   5.533   1.170 -2.0769 -0.5266 -1.8594
10571TIP3   OH253127   1.521   0.013   0.955 -0.2118 -0.1036 -0.5452
10571TIP3    H153128   1.589   0.039   1.016  0.4896  2.3021 -2.1991
10571TIP3    H253129   1.439   0.040   0.997  0.2156  1.0234 -0.4111
10572TIP3   OH253130   2.920   3.200   1.563  0.1792  0.2840 -0.1778
10572TIP3    H153131   2.968   3.128   1.605 -1.0358  0.2631  1.2440
10572TIP3    H253132   2.854   3.156   1.509 -0.2472  0.3109  0.3120
10573TIP3   OH253133   5.108   2.438  12.814  0.2069  0.3065  0.6309
10573TIP3    H153134   5.047   2.376  12.772 -0.5653  1.5188 -0.1070
10573TIP3    H253135   5.089   2.430  12.907  0.0808 -0.5223  0.5479
10574TIP3   OH253136   2.497   1.956  12.523 -0.4326 -0.0342 -0.4231
10574TIP3    H153137   2.544   2.040  12.528 -1.2535  0.3705  3.2426
10574TIP3    H253138   2.411   1.979  12.488 -0.3800  0.4807 -0.2181
10575TIP3   OH253139   4.954   2.620   0.909  0.0671  0.6695 -0.2739
10575TIP3    H153140   4.911   2.691   0.861 -0.1125  1.8384  1.5364
10575TIP3    H253141   5.032   2.600   0.857 -0.4295  1.4560 -1.3659
10576TIP3   OH253142   1.246   4.631  13.874 -0.4595 -0.0876 -0.0021
10576TIP3    H153143   1.264   4.613  13.966  0.0352  3.0373  0.6471
10576TIP3    H253144   1.162   4.590  13.857 -0.5751 -0.7146  1.8698
10577TIP3   OH253145   4.355   4.679  12.610  0.4335 -0.3489  0.3252
10577TIP3    H153146   4.283   4.711  12.665  0.3693 -0.0043  0.0498
10577TIP3    H253147   4.318   4.606  12.561  0.2002 -0.0191  0.0090
10578TIP3   OH253148   2.112   5.412   0.458  0.1248 -0.4489  0.4100
10578TIP3    H153149   2.047   5.414   0.387 -0.9709 -1.4070  1.3294
10578TIP3    H253150   2.130   5.504   0.477 -4.2956  0.1426  3.0028
10579TIP3   OH253151   6.672   2.895   3.634  0.2050 -0.0133  0.6350
10579TIP3    H153152   6.758   2.872   3.597  0.8342 -0.4654  2.3129
10579TIP3    H253153   6.634   2.811   3.660 -2.1310 -0.2279 -2.7422
10580TIP3   OH253154   3.807   6.670   4.779 -0.5903  0.6975  0.1142
10580TIP3    H153155   3.770   6.728   4.713  0.0000  0.4514 -0.4409
10580TIP3    H253156   3.777   6.583   4.754 -0.8253  0.6682  0.4933
10581TIP3   OH253157   6.268   5.737   3.516  0.7486 -0.2890 -0.3037
10581TIP3    H153158   6.199   5.790   3.556 -0.4477 -1.0805 -1.2439
10581TIP3    H253159   6.347   5.790   3.524  0.1683  0.3842  1.3642
10582TIP3   OH253160   4.770   4.848  16.427  1.0835 -0.1648 -0.1369
10582TIP3    H153161   4.772   4.760  16.466  0.2487 -0.6639 -1.1574
10582TIP3    H253162   4.747   4.833  16.335  0.0037  1.1902 -0.1189
10583TIP3   OH253163   1.759   1.038   6.080  0.0061  0.1020 -0.2050
10583TIP3    H153164   1.779   0.973   6.014  0.2599  1.1751 -1.2181
10583TIP3    H253165   1.825   1.106   6.068  0.2831  0.1741  1.3949
10584TIP3   OH253166   1.187   0.063  13.758  0.2390 -0.0305 -0.2797
10584TIP3    H153167   1.165   0.046  13.666  0.9774 -0.0597 -0.4535
10584TIP3    H253168   1.273   0.105  13.755  0.1597  0.1951  0.3869
10585TIP3   OH253169   6.383   1.816   3.796 -0.2070 -0.1634 -0.5869
10585TIP3    H153170   6.288   1.809   3.808 -0.5842  2.5431 -1.3870
10585TIP3    H253171   6.419   1.792   3.881 -1.4817 -2.4142 -0.5994
10586TIP3   OH253172   2.299   0.198   1.894 -0.4955 -0.2672 -0.3381
10586TIP3    H153173   2.264   0.122   1.846 -0.4878 -0.1099 -0.5933
10586TIP3    H253174   2.394   0.189   1.886 -0.4852 -0.4554 -0.0168
10587TIP3   OH253175   4.626   2.786   0.992  0.1204  0.3844  0.1006
10587TIP3    H153176   4.710   2.807   0.952  0.3699 -0.1121  0.3459
10587TIP3    H253177   4.575   2.866   0.986  0.6703  0.7363  0.0857
10588TIP3   OH253178   4.138   4.613  15.265 -0.3892 -0.2508  0.1077
10588TIP3    H153179   4.083   4.640  15.338 -0.2809  0.6842 -0.1405
10588TIP3    H253180   4.226   4.607  15.303 -0.8159 -3.4183  0.9277
10589TIP3   OH253181   5.655   3.350   2.007  0.1105 -0.3864  0.3822
10589TIP3    H153182   5.576   3.365   2.059 -1.0646 -2.7464 -0.5731
10589TIP3    H253183   5.707   3.289   2.060  1.5650  1.4226  1.1693
10590TIP3   OH253184   0.399   6.386  14.040 -0.6196 -0.0712  0.5436
10590TIP3    H153185   0.489   6.410  14.064  0.7966 -2.1873 -1.9833
10590TIP3    H253186   0.394   6.292  14.059 -2.3841  0.0533  0.8052
10591TIP3   OH253187   0.609   1.031  11.957 -0.0463 -0.2634 -0.3305
10591TIP3    H153188   0.671   1.014  11.887 -0.8225  0.0698 -1.1171
10591TIP3    H253189   0.660   1.076  12.025  0.4962  0.2911 -1.0970
10592TIP3   OH253190   5.959   4.172   5.029 -0.0262  0.1636 -0.0019
10592TIP3    H153191   5.915   4.256   5.038 -0.3947 -0.0062 -0.1908
10592TIP3    H253192   6.013   4.165   5.107 -0.2473  0.4259  0.1785
10593TIP3   OH253193   1.735   5.580  12.694  0.3370  0.0959 -0.0439
10593TIP3    H153194   1.684   5.503  12.722 -1.4385  1.2912  0.1594
10593TIP3    H253195   1.765   5.620  12.775 -2.1491  1.7997  0.1353
10594TIP3   OH253196   3.834   5.688  12.305  0.1062 -0.5092  0.6554
10594TIP3    H153197   3.916   5.710  12.259  0.6321 -0.8487  1.4109
10594TIP3    H253198   3.769   5.682  12.235  0.3314  1.5274  0.2080
10595TIP3   OH253199   2.045   4.585   1.741  0.6575 -0.3394 -0.1245
10595TIP3    H153200   2.030   4.491   1.752  1.1885 -0.5455 -1.0514
10595TIP3    H253201   2.075   4.615   1.827  2.0905 -1.3446 -0.2541
10596TIP3   OH253202   5.072   1.195   2.172 -0.3374  0.2635  0.1729
10596TIP3    H153203   5.117   1.175   2.254 -1.4229  0.2336  0.7705
10596TIP3    H253204   5.036   1.282   2.184 -0.9497  0.0513 -0.0735
10597TIP3   OH253205   4.737   2.225  14.502 -0.3492 -0.6326  0.5617
10597TIP3    H153206   4.681   2.301  14.489  1.8938  1.3205  1.7213
10597TIP3    H253207   4.732   2.207  14.596  1.1938 -0.1815  0.7557
10598TIP3   OH253208   6.493   4.173  10.846  0.3728 -0.5331  0.3739
10598TIP3    H153209   6.568   4.166  10.787 -2.8489 -3.1294 -4.0894
10598TIP3    H253210   6.504   4.099  10.906  1.9785 -0.0112  0.7857
10599TIP3   OH253211   2.539   4.242  11.692  0.8872  0.2950  0.1657
10599TIP3    H153212   2.531   4.204  11.605 -1.7009 -2.8484  1.5823
10599TIP3    H253213   2.630   4.227  11.717  0.8167 -1.9915 -0.7234
10600TIP3   OH253214   3.438   6.216  14.094 -0.0249 -0.1737  0.1171
10600TIP3    H153215   3.435   6.311  14.103  0.8623 -0.2079  1.0013
10600TIP3    H253216   3.389   6.183  14.170  0.4361 -0.4226  0.3104
10601TIP3   OH253217   4.357   5.771  14.498  0.0881  0.1189  0.3874
10601TIP3    H153218   4.356   5.734  14.586  1.2401 -0.1084  0.3206
10601TIP3    H253219   4.289   5.838  14.499 -0.2678 -0.2509  1.2854
10602TIP3   OH253220   5.474   6.517  14.380 -1.0352  0.1705 -0.3878
10602TIP3    H153221   5.453   6.517  14.473 -0.3732 -0.3007 -0.2354
10602TIP3    H253222   5.497   6.607  14.360 -0.5665  0.1455  0.0422
10603TIP3   OH253223   3.739   6.218   2.024  0.0769  0.8056 -0.0801
10603TIP3    H153224   3.674   6.150   2.006  1.0656  0.0292 -0.9475
10603TIP3    H253225   3.739   6.227   2.119 -0.8609  0.3874 -0.0279
10604TIP3   OH253226   5.255   6.662   5.809  0.6287  0.2347 -0.0307
10604TIP3    H153227   5.271   6.655   5.715 -0.5523  1.6275 -0.3771
10604TIP3    H253228   5.276   6.752   5.830 -2.7736  1.1326  0.1785
10605TIP3   OH253229   6.234   1.826  16.373  0.6672  0.2932  0.0920
10605TIP3    H153230   6.231   1.916  16.342  0.1185  0.8045  1.5594
10605TIP3    H253231   6.217   1.773  16.295  1.9373  1.3918 -0.9696
10606TIP3   OH253232   3.322   3.764  12.598  0.3345  0.3843 -0.7475
10606TIP3    H153233   3.410   3.771  12.635 -0.3880  1.3079  0.8817
10606TIP3    H253234   3.336   3.758  12.504  2.1585 -0.0376 -0.4807
10607TIP3   OH253235   4.958   2.185  12.471 -0.2979 -0.0804 -0.3046
10607TIP3    H153236   5.002   2.136  12.403  1.7126  1.9862 -0.6017
10607TIP3    H253237   4.865   2.179  12.449  0.2136 -0.4291 -2.5732
10608TIP3   OH253238   2.119   3.742   1.819 -0.3860 -0.2084 -0.2012
10608TIP3    H153239   2.115   3.816   1.760  0.0627  0.7471  0.9160
10608TIP3    H253240   2.087   3.776   1.903 -0.6284 -1.4064  0.2174
10609TIP3   OH253241   3.690   6.708  14.497 -0.5298  0.0467  0.1084
10609TIP3    H153242   3.618   6.733  14.438 -1.2254 -2.2826 -0.1191
10609TIP3    H253243   3.760   6.770  14.475 -0.5881 -0.9087 -3.5506
10610TIP3   OH253244   3.135   0.981  14.632  0.2892  0.2570 -0.1229
10610TIP3    H153245   3.181   1.023  14.705 -0.6275 -0.3607  0.8487
10610TIP3    H253246   3.058   1.037  14.618  0.9147  0.8735 -1.2428
10611TIP3   OH253247   0.938   5.184  16.922 -0.3159  0.1467 -0.4877
10611TIP3    H153248   0.860   5.184  16.867 -3.8348  1.6189  3.8416
10611TIP3    H253249   0.936   5.099  16.966  0.2828  0.3739 -0.0139
10612TIP3   OH253250   1.783   6.774  11.503 -0.2644 -0.2250  0.4897
10612TIP3    H153251   1.827   6.694  11.532  1.1806  0.1827 -0.5139
10612TIP3    H253252   1.690   6.752  11.505  0.1590 -2.8287 -2.2554
10613TIP3   OH253253   4.707   2.545   3.753 -0.2052  0.2568  0.0970
10613TIP3    H153254   4.723   2.602   3.828  0.4817  0.2475 -0.0336
10613TIP3    H253255   4.790   2.499   3.740 -0.1719  0.5634 -0.9145
10614TIP3   OH253256   0.364   3.261  14.795 -0.2302 -0.3307  0.0069
10614TIP3    H153257   0.322   3.209  14.864  1.0198 -0.7845  0.4399
10614TIP3    H253258   0.401   3.336  14.840  0.0799 -0.3213 -0.2595
10615TIP3   OH253259   6.212   2.768  14.446 -0.1360  0.1274  0.1185
10615TIP3    H153260   6.178   2.843  14.397 -1.7325 -1.9674 -2.2170
10615TIP3    H253261   6.236   2.704  14.379 -0.2255 -2.0327  2.0362
10616TIP3   OH253262   4.988   1.766  11.995  0.0959  0.2634 -0.2786
10616TIP3    H153263   4.894   1.786  11.993 -0.2430 -1.2915 -0.7021
10616TIP3    H253264   5.026   1.829  11.933 -0.5891  1.1614  0.1744
10617TIP3   OH253265   1.018   0.344   2.622  0.0629  0.3518  0.5486
10617TIP3    H153266   1.083   0.368   2.556 -0.7120 -0.4705 -0.5378
10617TIP3    H253267   1.028   0.410   2.690  0.1554  1.8522 -0.8744
10618TIP3   OH253268   1.923   0.124  11.718 -0.4760  0.1769 -0.3683
10618TIP3    H153269   1.943   0.050  11.775 -0.3307  0.7463  0.3508
10618TIP3    H253270   1.838   0.103  11.679 -0.0892 -0.6994 -0.7617
10619TIP3   OH253271   6.780   2.914   3.228  0.1036 -0.1968  0.4257
10619TIP3    H153272   6.807   2.857   3.301 -1.1813  0.7195  1.6705
10619TIP3    H253273   6.685   2.904   3.224  0.1565 -0.2565 -1.1917
10620TIP3   OH253274   4.947   3.859  16.243 -0.0391  0.0049 -0.0255
10620TIP3    H153275   4.975   3.767  16.250 -0.7971 -0.2457 -0.1289
10620TIP3    H253276   4.867   3.863  16.296  0.4049  0.7891  0.5845
10621TIP3   OH253277   4.089   4.031  16.345  0.3402 -0.2371  0.1203
10621TIP3    H153278   4.055   3.987  16.266  1.8744 -1.0799 -0.1074
10621TIP3    H253279   4.107   4.121  16.316 -1.0192  0.0460  0.0794
10622TIP3   OH253280   4.710   4.091  12.532 -0.2705 -0.2633  0.1613
10622TIP3    H153281   4.803   4.067  12.527  0.0327  0.9352 -0.4082
10622TIP3    H253282   4.704   4.173  12.483 -1.6605 -0.3834  0.0931
10623TIP3   OH253283   3.359   5.262  14.432 -0.1561  0.1393 -0.1856
10623TIP3    H153284   3.378   5.176  14.393  1.7246  1.3098 -2.0869
10623TIP3    H253285   3.312   5.242  14.513  2.7106 -2.8565  0.9736
10624TIP3   OH253286   4.097   5.383  12.756 -0.5596 -0.4267 -0.2482
10624TIP3    H153287   4.161   5.410  12.822  1.4502 -2.0004 -1.4242
10624TIP3    H253288   4.063   5.465  12.721 -0.2175  0.4438  1.3621
10625TIP3   OH253289   1.500   2.415   1.345 -0.6688 -0.2011 -0.1123
10625TIP3    H153290   1.469   2.409   1.255 -2.2071 -1.0552  0.4524
10625TIP3    H253291   1.595   2.404   1.338 -0.7345  0.0068 -1.6405
10626TIP3   OH253292   1.220   4.112  12.564  0.1623  0.1379 -0.0998
10626TIP3    H153293   1.195   4.088  12.654  1.2901 -1.6460 -0.2173
10626TIP3    H253294   1.169   4.053  12.509 -1.0898  1.7259 -0.7239
10627TIP3   OH253295   6.063   1.647  14.920  0.3537 -0.6637 -0.5409
10627TIP3    H153296   6.018   1.563  14.928 -1.6607  0.4917  1.1841
10627TIP3    H253297   6.038   1.679  14.833 -1.0288 -0.7049 -0.1801
10628TIP3   OH253298   0.408   1.706   5.334  0.1104 -0.0533 -0.5522
10628TIP3    H153299   0.437   1.668   5.417 -1.9898 -0.4928  0.0557
10628TIP3    H253300   0.414   1.801   5.348 -0.4422 -0.1177  0.2211
10629TIP3   OH253301   5.250   4.399   2.687 -0.4392  0.1240 -0.0770
10629TIP3    H153302   5.187   4.448   2.634 -1.8183 -1.3307  0.1486
10629TIP3    H253303   5.220   4.411   2.777 -1.2315 -1.6543 -0.0620
10630TIP3   OH253304   6.485   4.941   1.772 -0.2582 -0.4652  0.3751
10630TIP3    H153305   6.438   4.895   1.841 -0.2432  0.4499  1.0120
10630TIP3    H253306   6.544   4.875   1.735  0.6334 -0.6729  2.0692
10631TIP3   OH253307   0.437   4.918   3.262  0.2753 -0.3747  0.4966
10631TIP3    H153308   0.531   4.924   3.275  0.2697  1.2618  0.0466
10631TIP3    H253309   0.427   4.904   3.168  0.0491  0.4746  0.3927
10632TIP3   OH253310   5.514   4.515  10.917 -0.4353  0.0393 -0.6335
10632TIP3    H153311   5.460   4.461  10.975 -0.7902  0.9616 -0.0938
10632TIP3    H253312   5.598   4.469  10.913 -0.0273  0.5089  1.4965
10633TIP3   OH253313   0.599   1.567  11.164  0.0540 -0.5502 -0.5773
10633TIP3    H153314   0.611   1.651  11.208  0.1435 -0.5985 -0.5094
10633TIP3    H253315   0.677   1.557  11.110  0.5338 -1.0703  0.1988
10634TIP3   OH253316   3.013   4.639  16.566  0.0912  0.9124 -0.3534
10634TIP3    H153317   3.094   4.593  16.587  0.2840  1.1739 -0.5244
10634TIP3    H253318   3.040   4.728  16.542 -0.3515  1.3926  0.8531
10635TIP3   OH253319   5.871   5.404   4.197 -0.2259 -0.1087 -0.0897
10635TIP3    H153320   5.849   5.497   4.190  0.2077  0.1732  1.7911
10635TIP3    H253321   5.829   5.375   4.278 -0.3073 -1.5519 -0.6176
10636TIP3   OH253322   1.083   5.127  11.949 -0.1906 -0.3454 -0.3830
10636TIP3    H153323   1.045   5.080  12.023  0.6620 -0.6235 -0.1103
10636TIP3    H253324   1.008   5.167  11.905 -0.7610 -0.6277  0.3130
10637TIP3   OH253325   6.449   2.143   1.869  0.3418  0.6122  0.0918
10637TIP3    H153326   6.481   2.078   1.930  0.2384  0.0252 -0.4695
10637TIP3    H253327   6.364   2.110   1.840  0.4547  0.8030 -0.4786
10638TIP3   OH253328   2.868   2.152  11.503 -0.0677 -0.2693 -0.5405
10638TIP3    H153329   2.871   2.091  11.429  0.3169 -0.0931 -0.6749
10638TIP3    H253330   2.945   2.208  11.490  0.0654 -0.3154  0.0581
10639TIP3   OH253331   1.411   4.025   1.025 -0.2582  0.2177 -0.1872
10639TIP3    H153332   1.359   3.950   0.995 -0.1419 -0.4670  1.2704
10639TIP3    H253333   1.497   3.988   1.046 -0.1239  0.8068  0.3177
10640TIP3   OH253334   1.871   4.668   4.410  0.4026  0.1329 -0.5858
10640TIP3    H153335   1.849   4.746   4.359  0.2888  0.0196 -0.7084
10640TIP3    H253336   1.798   4.607   4.396  0.2066  0.2295 -0.0163
10641TIP3   OH253337   5.162   0.839  12.690 -0.5503  0.5502 -0.8857
10641TIP3    H153338   5.178   0.854  12.783  0.2509 -0.9426 -0.7475
10641TIP3    H253339   5.135   0.747  12.685  0.6553  0.2404 -2.2559
10642TIP3   OH253340   1.304   5.100   2.507 -0.8786 -0.7306  0.1846
10642TIP3    H153341   1.343   5.078   2.423 -0.6861 -0.6466  0.2482
10642TIP3    H253342   1.380   5.111   2.566 -1.0469 -1.7928  0.6225
10643TIP3   OH253343   5.129   2.421   5.430 -0.0712  0.4193 -0.3792
10643TIP3    H153344   5.062   2.462   5.376 -1.7654  1.7489  2.4780
10643TIP3    H253345   5.155   2.489   5.492  1.1075 -1.2325  1.0532
10644TIP3   OH253346   6.648   4.678   3.975  0.0933 -0.2477 -0.1341
10644TIP3    H153347   6.645   4.667   4.070  1.1210  1.9281  0.2208
10644TIP3    H253348   6.594   4.754   3.957 -0.3061 -0.7865 -1.3550
10645TIP3   OH253349   2.965   0.476   0.522 -0.1855  0.2555  0.3516
10645TIP3    H153350   2.890   0.534   0.509  0.6536  0.7927 -3.0485
10645TIP3    H253351   3.031   0.532   0.564 -0.8089  0.4791  1.0656
10646TIP3   OH253352   4.483   0.572   5.712  0.2012 -0.2616 -0.5142
10646TIP3    H153353   4.403   0.616   5.685  0.9654 -0.3501 -3.1774
10646TIP3    H253354   4.554   0.627   5.679  1.3213 -0.0573  1.9793
10647TIP3   OH253355   3.435   4.105  15.352  0.1826 -0.0340  0.5888
10647TIP3    H153356   3.424   4.178  15.413 -0.0476 -0.4730  1.0889
10647TIP3    H253357   3.484   4.039  15.402 -1.1297 -0.9218  0.7703
10648TIP3   OH253358   4.364   5.589   3.540 -0.0670  0.0119  0.3358
10648TIP3    H153359   4.332   5.499   3.547 -0.6917  0.3366  2.7857
10648TIP3    H253360   4.457   5.584   3.561  0.3803 -0.2916 -1.6188
10649TIP3   OH253361   2.704   4.600   3.980  0.7282  0.4177  0.0380
10649TIP3    H153362   2.706   4.614   4.074 -0.4160  0.7412  0.0333
10649TIP3    H253363   2.691   4.506   3.969  1.8764  0.2344  0.1786
10650TIP3   OH253364   2.666   5.369  11.535  0.2983 -0.7544 -0.1196
10650TIP3    H153365   2.671   5.307  11.462 -0.5728 -0.7814 -0.1618
10650TIP3    H253366   2.644   5.316  11.611 -0.2522 -0.5226 -0.1178
10651TIP3   OH253367   1.579   1.013   5.294  0.1063 -0.1795 -0.4727
10651TIP3    H153368   1.640   0.955   5.248 -0.7326 -0.8712 -0.7434
10651TIP3    H253369   1.510   0.955   5.326  0.0860  0.4511  0.6899
10652TIP3   OH253370   2.990   0.859   4.164  0.2889 -0.3344 -0.3226
10652TIP3    H153371   3.069   0.807   4.181 -0.1458 -0.5000  1.4741
10652TIP3    H253372   2.957   0.880   4.252 -0.9186  0.8786 -1.0386
10653TIP3   OH253373   3.032   3.918  16.089 -0.2953 -0.5324  0.0937
10653TIP3    H153374   3.056   3.907  15.997  2.7633 -0.0556  0.7320
10653TIP3    H253375   2.947   3.875  16.097 -0.1153 -1.5870 -2.7028
10654TIP3   OH253376   4.485   3.779   6.001  0.0265 -0.0647 -0.3041
10654TIP3    H153377   4.531   3.832   6.067 -0.3960  1.9466 -1.5528
10654TIP3    H253378   4.425   3.840   5.959 -2.4839 -2.1703 -0.0290
10655TIP3   OH253379   2.174   1.923   0.114  0.0958 -0.7194  0.0803
10655TIP3    H153380   2.088   1.910   0.154 -0.0792 -1.7689 -0.5899
10655TIP3    H253381   2.236   1.885   0.177 -0.2336 -2.9852 -0.8761
10656TIP3   OH253382   1.425   5.576  14.459  0.0049 -0.3194 -0.3466
10656TIP3    H153383   1.502   5.565  14.514 -0.1202  1.0709  0.1569
10656TIP3    H253384   1.456   5.562  14.370  0.8426  0.2114 -0.1456
10657TIP3   OH253385   6.457   1.391  14.105  0.1822 -0.7057  0.0690
10657TIP3    H153386   6.494   1.466  14.152 -1.0515 -0.1662  0.2108
10657TIP3    H253387   6.363   1.405  14.108  0.0029 -1.4664 -1.2375
10658TIP3   OH253388   5.962   0.831  14.610 -0.2317 -0.2236 -0.4131
10658TIP3    H153389   6.019   0.761  14.641  0.5069  0.3455 -0.4582
10658TIP3    H253390   5.886   0.785  14.572  0.0309 -0.9766 -0.0467
10659TIP3   OH253391   2.457   6.249  14.158 -0.0643  0.0822  0.4355
10659TIP3    H153392   2.501   6.311  14.100  0.5411 -0.5614  0.1961
10659TIP3    H253393   2.528   6.200  14.200 -0.5305 -0.4129  0.6616
10660TIP3   OH253394   1.001   3.224   5.263 -0.0012  0.6411 -0.2271
10660TIP3    H153395   0.985   3.177   5.345 -0.9071  0.3419 -0.5520
10660TIP3    H253396   0.978   3.315   5.282  0.2311  0.6543 -0.0194
10661TIP3   OH253397   2.004   1.957   5.143  0.0080 -0.2883 -0.1511
10661TIP3    H153398   2.096   1.974   5.162 -0.8064  1.6231  2.7392
10661TIP3    H253399   1.971   2.040   5.107 -0.6031 -0.9799 -1.2632
10662TIP3   OH253400   3.779   1.291   3.146 -0.0427 -0.1590  0.0672
10662TIP3    H153401   3.716   1.226   3.113 -0.1714  0.3015 -0.6282
10662TIP3    H253402   3.842   1.240   3.197 -0.2864 -0.7962 -0.2570
10663TIP3   OH253403   2.974   3.005   5.349  0.3215  0.2356  0.0269
10663TIP3    H153404   3.067   2.997   5.326  0.1701  0.6815 -0.7772
10663TIP3    H253405   2.968   3.089   5.395  0.4568 -0.2003  0.8567
10664TIP3   OH253406   0.468   1.323  12.003  0.0256 -0.3352 -0.2091
10664TIP3    H153407   0.539   1.322  11.938 -0.6403 -0.2146 -0.9584
10664TIP3    H253408   0.404   1.385  11.968 -0.0246  0.2898  0.9366
10665TIP3   OH253409   1.625   2.972  10.416 -0.3206  0.5662  0.4217
10665TIP3    H153410   1.677   3.019  10.481  0.8529 -0.9898  0.6582
10665TIP3    H253411   1.614   2.884  10.452  0.6014 -0.4410 -1.5587
10666TIP3   OH253412   5.841   0.861  11.620 -0.5081 -0.6292  0.0327
10666TIP3    H153413   5.773   0.883  11.557 -0.2049 -0.3139 -0.1928
10666TIP3    H253414   5.818   0.911  11.699  0.7547  1.4388 -0.8150
10667TIP3   OH253415   5.913   5.343   4.688 -0.3541 -0.2733  0.3127
10667TIP3    H153416   5.989   5.360   4.744  0.6296 -0.7494 -0.8242
10667TIP3    H253417   5.907   5.247   4.685  0.1914 -0.2872 -1.1040
10668TIP3   OH253418   2.410   4.936  14.191 -0.3960  0.3101 -0.2300
10668TIP3    H153419   2.451   4.852  14.206  0.3677  0.9909  1.7545
10668TIP3    H253420   2.406   4.944  14.095 -0.0480 -1.7292 -0.4527
10669TIP3   OH253421   3.529   3.640   1.161 -0.3052  0.2995 -0.0546
10669TIP3    H153422   3.492   3.657   1.075 -1.5335  0.7575  0.5370
10669TIP3    H253423   3.461   3.590   1.207  0.4374 -0.1631  0.5660
10670TIP3   OH253424   1.586   4.488  14.573 -0.1393 -0.5296 -0.5120
10670TIP3    H153425   1.573   4.476  14.667  3.5673 -0.8988  0.1179
10670TIP3    H253426   1.547   4.410  14.533 -1.1312 -0.7173  0.7565
10671TIP3   OH253427   0.491   6.099  12.412  0.5569 -0.4697  0.0889
10671TIP3    H153428   0.401   6.118  12.385  0.5108  1.7134  1.4566
10671TIP3    H253429   0.542   6.102  12.331 -0.2742  0.7658 -0.4297
10672TIP3   OH253430   0.640   2.644   2.660  0.1122 -0.3260  0.1979
10672TIP3    H153431   0.557   2.664   2.703 -0.9841 -4.2197  0.2946
10672TIP3    H253432   0.633   2.686   2.574 -1.5519  0.1552  0.5295
10673TIP3   OH253433   2.080   6.225  14.715  0.1353  0.6529  0.3280
10673TIP3    H153434   2.036   6.279  14.780 -1.1509 -0.4904  0.4544
10673TIP3    H253435   2.026   6.233  14.636  1.2445  1.4029 -0.3767
10674TIP3   OH253436   1.477   0.101  15.383  0.1605 -0.6663 -0.4205
10674TIP3    H153437   1.457   0.013  15.349  0.6902 -0.2830 -1.8065
10674TIP3    H253438   1.571   0.099  15.398  0.6561  0.3767 -2.8492
10675TIP3   OH253439   6.515   2.755  12.864 -0.5900  0.0744  0.6659
10675TIP3    H153440   6.463   2.814  12.809 -1.5820 -0.6023  0.8646
10675TIP3    H253441   6.515   2.672  12.818 -1.1567 -0.4102  1.5188
10676TIP3   OH253442   6.546   2.867  14.668 -0.2192 -0.1602  0.5745
10676TIP3    H153443   6.593   2.945  14.638 -0.6055 -0.5490 -1.1955
10676TIP3    H253444   6.557   2.804  14.596 -0.6562 -1.4232  1.5819
10677TIP3   OH253445   6.185   6.102  12.099 -0.3934 -0.3394 -0.2382
10677TIP3    H153446   6.252   6.156  12.058  1.6868 -1.6400  1.2119
10677TIP3    H253447   6.158   6.041  12.030 -0.2143  0.3216 -0.9024
10678TIP3   OH253448   4.399   2.431  16.465 -0.2886 -0.0976  0.7522
10678TIP3    H153449   4.340   2.418  16.538 -1.0984  0.4747  0.2153
10678TIP3    H253450   4.421   2.342  16.436 -1.2617 -0.3247  0.6664
10679TIP3   OH253451   1.452   4.611  10.738 -0.1200  0.1283  0.5374
10679TIP3    H153452   1.366   4.578  10.714 -0.0303  0.0678  0.2961
10679TIP3    H253453   1.513   4.541  10.713  0.1421  0.7517 -0.6423
10680TIP3   OH253454   2.159   4.026   4.378 -0.7177 -0.2824  0.0239
10680TIP3    H153455   2.192   4.057   4.294 -0.1473 -0.5972  0.1253
10680TIP3    H253456   2.154   4.105   4.432 -2.4650  0.1806 -0.7181
10681TIP3   OH253457   4.733   2.879  15.069 -0.0457  0.8074  0.2769
10681TIP3    H153458   4.797   2.901  15.137  1.7033  0.9408 -1.3251
10681TIP3    H253459   4.779   2.897  14.987 -1.1912 -1.6807 -1.0017
10682TIP3   OH253460   1.170   0.046  11.592  0.1917  0.0171  0.5439
10682TIP3    H153461   1.240  -0.012  11.619  0.1677 -0.5763 -0.6138
10682TIP3    H253462   1.198   0.133  11.621  0.4007 -0.4900  1.9417
10683TIP3   OH253463   4.198   3.660  16.151  0.3068 -0.3430  0.8062
10683TIP3    H153464   4.160   3.696  16.232  0.6662  1.5637  0.1831
10683TIP3    H253465   4.276   3.614  16.180 -0.2522 -0.7892  1.6703
10684TIP3   OH253466   2.891   1.072  12.302 -0.6442 -0.1731 -0.3395
10684TIP3    H153467   2.963   1.118  12.259 -0.5219 -0.0327  0.0139
10684TIP3    H253468   2.930   1.034  12.381 -0.7269 -0.9306 -0.6473
10685TIP3   OH253469   6.172   5.853  15.628  0.3088  0.2133 -0.0922
10685TIP3    H153470   6.111   5.786  15.658  2.8581 -1.7553  1.1332
10685TIP3    H253471   6.244   5.850  15.691  2.3239  1.3762 -2.1774
10686TIP3   OH253472   6.596   0.184   0.778 -0.1463 -0.6611  0.1314
10686TIP3    H153473   6.541   0.152   0.850 -0.8612 -0.6340 -0.3906
10686TIP3    H253474   6.641   0.260   0.815  1.4399 -2.1162  1.3259
10687TIP3   OH253475   4.840   4.417  11.053 -0.6522 -0.1654  0.1338
10687TIP3    H153476   4.834   4.325  11.080  1.4856 -0.3312  0.1820
10687TIP3    H253477   4.904   4.455  11.113  0.2339  0.7840 -1.3732
10688TIP3   OH253478   2.652   4.215  15.753  0.6074 -0.4392  0.1991
10688TIP3    H153479   2.643   4.309  15.736  0.0284 -0.8015 -1.7824
10688TIP3    H253480   2.702   4.182  15.678  1.7260 -1.5710  1.3893
10689TIP3   OH253481   4.191   2.664  15.985 -0.0745  0.1960 -0.2623
10689TIP3    H153482   4.213   2.727  16.054 -2.2430  0.0115  0.6709
10689TIP3    H253483   4.204   2.713  15.904  0.9564  0.9327  0.3171
10690TIP3   OH253484   3.953   2.903  12.680  0.3615  0.6301 -0.1489
10690TIP3    H153485   3.902   2.930  12.757  0.2922  0.3957 -0.1109
10690TIP3    H253486   3.916   2.818  12.656  2.7374 -1.1166  1.8000
10691TIP3   OH253487   3.906   1.813   3.898  0.0387  0.3012 -0.0107
10691TIP3    H153488   3.954   1.774   3.825 -0.3375 -0.8314  0.3358
10691TIP3    H253489   3.823   1.765   3.901  0.5195 -0.4721  1.9035
10692TIP3   OH253490   4.999   3.672   4.171 -0.2714 -0.1734  0.0890
10692TIP3    H153491   4.956   3.739   4.117  0.8617 -0.2414 -0.9245
10692TIP3    H253492   5.090   3.672   4.142 -0.0584 -1.5724  0.6747
10693TIP3   OH253493   1.225   5.182   1.159  0.3341  0.2631  0.3287
10693TIP3    H153494   1.214   5.122   1.085  0.1474  0.2988  0.3262
10693TIP3    H253495   1.136   5.212   1.179  0.4750  0.8806  0.0503
10694TIP3   OH253496   5.066   0.760   1.532 -0.4862  0.8556  0.3792
10694TIP3    H153497   5.133   0.703   1.571 -0.9949 -0.0786 -0.0920
10694TIP3    H253498   5.106   0.847   1.535 -0.0670  0.6507  1.9585
10695TIP3   OH253499   0.148   5.230   2.685 -0.4259  0.2914  0.4203
10695TIP3    H153500   0.230   5.226   2.635 -0.5560  1.3600  0.0984
10695TIP3    H253501   0.176   5.258   2.773 -0.5273  1.6580  0.0410
10696TIP3   OH253502   2.692   2.585   0.699 -0.1051 -0.1166 -0.3021
10696TIP3    H153503   2.633   2.619   0.631  1.1246 -0.8036 -1.7849
10696TIP3    H253504   2.635   2.570   0.774 -1.4451  1.1335 -1.0117
10697TIP3   OH253505   4.491   4.103   5.694  0.4783  0.8524  0.3098
10697TIP3    H153506   4.540   4.045   5.753 -0.4328  0.0418  0.2862
10697TIP3    H253507   4.514   4.074   5.606 -1.3151 -0.6741  0.2919
10698TIP3   OH253508   0.489   5.737   1.733 -0.0570 -0.6829  0.3105
10698TIP3    H153509   0.531   5.675   1.674  0.7529 -1.6998  1.8825
10698TIP3    H253510   0.448   5.682   1.800  1.3290  0.4405  2.1686
10699TIP3   OH253511   6.682   4.451   0.369 -0.2571  0.3009  0.4371
10699TIP3    H153512   6.735   4.526   0.343 -0.2095  0.6761  1.5620
10699TIP3    H253513   6.594   4.487   0.380 -0.5370 -0.1059 -0.4055
10700TIP3   OH253514   2.602   3.763  14.628  0.1388 -0.6636  0.2064
10700TIP3    H153515   2.694   3.790  14.624 -0.2900  0.8447 -0.0429
10700TIP3    H253516   2.575   3.783  14.717 -1.0098  2.7949 -0.7605
10701TIP3   OH253517   3.022   1.703   3.592  0.6424  0.1099  0.4233
10701TIP3    H153518   2.963   1.641   3.550 -0.8712  1.0805  1.0394
10701TIP3    H253519   3.098   1.650   3.618  1.3276 -0.6648 -2.7671
10702TIP3   OH253520   3.651   4.007  16.602 -0.6533  0.0656 -0.1516
10702TIP3    H153521   3.696   4.090  16.588 -0.8317  0.0053 -1.1803
10702TIP3    H253522   3.597   3.996  16.524  0.1255 -1.4944 -0.5087
10703TIP3   OH253523   3.328   0.247   6.801 -0.1328 -0.0283 -0.2545
10703TIP3    H153524   3.315   0.335   6.837 -0.0374  0.4727 -1.4144
10703TIP3    H253525   3.418   0.246   6.770 -0.7675  0.2594 -2.2795
10704TIP3   OH253526   4.196   2.432  14.501 -0.4711 -0.3150  0.7532
10704TIP3    H153527   4.174   2.363  14.564 -0.4498  0.2904  1.4385
10704TIP3    H253528   4.152   2.510  14.535  0.5272  0.2963  0.6872
10705TIP3   OH253529   1.502   0.576   0.909 -0.8827  0.2662 -0.2537
10705TIP3    H153530   1.456   0.512   0.854  0.3067 -0.2198 -0.7214
10705TIP3    H253531   1.577   0.527   0.944  0.1012  1.4246 -0.7008
10706TIP3   OH253532   2.869   4.269   5.083 -0.6778  0.1384 -0.0744
10706TIP3    H153533   2.872   4.182   5.042 -1.1555  0.0485  0.0802
10706TIP3    H253534   2.961   4.292   5.095 -0.5033  0.4730 -1.8214
10707TIP3   OH253535   5.936   0.106   2.734 -0.0208  0.2532 -0.7310
10707TIP3    H153536   5.929   0.176   2.799  0.5657  1.6185 -2.0952
10707TIP3    H253537   5.899   0.029   2.778 -0.1700  1.2659  1.0007
10708TIP3   OH253538   3.210   3.632  13.553 -0.0141 -0.1727  0.4515
10708TIP3    H153539   3.283   3.656  13.496  2.3123 -3.3154  1.7809
10708TIP3    H253540   3.241   3.653  13.641 -0.3011 -2.2105  1.1024
10709TIP3   OH253541   3.302   1.463  12.378 -0.4049 -0.2279  0.5311
10709TIP3    H153542   3.375   1.403  12.392  0.0796  0.3335  0.4541
10709TIP3    H253543   3.225   1.407  12.377  0.2160 -1.1954 -1.8886
10710TIP3   OH253544   0.182   2.379   4.256  0.0975 -0.4504 -0.1338
10710TIP3    H153545   0.216   2.307   4.309  1.4164  0.4542  0.3193
10710TIP3    H253546   0.206   2.458   4.306 -2.9803  0.2936  0.3800
10711TIP3   OH253547   3.372   4.289  10.642 -0.4549  0.1889 -0.3713
10711TIP3    H153548   3.347   4.376  10.672 -2.1210 -0.2772 -0.3187
10711TIP3    H253549   3.445   4.304  10.583  0.4270  1.4597  0.9759
10712TIP3   OH253550   5.496   4.625   5.281  1.2008  0.1385 -0.4775
10712TIP3    H153551   5.551   4.698   5.255  2.1425 -0.2681  0.2819
10712TIP3    H253552   5.495   4.567   5.205 -0.5935  1.4850 -1.5575
10713TIP3   OH253553   0.957   2.683  13.923  0.4914  0.4241  0.8938
10713TIP3    H153554   0.946   2.678  14.018  0.9384 -0.8632  0.9064
10713TIP3    H253555   1.048   2.655  13.908 -0.6394 -3.3154 -0.1229
10714TIP3   OH253556   3.492   3.449   0.895  0.1326 -0.3235  0.0155
10714TIP3    H153557   3.484   3.527   0.840 -0.9009  0.0496  0.6510
10714TIP3    H253558   3.417   3.455   0.955  1.3245 -0.6055  1.5842
10715TIP3   OH253559   4.433   0.358  11.945  0.0717 -0.1693 -0.0486
10715TIP3    H153560   4.432   0.452  11.927 -1.0223 -0.1348  0.1274
10715TIP3    H253561   4.504   0.346  12.008 -0.4021  0.6793  0.6531
10716TIP3   OH253562   3.194   1.995  11.566 -0.0446  0.0254  0.0895
10716TIP3    H153563   3.198   2.049  11.645  0.2490  1.9406 -1.1597
10716TIP3    H253564   3.227   2.053  11.496  1.4954 -2.1888 -1.1276
10717TIP3   OH253565   2.633   1.123   1.164 -0.4375  0.6514 -0.0266
10717TIP3    H153566   2.553   1.175   1.158 -0.4630  0.5278 -0.9271
10717TIP3    H253567   2.696   1.181   1.208 -0.2237  1.7859 -1.7231
10718TIP3   OH253568   0.274   6.028  15.712  0.1879 -0.5016  0.0735
10718TIP3    H153569   0.367   6.047  15.704 -0.2755  2.2835  0.2810
10718TIP3    H253570   0.247   6.001  15.624  0.8539  0.5519 -0.4737
10719TIP3   OH253571   1.509   4.409   5.702  0.3402  0.1609  0.1370
10719TIP3    H153572   1.482   4.461   5.777  2.6269  2.2677 -0.3889
10719TIP3    H253573   1.588   4.363   5.731  0.9605  0.5971 -0.8066
10720TIP3   OH253574   5.601   5.806   3.624 -0.9602  0.1139 -0.1632
10720TIP3    H153575   5.612   5.715   3.654 -0.6255 -0.5393 -2.1488
10720TIP3    H253576   5.507   5.815   3.608 -1.3318  0.8442  2.0707
10721TIP3   OH253577   1.789   4.237  14.178 -0.2693  0.1076 -0.9246
10721TIP3    H153578   1.705   4.196  14.159 -0.1747 -1.0129  0.8697
10721TIP3    H253579   1.766   4.318  14.224 -0.3794 -0.5979  0.2926
10722TIP3   OH253580   4.864   5.741   2.120  0.5829  0.0743  0.0647
10722TIP3    H153581   4.828   5.812   2.065 -0.9602 -0.2490  0.6125
10722TIP3    H253582   4.810   5.665   2.100  0.2005 -0.1457  1.7790
10723TIP3   OH253583   3.292   1.898  10.988  0.0736  0.0544  0.0849
10723TIP3    H153584   3.381   1.889  10.953 -0.1350  2.2587 -1.1780
10723TIP3    H253585   3.292   1.983  11.032 -1.4358  0.1509 -0.0479
10724TIP3   OH253586   4.425   4.798  15.925  0.5712 -0.5433  0.4918
10724TIP3    H153587   4.442   4.889  15.949  0.0360 -0.8657  2.2797
10724TIP3    H253588   4.373   4.764  15.998  0.6690 -2.2542 -0.1933
10725TIP3   OH253589   4.865   3.411   1.166  0.5895 -0.3396  0.5215
10725TIP3    H153590   4.950   3.399   1.124 -0.5189 -1.5244 -1.5917
10725TIP3    H253591   4.826   3.323   1.165 -0.5603  0.1242  1.7225
10726TIP3   OH253592   0.407   2.987   1.129 -0.3442  0.8358 -0.0661
10726TIP3    H153593   0.503   2.983   1.136 -0.4555 -2.2097  1.4968
10726TIP3    H253594   0.381   3.056   1.189  0.8485  1.0482  0.2312
10727TIP3   OH253595   4.882   2.546  12.509  0.2315  0.5234  0.2136
10727TIP3    H153596   4.948   2.615  12.519  0.4501  0.5945 -1.4412
10727TIP3    H253597   4.931   2.472  12.470 -0.2031 -0.2276  1.0654
10728TIP3   OH253598   1.294   5.763   5.646  0.3614  0.9012 -0.2918
10728TIP3    H153599   1.277   5.672   5.622  0.7241  0.9120 -0.6002
10728TIP3    H253600   1.207   5.801   5.658  0.1945  0.6515 -0.6873
10729TIP3   OH253601   2.106   5.898   2.942  0.0755  0.9691 -0.1611
10729TIP3    H153602   2.064   5.942   2.867  1.2943 -0.1807 -1.5870
10729TIP3    H253603   2.194   5.934   2.945  0.5481 -0.1201 -0.3027
10730TIP3   OH253604   2.507   1.748   1.105  0.2979 -0.5156  0.2253
10730TIP3    H153605   2.594   1.709   1.113 -0.0956 -1.1787  1.6314
10730TIP3    H253606   2.520   1.839   1.132  0.6577 -0.4639 -0.1129
10731TIP3   OH253607   6.426   2.734  15.479  0.0482  0.4701 -0.6340
10731TIP3    H153608   6.399   2.783  15.402  1.5165 -1.8029 -2.7581
10731TIP3    H253609   6.355   2.670  15.493  0.1224  0.4050 -0.5519
10732TIP3   OH253610   5.745   4.329  14.526  0.3721 -0.3754 -0.3300
10732TIP3    H153611   5.656   4.293  14.534  0.8523 -1.7892 -0.9046
10732TIP3    H253612   5.795   4.284  14.594  0.8441 -0.2569 -0.5948
10733TIP3   OH253613   0.626   2.847   5.311  0.0091 -0.3990 -0.2860
10733TIP3    H153614   0.541   2.806   5.327 -0.0274 -0.1357  0.2022
10733TIP3    H253615   0.605   2.937   5.287  0.1746 -0.1591  0.4479
10734TIP3   OH253616   2.158   4.301   1.650  0.0133  0.0593  0.0639
10734TIP3    H153617   2.147   4.213   1.687  1.8271 -0.0443  0.4743
10734TIP3    H253618   2.248   4.302   1.618 -0.1895  1.5625 -0.5280
10735TIP3   OH253619   4.744   0.004   0.651  0.6996  0.2824  0.1156
10735TIP3    H153620   4.801   0.078   0.628 -0.0279  0.4195 -1.4027
10735TIP3    H253621   4.755  -0.058   0.578 -2.2519  1.0257 -1.1319
10736TIP3   OH253622   4.773   6.155   3.960 -0.3434 -0.3463 -0.5776
10736TIP3    H153623   4.862   6.152   3.996  0.0471  0.9826 -1.3597
10736TIP3    H253624   4.720   6.106   4.023  0.6370  0.3171  0.8221
10737TIP3   OH253625   5.030   5.186   5.520  0.1338  0.1875 -0.2804
10737TIP3    H153626   4.996   5.096   5.520 -0.5304  0.4240  0.1653
10737TIP3    H253627   4.973   5.233   5.458  0.3506  0.3468 -0.3604
10738TIP3   OH253628   1.074   2.744   4.641 -0.4235 -0.0174 -0.1728
10738TIP3    H153629   1.123   2.764   4.561 -0.2317  0.3468  0.0378
10738TIP3    H253630   1.094   2.816   4.700  0.7456 -1.0894  0.7988
10739TIP3   OH253631   0.954   6.115   3.289 -0.2010  0.1485  0.1061
10739TIP3    H153632   0.963   6.037   3.343 -0.7044  0.3395  0.4662
10739TIP3    H253633   0.947   6.082   3.199 -0.5068 -0.2230  0.2666
10740TIP3   OH253634   2.390   3.913   3.043 -0.7925 -0.0206  0.1927
10740TIP3    H153635   2.394   3.818   3.058  1.3830 -0.0951 -0.5123
10740TIP3    H253636   2.420   3.951   3.126 -0.2252 -0.0208 -0.0067
10741TIP3   OH253637   0.788   2.966   4.434  0.5827 -0.0840  0.1321
10741TIP3    H153638   0.845   2.963   4.358  1.6181 -1.0422  0.9058
10741TIP3    H253639   0.699   2.967   4.398  0.9810 -2.2951 -1.1190
10742TIP3   OH253640   5.203   2.123  15.976 -0.2214  0.0729 -0.0260
10742TIP3    H153641   5.294   2.113  16.005 -0.2606  0.8934  0.4154
10742TIP3    H253642   5.170   2.034  15.973  0.8710 -0.3209 -1.1242
10743TIP3   OH253643   2.444   6.152   5.069 -0.0543 -0.2878 -0.1323
10743TIP3    H153644   2.470   6.151   4.977 -0.2157 -0.9481 -0.1748
10743TIP3    H253645   2.526   6.161   5.118 -0.1007  2.3936 -0.3741
10744TIP3   OH253646   5.428   3.249   5.522 -0.1229 -0.6862 -0.0631
10744TIP3    H153647   5.459   3.316   5.583  1.5977 -2.2446  0.8944
10744TIP3    H253648   5.351   3.212   5.564  0.0248 -0.5623  0.3296
10745TIP3   OH253649   3.491   5.693   3.098  0.1367  0.4631 -0.3050
10745TIP3    H153650   3.422   5.704   3.033 -0.7339  1.1286  0.6915
10745TIP3    H253651   3.461   5.619   3.152  0.8729 -0.1174 -0.6669
10746TIP3   OH253652   1.812   5.676  16.741  0.8966 -0.0952 -0.2432
10746TIP3    H153653   1.847   5.719  16.819  0.0960  0.6645 -0.2902
10746TIP3    H253654   1.765   5.745  16.694 -0.5614 -1.0282 -0.2280
10747TIP3   OH253655   4.433   2.241   0.763 -0.4229 -0.0425  0.0694
10747TIP3    H153656   4.380   2.162   0.775  1.3583 -1.6521 -1.9685
10747TIP3    H253657   4.446   2.248   0.669  2.8524  0.3059  0.4393
10748TIP3   OH253658   5.816   0.431   3.196 -0.4033  0.1238 -0.3798
10748TIP3    H153659   5.869   0.507   3.172  0.9952 -0.6881  0.0261
10748TIP3    H253660   5.872   0.380   3.254 -1.1423 -1.4670 -1.0140
10749TIP3   OH253661   4.672   4.232  16.723 -0.1808 -0.4133 -0.0908
10749TIP3    H153662   4.665   4.219  16.629  0.2261 -0.0593 -0.1719
10749TIP3    H253663   4.724   4.158  16.754 -0.3437 -0.5482 -0.1363
10750TIP3   OH253664   5.870   2.558  14.640  0.3542 -0.5214 -0.0782
10750TIP3    H153665   5.816   2.484  14.668  1.1396 -0.2297  2.4435
10750TIP3    H253666   5.817   2.635  14.661 -0.0060 -0.3005 -1.6747
10751TIP3   OH253667   0.605   0.544  14.000  0.2274 -0.4981  0.5494
10751TIP3    H153668   0.529   0.597  14.024 -0.1649 -1.9111  2.7112
10751TIP3    H253669   0.666   0.555  14.072  1.0576 -1.2858 -0.0014
10752TIP3   OH253670   6.610   6.522   2.040  0.2971 -0.2575 -0.5508
10752TIP3    H153671   6.601   6.556   1.951 -2.5343 -0.4583 -0.4425
10752TIP3    H253672   6.702   6.534   2.062  0.5843  2.0156 -2.6202
10753TIP3   OH253673   6.541   0.518  15.692  0.5023 -0.5481 -0.5266
10753TIP3    H153674   6.578   0.462  15.760  2.5771  0.7268 -0.4871
10753TIP3    H253675   6.478   0.573  15.737  1.0208 -0.5032  0.1620
10754TIP3   OH253676   0.440   5.088   0.511  0.3041  0.1624 -0.5582
10754TIP3    H153677   0.347   5.089   0.532  0.1623 -0.5795 -1.0980
10754TIP3    H253678   0.484   5.068   0.593 -0.1555 -1.5120 -0.6893
10755TIP3   OH253679   3.701   2.900   1.177  0.2907 -0.0054 -0.3346
10755TIP3    H153680   3.762   2.866   1.112 -0.1986 -2.6558  0.4753
10755TIP3    H253681   3.621   2.919   1.128 -0.6501 -3.5860 -0.4037
10756TIP3   OH253682   2.222   2.767   1.781  0.4316 -0.2115 -0.2566
10756TIP3    H153683   2.264   2.842   1.738  0.5305 -1.6036 -2.7621
10756TIP3    H253684   2.133   2.797   1.798  0.5775  0.6223 -0.8648
10757TIP3   OH253685   0.363   4.104  17.063 -0.3336  0.2362  0.0405
10757TIP3    H153686   0.368   4.176  17.001  1.0765 -0.4626 -0.6967
10757TIP3    H253687   0.305   4.040  17.022  0.9593 -0.4288 -0.8267
10758TIP3   OH253688   3.371   2.553  13.290  0.5226  0.5397  0.4041
10758TIP3    H153689   3.392   2.460  13.295  0.0257  0.4042 -0.0084
10758TIP3    H253690   3.277   2.557  13.304  0.3933  0.8938 -0.5550
10759TIP3   OH253691   3.439   0.459  15.245  0.1018 -0.8060  0.1113
10759TIP3    H153692   3.499   0.477  15.318 -0.4025  0.7169  0.1799
10759TIP3    H253693   3.473   0.379  15.205  0.6332 -1.4444  1.7621
10760TIP3   OH253694   6.686   4.466  16.445  0.2342  0.5808 -0.8932
10760TIP3    H153695   6.671   4.382  16.489  0.5787  1.0495  0.1509
10760TIP3    H253696   6.612   4.476  16.385 -0.8626  0.4688  0.4193
10761TIP3   OH253697   2.145   3.239  16.919 -0.1851  0.2863  0.2492
10761TIP3    H153698   2.207   3.205  16.854 -0.8376 -0.0483 -0.2220
10761TIP3    H253699   2.115   3.161  16.966  2.9027  0.7959  3.4655
10762TIP3   OH253700   6.456   6.619   5.838 -0.3957 -0.1446  0.8868
10762TIP3    H153701   6.532   6.651   5.887 -0.2003 -0.8799  1.0838
10762TIP3    H253702   6.427   6.693   5.786  0.5700  0.0947  0.6820
10763TIP3   OH253703   0.527   5.995  15.029 -0.1167 -0.1141  0.4095
10763TIP3    H153704   0.617   6.011  15.056  0.4056  1.1253 -1.8609
10763TIP3    H253705   0.533   5.927  14.962 -0.6699  0.9346 -0.7539
10764TIP3   OH253706   4.808   4.115   1.984  0.6041  0.3428  0.4680
10764TIP3    H153707   4.897   4.090   2.006  1.4738  3.1230  0.4541
10764TIP3    H253708   4.808   4.125   1.889  0.0840 -0.2656  0.3980
10765TIP3   OH253709   1.232   1.307   4.360  0.7661  0.2436 -0.0975
10765TIP3    H153710   1.230   1.260   4.276  1.5061 -1.3003  0.7008
10765TIP3    H253711   1.204   1.241   4.424  0.2340  1.3894  0.8813
10766TIP3   OH253712   0.094   5.535   4.154 -1.0285  0.6222 -0.4357
10766TIP3    H153713   0.114   5.513   4.245  0.2891 -0.5604 -0.9713
10766TIP3    H253714   0.019   5.594   4.159  0.1991  2.1694  1.5497
10767TIP3   OH253715   3.658   5.037   2.727 -0.0482 -0.3535 -0.1417
10767TIP3    H153716   3.579   5.073   2.685 -0.1788 -0.5455 -0.0650
10767TIP3    H253717   3.624   4.970   2.787  0.2081 -0.8001 -0.4869
10768TIP3   OH253718   5.355   0.398  13.032 -0.3556  0.6909 -0.3650
10768TIP3    H153719   5.422   0.339  13.066 -0.4840 -0.0360 -1.3347
10768TIP3    H253720   5.315   0.437  13.110  0.2674  0.0939  0.2638
10769TIP3   OH253721   5.964   0.958   4.064  0.1304  0.0072 -0.1230
10769TIP3    H153722   5.905   0.910   4.123 -0.0634  0.5179  0.1053
10769TIP3    H253723   5.959   0.911   3.981  0.6267 -0.8907  0.3465
10770TIP3   OH253724   5.352   0.607   5.924  0.0256  0.2419 -0.6365
10770TIP3    H153725   5.265   0.646   5.926  0.1773  0.6915 -2.0295
10770TIP3    H253726   5.411   0.677   5.952  0.0930  0.4037 -1.1813
10771TIP3   OH253727   3.893   6.392  16.905  0.0253 -0.7023 -0.2254
10771TIP3    H153728   3.895   6.374  16.999  0.7577 -1.9783 -0.4534
10771TIP3    H253729   3.976   6.357  16.873 -0.9261 -1.8138 -1.5875
10772TIP3   OH253730   5.600   3.189   0.463  0.2115 -0.4928 -0.0748
10772TIP3    H153731   5.524   3.239   0.433 -0.2775 -0.9025  0.4485
10772TIP3    H253732   5.653   3.176   0.384  0.8057  1.5812 -0.0846
10773TIP3   OH253733   5.909   6.574   6.397 -0.0501 -0.2551 -0.0682
10773TIP3    H153734   5.818   6.555   6.374 -0.3475  1.4976 -0.4601
10773TIP3    H253735   5.903   6.636   6.470  0.8227 -0.0101 -0.1930
10774TIP3   OH253736   1.529   5.053   2.649 -0.5775 -0.2235  0.0138
10774TIP3    H153737   1.499   4.996   2.720  1.1718 -1.7678 -0.4302
10774TIP3    H253738   1.551   4.993   2.578  0.8607  1.0350 -0.6495
10775TIP3   OH253739   0.169   1.698  15.345  0.0728  0.3806 -0.4281
10775TIP3    H153740   0.206   1.621  15.387 -1.8756 -1.2693 -1.5469
10775TIP3    H253741   0.111   1.663  15.278  2.1740  2.7865 -3.8637
10776TIP3   OH253742   1.841   1.051  16.413  0.3295  0.3261  0.1165
10776TIP3    H153743   1.895   1.050  16.334 -0.9415  1.3916 -0.8169
10776TIP3    H253744   1.805   0.963  16.419 -0.4638  0.5212 -1.1922
10777TIP3   OH253745   0.260   2.339   1.154  0.3293  0.1769 -0.0857
10777TIP3    H153746   0.296   2.276   1.092 -0.5211 -1.0454  0.5997
10777TIP3    H253747   0.251   2.420   1.105  1.2539 -0.2919 -1.0609
10778TIP3   OH253748   3.459   1.929   5.679  0.1931 -0.0184  0.6863
10778TIP3    H153749   3.511   2.009   5.683  1.6603 -0.8894  0.0608
10778TIP3    H253750   3.399   1.943   5.605  0.6715  0.3733  0.3634
10779TIP3   OH253751   5.503   6.286  14.077  0.2066 -0.2672 -0.5828
10779TIP3    H153752   5.452   6.336  14.013  0.3533 -0.1941 -0.6429
10779TIP3    H253753   5.441   6.221  14.111  0.8667 -2.2139 -2.8696
10780TIP3   OH253754   2.357   0.096  12.537 -0.0125  0.4919 -0.2252
10780TIP3    H153755   2.452   0.108  12.539  0.1165 -0.4612 -0.3268
10780TIP3    H253756   2.322   0.184  12.525  0.8893  0.7565 -1.0351
10781TIP3   OH253757   1.118   2.647  10.764  0.1001 -0.3882  0.1448
10781TIP3    H153758   1.111   2.552  10.761 -1.2277 -0.4746  2.8995
10781TIP3    H253759   1.206   2.664  10.798 -0.3060 -0.7498  1.4399
10782TIP3   OH253760   3.092   5.315   4.589  0.0319 -0.2168  0.6653
10782TIP3    H153761   3.006   5.334   4.629  0.3616 -0.2815  1.4310
10782TIP3    H253762   3.072   5.299   4.497 -0.6545  0.7452  0.6249
10783TIP3   OH253763   5.918   2.972  16.781  0.3369 -0.5623 -0.7377
10783TIP3    H153764   5.963   2.998  16.861 -2.3413 -0.5939  0.8641
10783TIP3    H253765   5.833   3.014  16.786 -1.4466 -3.7329 -1.5711
10784TIP3   OH253766   5.588   4.151  15.751  0.0145 -0.8906 -0.4823
10784TIP3    H153767   5.547   4.065  15.753  1.2195 -1.4790  0.5179
10784TIP3    H253768   5.608   4.170  15.842 -1.2896  1.0101 -0.5368
10785TIP3   OH253769   0.807   2.620   2.208  0.3666  0.3057 -0.0780
10785TIP3    H153770   0.754   2.694   2.178  2.2906  1.1072 -1.7021
10785TIP3    H253771   0.837   2.646   2.295  0.5754  1.2233 -0.4088
10786TIP3   OH253772   2.048   0.327  15.338 -0.0111  0.1693 -0.0608
10786TIP3    H153773   2.136   0.360  15.318 -0.4634  1.0319 -0.6309
10786TIP3    H253774   1.993   0.358  15.266 -1.1988  1.3766  1.3160
10787TIP3   OH253775   1.387   2.526   1.668 -0.1614 -0.2789  0.0084
10787TIP3    H153776   1.390   2.616   1.701 -0.8512 -0.4286  0.5250
10787TIP3    H253777   1.358   2.474   1.744  1.6100 -1.1526  0.1350
10788TIP3   OH253778   5.962   6.151  11.676 -0.7169 -0.0870 -0.3911
10788TIP3    H153779   5.884   6.204  11.659 -0.8885  0.0256  0.7215
10788TIP3    H253780   5.986   6.118  11.589 -0.7646  1.5752 -1.0839
10789TIP3   OH253781   6.148   4.508   4.393  0.2054  0.1606 -0.4472
10789TIP3    H153782   6.089   4.446   4.351  0.6329 -1.3692  1.0605
10789TIP3    H253783   6.113   4.517   4.482  0.8400  1.1538 -0.2879
10790TIP3   OH253784   5.273   5.255  11.675  0.7174 -0.5007 -0.2519
10790TIP3    H153785   5.285   5.255  11.580  2.3270 -2.5471 -0.1252
10790TIP3    H253786   5.183   5.229  11.689  0.1142  0.9518 -1.1871
10791TIP3   OH253787   5.894   1.321  15.111  0.1433  0.4889 -0.0725
10791TIP3    H153788   5.975   1.271  15.121  0.8704  1.4453 -1.0031
10791TIP3    H253789   5.824   1.256  15.122  1.0387 -0.4444  0.2226
10792TIP3   OH253790   6.501   6.589  15.548 -0.0787  0.4963 -0.3423
10792TIP3    H153791   6.575   6.626  15.501 -0.1067 -2.9856 -3.6489
10792TIP3    H253792   6.424   6.619  15.499 -0.2227 -1.8477 -1.7087
10793TIP3   OH253793   3.831   5.820   0.573  0.0929 -0.2705  0.0376
10793TIP3    H153794   3.913   5.774   0.555 -1.5780 -2.6477 -2.3413
10793TIP3    H253795   3.821   5.881   0.501 -0.9310 -1.1750 -0.6309
10794TIP3   OH253796   0.067   2.789   5.604 -0.0793  0.2553  0.0406
10794TIP3    H153797   0.117   2.841   5.666 -0.1035 -0.3599  0.5897
10794TIP3    H253798   0.014   2.731   5.658  0.8575 -1.2053 -0.5474
10795TIP3   OH253799   6.523   4.291   6.164  0.4734 -0.6249  0.4688
10795TIP3    H153800   6.446   4.245   6.131  0.2159  0.2581 -0.2074
10795TIP3    H253801   6.597   4.237   6.136  0.1164 -1.5537  1.2436
10796TIP3   OH253802   6.522   5.914   3.603 -0.2179  0.0596 -0.4477
10796TIP3    H153803   6.560   5.845   3.549 -1.2837 -0.7843 -0.1653
10796TIP3    H253804   6.492   5.980   3.541  1.0063  0.4009 -0.7092
10797TIP3   OH253805   3.252   6.529   1.585  0.1875  0.2710  0.2783
10797TIP3    H153806   3.313   6.552   1.655  0.9043  1.2845 -0.6526
10797TIP3    H253807   3.254   6.433   1.582 -0.7618  0.1193  2.3995
10798TIP3   OH253808   2.774   5.925  13.809  0.4157 -0.4082  0.1998
10798TIP3    H153809   2.695   5.930  13.754 -0.0314  0.0508  0.8639
10798TIP3    H253810   2.805   5.835  13.799 -1.6953 -1.4278  1.9523
10799TIP3   OH253811   4.493   5.467   3.025 -0.3460  0.1205  0.5538
10799TIP3    H153812   4.450   5.493   3.106 -0.3894 -1.2196  0.9811
10799TIP3    H253813   4.433   5.495   2.956 -1.4629 -0.8607  1.0938
10800TIP3   OH253814   0.590   2.146  16.120  0.3206 -0.7317 -0.2964
10800TIP3    H153815   0.573   2.239  16.105  0.5173 -0.7307 -0.5355
10800TIP3    H253816   0.659   2.145  16.187 -0.5111 -0.7339  0.5798
10801TIP3   OH253817   0.561   0.662  14.989 -0.1143  0.5912  0.1105
10801TIP3    H153818   0.527   0.638  15.075 -0.2694  0.1329 -0.0735
10801TIP3    H253819   0.488   0.707  14.946 -0.6963 -0.8226 -0.4667
10802TIP3   OH253820   0.729   5.841  15.178  0.4670 -0.1607  0.5632
10802TIP3    H153821   0.650   5.807  15.221  0.5225 -1.0712 -0.0320
10802TIP3    H253822   0.757   5.770  15.120  0.7109  0.8186 -0.5638
10803TIP3   OH253823   5.146   2.297  11.288 -0.4228 -0.5936 -0.0983
10803TIP3    H153824   5.120   2.305  11.196 -0.1702  0.4546 -0.0871
10803TIP3    H253825   5.148   2.387  11.321 -1.7072 -1.0282  1.2767
10804TIP3   OH253826   5.804   1.591  16.824  0.2979 -0.1896 -0.1449
10804TIP3    H153827   5.757   1.509  16.836  0.3433 -0.2943 -0.6380
10804TIP3    H253828   5.784   1.617  16.734 -1.3951  1.4277  0.6525
10805TIP3   OH253829   3.671   6.701  13.345 -0.0846  0.0150 -0.1353
10805TIP3    H153830   3.689   6.774  13.405  0.7453 -0.9172  0.8073
10805TIP3    H253831   3.651   6.743  13.261  2.1644  1.3420 -0.1167
10806TIP3   OH253832   5.648   1.433  11.849  0.3097  0.1330  0.5776
10806TIP3    H153833   5.625   1.507  11.906 -1.0734 -1.3796  2.1077
10806TIP3    H253834   5.613   1.457  11.763 -0.2041  1.2144  1.0657
10807TIP3   OH253835   1.155   5.115   5.311 -0.2813 -0.7958 -0.6165
10807TIP3    H153836   1.088   5.173   5.347 -0.0676  1.7439 -3.8861
10807TIP3    H253837   1.233   5.134   5.364 -0.3064  1.8046 -1.3696
10808TIP3   OH253838   4.582   3.929  12.713 -0.9732 -0.0896  0.3360
10808TIP3    H153839   4.615   3.841  12.693 -1.3522 -0.2826  0.5316
10808TIP3    H253840   4.615   3.984  12.643 -0.2549 -0.2784  0.5207
10809TIP3   OH253841   4.452   1.341  12.978 -0.2376  0.4201  0.0835
10809TIP3    H153842   4.503   1.406  12.929 -4.2316  0.9535 -3.9856
10809TIP3    H253843   4.368   1.384  12.994 -1.3238 -2.1123  1.7806
10810TIP3   OH253844   0.186   5.055   3.294  0.9300  0.5396  0.0615
10810TIP3    H153845   0.138   4.989   3.344  0.0439  1.6414  0.7203
10810TIP3    H253846   0.270   5.014   3.274  0.6866 -0.5066  1.0901
10811TIP3   OH253847   5.340   3.121   5.882 -0.1134  0.0305 -0.0401
10811TIP3    H153848   5.342   3.160   5.970  0.7466  1.5511 -0.7016
10811TIP3    H253849   5.427   3.083   5.871  0.2438  1.0150 -0.7211
10812TIP3   OH253850   4.178   5.216  16.985  0.0354  0.2029 -0.0132
10812TIP3    H153851   4.175   5.261  16.900  0.0620  2.1840  0.9609
10812TIP3    H253852   4.087   5.197  17.006 -0.1024  0.9347  0.0926
10813TIP3   OH253853   2.886   4.240   5.453  0.2187  0.4438 -0.3066
10813TIP3    H153854   2.862   4.181   5.382  1.0751  0.9802 -1.0638
10813TIP3    H253855   2.819   4.308   5.452  0.8369  1.0600 -1.3543
10814TIP3   OH253856   3.304   5.670  16.316 -0.2983 -0.1493  0.1566
10814TIP3    H153857   3.216   5.642  16.344  0.2436  0.1825  2.3384
10814TIP3    H253858   3.329   5.738  16.378  2.0806 -1.2243  0.5009
10815TIP3   OH253859   2.374   1.190   5.464  0.1971 -0.0663 -0.3334
10815TIP3    H153860   2.389   1.270   5.413 -0.5766  1.6931  2.0161
10815TIP3    H253861   2.414   1.207   5.549 -0.4033 -2.0102  0.4070
10816TIP3   OH253862   6.409   6.396  13.813 -0.1857 -0.0258 -0.3620
10816TIP3    H153863   6.439   6.331  13.750  1.2801 -1.8725  2.0755
10816TIP3    H253864   6.465   6.472  13.796  0.0895 -0.4281 -1.3534
10817TIP3   OH253865   0.731   0.800   3.472 -0.6513  0.7471  0.0234
10817TIP3    H153866   0.687   0.862   3.531  0.5736  2.1299 -0.4494
10817TIP3    H253867   0.670   0.789   3.399 -0.6345  1.9191 -0.1885
10818TIP3   OH253868   3.976   1.995  16.472  0.0710  0.1451  0.9155
10818TIP3    H153869   3.955   1.961  16.385 -0.8567 -0.5418  1.3983
10818TIP3    H253870   3.894   1.991  16.520  0.6579  0.1940  1.9439
10819TIP3   OH253871   4.891   6.247   5.145 -1.2577  0.4268  0.7057
10819TIP3    H153872   4.900   6.154   5.165  0.2006  0.6002  0.9908
10819TIP3    H253873   4.831   6.250   5.070 -0.4493 -0.8398 -0.0317
10820TIP3   OH253874   0.059   0.003  12.736  0.0382 -0.0521  0.4484
10820TIP3    H153875   0.063   0.098  12.728  1.3773  0.1467  2.7375
10820TIP3    H253876   0.047  -0.028  12.646 -0.3719  2.2482 -0.3547
10821TIP3   OH253877   3.625   5.485  14.462 -0.2400 -0.1560 -0.3977
10821TIP3    H153878   3.599   5.409  14.513 -2.1316  0.2994 -0.6196
10821TIP3    H253879   3.706   5.515  14.503 -0.1184 -1.5594  0.4371
10822TIP3   OH253880   2.686   0.819   2.986 -0.2636 -0.1217 -0.3116
10822TIP3    H153881   2.722   0.737   3.021  2.5911  0.9238 -0.5134
10822TIP3    H253882   2.740   0.838   2.909 -2.3668  0.8231 -1.6435
10823TIP3   OH253883   2.077   0.721  11.341 -0.3132 -0.1205  0.1689
10823TIP3    H153884   2.130   0.796  11.368 -0.9580 -0.1763  1.7341
10823TIP3    H253885   2.070   0.729  11.246  1.7070  0.3783  0.0323
10824TIP3   OH253886   2.675   5.716   3.254 -0.5258 -0.0652  0.0467
10824TIP3    H153887   2.585   5.749   3.246 -0.8981 -1.2626 -1.0187
10824TIP3    H253888   2.673   5.629   3.214  1.0822 -0.1929  0.1587
10825TIP3   OH253889   6.747   1.943  16.532 -0.3040  0.9503 -0.2261
10825TIP3    H153890   6.699   1.980  16.606  2.5820  1.1187  1.7353
10825TIP3    H253891   6.756   1.850  16.553  0.7571  1.0457 -0.1845
10826TIP3   OH253892   0.148   2.276  16.834  0.5861  0.5087  0.2286
10826TIP3    H153893   0.076   2.266  16.896  1.1945  1.2848  1.0870
10826TIP3    H253894   0.105   2.280  16.748 -0.3155  0.1065  0.6519
10827TIP3   OH253895   1.274   0.909  14.283  0.1508 -0.7168  0.9165
10827TIP3    H153896   1.264   0.907  14.378 -1.3441 -0.3338  0.8015
10827TIP3    H253897   1.195   0.865  14.250 -0.9096  1.7743 -0.1764
10828TIP3   OH253898   4.048   5.576  10.987  0.2561  0.1369 -0.4260
10828TIP3    H153899   4.105   5.649  11.012 -0.3509  0.9288 -1.2814
10828TIP3    H253900   4.049   5.576  10.892 -1.6687  0.5973 -0.4933
10829TIP3   OH253901   1.970   4.067  12.372  0.3270  0.0309  0.1358
10829TIP3    H153902   1.904   4.091  12.307 -0.0538 -0.5018  0.3200
10829TIP3    H253903   1.978   3.972  12.365 -1.8324 -0.4785  2.8141
10830TIP3   OH253904   2.527   3.926   1.105  0.1703  0.6008  0.0208
10830TIP3    H153905   2.532   3.866   1.030 -0.9165  0.4259  0.0638
10830TIP3    H253906   2.612   3.918   1.148 -0.0137 -1.0867  0.1457
10831TIP3   OH253907   4.485   0.884   2.000 -0.1489  0.4199 -0.4197
10831TIP3    H153908   4.484   0.918   2.090 -0.6279  0.2445 -0.3548
10831TIP3    H253909   4.577   0.886   1.975  0.4976 -2.4875  1.2017
10832TIP3   OH253910   2.783   6.516   3.969 -0.5452 -0.5567  0.0585
10832TIP3    H153911   2.838   6.508   3.892  0.5183 -1.8034  0.9140
10832TIP3    H253912   2.701   6.473   3.944 -0.0448 -1.3605 -0.2267
10833TIP3   OH253913   1.406   0.854  15.877 -0.4639  0.1971  0.5175
10833TIP3    H153914   1.486   0.863  15.930 -0.2799  1.6144  0.0586
10833TIP3    H253915   1.371   0.943  15.872 -1.3462 -0.1810 -0.4032
10834TIP3   OH253916   2.766   0.117  15.696  0.3216 -0.7452  0.2894
10834TIP3    H153917   2.724   0.114  15.782  0.1972 -0.9483  0.2226
10834TIP3    H253918   2.840   0.057  15.703 -1.3238 -3.0195 -0.5970
10835TIP3   OH253919   5.904   0.974  12.045  0.6260  0.4819  0.7864
10835TIP3    H153920   5.983   0.973  11.992 -0.0542 -2.8499 -0.3888
10835TIP3    H253921   5.832   0.967  11.982 -0.4072 -0.1147  1.9827
10836TIP3   OH253922   2.133   2.902  12.013 -0.0528 -0.2706  0.3904
10836TIP3    H153923   2.181   2.966  11.961  0.6212  0.2700  1.6354
10836TIP3    H253924   2.068   2.954  12.061  1.8917 -0.0848  3.0681
10837TIP3   OH253925   3.793   3.780  15.199 -0.4238 -0.6843  0.2138
10837TIP3    H153926   3.859   3.763  15.132 -0.9662 -1.9107 -0.0255
10837TIP3    H253927   3.814   3.720  15.270 -1.2818 -1.1123  0.1222
10838TIP3   OH253928   2.763   2.087   1.330  0.0169 -0.5495 -0.5112
10838TIP3    H153929   2.822   2.160   1.345 -1.3042  1.0390 -2.4984
10838TIP3    H253930   2.707   2.084   1.407  1.1668 -0.5765  0.3373
10839TIP3   OH253931   3.841   3.334   3.551 -0.3953 -0.3382 -0.3278
10839TIP3    H153932   3.900   3.270   3.591  0.2072 -0.6174 -1.5921
10839TIP3    H253933   3.899   3.390   3.500 -1.2192 -0.7461 -1.7776
10840TIP3   OH253934   0.083   0.770  14.989 -0.2518  1.0261 -0.5229
10840TIP3    H153935   0.148   0.812  14.932 -1.2203  1.8934 -1.0358
10840TIP3    H253936   0.123   0.771  15.076 -0.3734  3.4637 -0.4157
10841TIP3   OH253937   4.058   4.367   0.716 -0.1010 -0.0636  0.4064
10841TIP3    H153938   4.145   4.331   0.730 -0.3487 -0.1983  1.7853
10841TIP3    H253939   4.002   4.291   0.702 -0.0668 -0.0059 -0.0381
10842TIP3   OH253940   2.047   0.186   3.860  0.4170  0.1494  0.4733
10842TIP3    H153941   2.049   0.090   3.858  1.3598  0.0984  2.1446
10842TIP3    H253942   1.960   0.207   3.893 -0.4987 -0.0349 -1.6743
10843TIP3   OH253943   1.871   3.344  16.787 -0.0463  0.2484 -0.8592
10843TIP3    H153944   1.907   3.433  16.780  1.8248 -0.4450 -0.6507
10843TIP3    H253945   1.937   3.296  16.837 -1.8866 -0.8280  0.6186
10844TIP3   OH253946   6.665   0.088  16.378 -0.5960 -0.0406 -0.1714
10844TIP3    H153947   6.620   0.113  16.458  2.0788  0.9688  1.1196
10844TIP3    H253948   6.637   0.153  16.313 -1.2629  0.3084  0.4502
10845TIP3   OH253949   2.592   0.958   3.296 -0.3868  0.1177 -0.0541
10845TIP3    H153950   2.585   0.872   3.256 -1.9785  1.0304 -1.9242
10845TIP3    H253951   2.666   0.999   3.250 -0.9560  0.4666 -0.6722
10846TIP3   OH253952   0.752   4.257  15.946 -0.1383  0.1510  0.2224
10846TIP3    H153953   0.677   4.198  15.938 -0.0436  0.1618 -0.8455
10846TIP3    H253954   0.713   4.341  15.970 -0.7798  0.7970 -2.7052
10847TIP3   OH253955   3.735   1.950  16.349 -0.2542 -0.3341  0.0941
10847TIP3    H153956   3.712   1.935  16.441  0.1182 -0.4226  0.1718
10847TIP3    H253957   3.673   1.895  16.300  0.9097 -1.9525  0.3657
10848TIP3   OH253958   5.458   4.721  10.748  0.0613  0.3100 -0.1045
10848TIP3    H153959   5.520   4.785  10.783 -0.1158 -0.3459  1.4961
10848TIP3    H253960   5.472   4.643  10.802 -1.5937 -0.1195 -0.2574
10849TIP3   OH253961   0.606   0.916  13.313  0.8888 -0.5090 -0.0955
10849TIP3    H153962   0.624   0.879  13.227 -1.8093  0.4155 -1.1741
10849TIP3    H253963   0.590   1.009  13.296 -0.4691 -0.4624  1.2493
10850TIP3   OH253964   0.496   1.726   3.517 -0.1306 -0.3697 -0.1038
10850TIP3    H153965   0.530   1.774   3.593 -0.6331 -1.5866  0.9237
10850TIP3    H253966   0.440   1.658   3.555 -0.3494 -1.0457 -1.5758
10851TIP3   OH253967   2.236   6.240   0.237 -0.0493  0.0384 -0.1207
10851TIP3    H153968   2.313   6.218   0.186  0.8294 -0.3920  1.3381
10851TIP3    H253969   2.269   6.292   0.310 -1.2845  0.7688 -0.0490
10852TIP3   OH253970   6.614   3.026   2.232  0.3940  0.0609  0.1715
10852TIP3    H153971   6.560   2.956   2.193  0.1056  0.4559 -0.1503
10852TIP3    H253972   6.650   3.072   2.157  0.6588  0.2044  0.3870
10853TIP3   OH253973   5.740   6.693   3.476  0.2248  0.2276 -0.0272
10853TIP3    H153974   5.709   6.611   3.515 -0.8462 -0.7171 -2.6217
10853TIP3    H253975   5.835   6.689   3.486  0.1267 -0.8983  0.6990
10854TIP3   OH253976   5.427   3.495  14.010 -0.6099 -0.3528 -0.3242
10854TIP3    H153977   5.521   3.508  14.002 -0.3007 -2.2010 -0.0186
10854TIP3    H253978   5.396   3.489  13.919 -0.6020  1.0961 -0.4513
10855TIP3   OH253979   6.568   5.360   2.986  0.2943  0.0487  0.5188
10855TIP3    H153980   6.601   5.449   2.998 -0.9050  0.2548  2.9209
10855TIP3    H253981   6.535   5.358   2.896  0.6425  1.9290  0.3199
10856TIP3   OH253982   6.247   3.531   0.285 -0.8004 -0.6296 -0.3843
10856TIP3    H153983   6.328   3.578   0.308  0.5455 -1.3325 -3.3005
10856TIP3    H253984   6.267   3.440   0.305 -1.1351 -0.7286 -0.5070
10857TIP3   OH253985   0.999   5.670  12.551 -0.0623 -0.0976  0.4380
10857TIP3    H153986   0.999   5.587  12.598  1.6998  0.4351  1.4810
10857TIP3    H253987   1.035   5.733  12.614  0.6531  1.0214 -1.0248
10858TIP3   OH253988   0.806   0.235   0.546 -0.1307 -0.2976 -0.2507
10858TIP3    H153989   0.786   0.319   0.504  2.0363  0.7551  0.6564
10858TIP3    H253990   0.754   0.171   0.498 -2.6419  1.6513 -0.3516
10859TIP3   OH253991   4.482   1.674  11.829 -0.0005 -1.3968 -0.2206
10859TIP3    H153992   4.518   1.650  11.915  1.4672  0.5374 -0.2369
10859TIP3    H253993   4.507   1.602  11.771  2.9234 -0.7127  0.0384
10860TIP3   OH253994   5.715   1.536  12.627 -0.1707  0.0126 -0.3808
10860TIP3    H153995   5.673   1.565  12.546  0.9136  0.7726 -0.6889
10860TIP3    H253996   5.753   1.615  12.664  0.6850 -0.5951  0.0700
10861TIP3   OH253997   0.331   0.677   5.692  0.1355 -0.2637  0.2521
10861TIP3    H153998   0.309   0.730   5.769  0.1351 -0.7476  0.5944
10861TIP3    H253999   0.356   0.592   5.729 -1.3220 -0.9908 -0.3529
10862TIP3   OH254000   2.330   3.374  14.038 -0.9393  0.6313 -0.5411
10862TIP3    H154001   2.246   3.362  13.993  0.4105  0.1763 -3.1606
10862TIP3    H254002   2.395   3.378  13.967  1.2154  1.5159  1.3407
10863TIP3   OH254003   3.460   6.069   4.623 -0.3779  0.4263  0.9480
10863TIP3    H154004   3.396   6.000   4.640 -1.6731  1.5663  0.8705
10863TIP3    H254005   3.477   6.064   4.529 -1.7497  1.2471  0.6297
10864TIP3   OH254006   5.044   1.505  11.672 -0.7076 -0.4650 -1.1026
10864TIP3    H154007   5.072   1.530  11.584 -0.2089  0.9684 -0.5553
10864TIP3    H254008   4.957   1.542  11.682 -0.4972 -0.0542 -0.7606
10865TIP3   OH254009   5.179   2.312  12.250  0.1440 -0.2657  0.4860
10865TIP3    H154010   5.172   2.304  12.155 -0.5587  0.5103  0.4630
10865TIP3    H254011   5.091   2.335  12.280  0.8504  1.9524  1.0405
10866TIP3   OH254012   2.772   2.780   4.530 -0.1707  0.1294  1.0073
10866TIP3    H154013   2.726   2.712   4.580 -0.3078  0.3048  1.1241
10866TIP3    H254014   2.852   2.795   4.580 -0.3436  0.3586  1.2201
10867TIP3   OH254015   2.066   1.746   6.165 -0.4222 -0.2277  0.1774
10867TIP3    H154016   2.154   1.777   6.142 -0.3890 -0.8863 -0.6411
10867TIP3    H254017   2.079   1.654   6.188 -0.7261 -0.0211  1.2096
10868TIP3   OH254018   2.934   3.658   6.115  0.2052 -0.2475 -0.1553
10868TIP3    H154019   2.841   3.675   6.123  0.4402  0.1599  2.4869
10868TIP3    H254020   2.945   3.569   6.149  0.8973  0.0862  0.5114
10869TIP3   OH254021   3.407   1.823   1.372  0.1364  0.0492  0.0520
10869TIP3    H154022   3.451   1.767   1.308  0.4324  1.3422 -0.8995
10869TIP3    H254023   3.461   1.901   1.378  0.2611 -0.1242  2.0994
10870TIP3   OH254024   0.768   2.084  13.142  0.0750 -0.4574  0.4754
10870TIP3    H154025   0.723   2.089  13.227  1.1179  0.4886  1.0025
10870TIP3    H254026   0.839   2.147  13.150  0.1302 -0.2851 -1.1521
10871TIP3   OH254027   6.280   6.505   0.027 -0.4567  0.1087 -0.2596
10871TIP3    H154028   6.344   6.498   0.099  0.1124  1.8578 -0.5634
10871TIP3    H254029   6.199   6.531   0.070 -0.1043  1.2032 -0.2420
10872TIP3   OH254030   5.671   1.304  11.320  0.4566 -0.2394  0.2111
10872TIP3    H154031   5.587   1.317  11.275  0.5183 -0.3684  0.0569
10872TIP3    H254032   5.732   1.361  11.274  0.8819 -1.5424 -0.9072
10873TIP3   OH254033   5.565   6.065   4.486  0.1115  0.3259  0.0137
10873TIP3    H154034   5.542   6.032   4.573  1.9911 -1.1726  0.0129
10873TIP3    H254035   5.653   6.102   4.497  0.0744  0.7971 -1.1044
10874TIP3   OH254036   5.644   5.703  13.873  0.5487  0.7479  0.2243
10874TIP3    H154037   5.706   5.640  13.908 -1.6686 -1.4801  0.4257
10874TIP3    H254038   5.669   5.715  13.782  0.2816 -1.5002 -0.1981
10875TIP3   OH254039   5.274   2.958  12.905 -0.2558 -0.2918 -0.4028
10875TIP3    H154040   5.240   2.869  12.897 -0.3700 -0.2825 -0.0167
10875TIP3    H254041   5.356   2.949  12.952 -0.3045 -0.1829 -0.2974
10876TIP3   OH254042   5.389   3.877  14.787  0.0310 -0.1175  0.2098
10876TIP3    H154043   5.302   3.886  14.824 -0.1017  1.6933 -0.4750
10876TIP3    H254044   5.375   3.829  14.705 -0.1838 -0.6313  0.5402
10877TIP3   OH254045   0.032   0.634   3.382  0.5886 -0.1223  0.0206
10877TIP3    H154046   0.064   0.642   3.292  0.3433  0.4195 -0.0249
10877TIP3    H254047   0.109   0.605   3.432  0.2622 -2.3099 -0.6587
10878TIP3   OH254048   3.672   4.684   2.676  0.2616  0.4210 -0.3512
10878TIP3    H154049   3.631   4.613   2.628  0.9748  0.2559 -0.7232
10878TIP3    H254050   3.764   4.681   2.650  0.6304  0.4312  0.8872
10879TIP3   OH254051   0.382   1.459  11.072 -0.5610  0.2828 -0.1223
10879TIP3    H154052   0.448   1.492  11.132  0.1413 -0.6137 -0.3906
10879TIP3    H254053   0.350   1.379  11.113 -0.8253  0.2202 -0.4465
10880TIP3   OH254054   3.778   6.637  12.374  0.0474  0.7382  0.0138
10880TIP3    H154055   3.693   6.601  12.348  1.1251 -2.7347  0.8028
10880TIP3    H254056   3.832   6.629  12.296 -0.3385  3.3093 -0.6081
10881TIP3   OH254057   3.679   3.917  14.050  0.5767  0.1630  0.3077
10881TIP3    H154058   3.600   3.960  14.016 -0.7998  0.1308  3.2157
10881TIP3    H254059   3.668   3.825  14.025 -0.2056  0.1969  0.5144
10882TIP3   OH254060   4.949   5.768   0.434 -0.5033 -0.5007 -0.1371
10882TIP3    H154061   4.976   5.679   0.411 -1.9874 -0.8851 -0.4707
10882TIP3    H254062   4.887   5.793   0.366 -1.2878  0.2038  0.8104
10883TIP3   OH254063   4.934   5.398   5.383  0.3664  0.4722 -0.1123
10883TIP3    H154064   4.882   5.467   5.342 -1.5637  0.9159  2.7712
10883TIP3    H254065   5.012   5.443   5.417 -0.4799  1.1500  1.0251
10884TIP3   OH254066   6.260   5.919   0.688  0.6213 -0.5045 -0.0612
10884TIP3    H154067   6.296   6.007   0.699  0.4274 -0.1900 -1.6579
10884TIP3    H254068   6.247   5.910   0.593 -1.0476 -1.5817  0.2189
10885TIP3   OH254069   6.591   4.333   4.991 -0.3029 -0.0793 -0.0325
10885TIP3    H154070   6.639   4.342   5.073 -1.9320  0.9906  0.8604
10885TIP3    H254071   6.582   4.423   4.959  0.5138 -0.4998 -1.5426
10886TIP3   OH254072   2.959   4.912   4.495 -0.2957  0.0840 -0.0463
10886TIP3    H154073   2.974   4.840   4.434  1.7583  1.3231 -1.1139
10886TIP3    H254074   2.972   4.991   4.443  0.8776  1.1928  1.8197
10887TIP3   OH254075   1.480   4.406  15.503  0.7647 -0.6065 -0.0073
10887TIP3    H154076   1.575   4.423  15.497  0.8492 -0.6067  1.0746
10887TIP3    H254077   1.469   4.368  15.590 -0.2475 -0.5428 -0.1063
10888TIP3   OH254078   4.926   3.672   2.287  0.0882  0.4026 -0.2380
10888TIP3    H154079   4.998   3.731   2.264 -0.5717  0.9277 -1.0107
10888TIP3    H254080   4.968   3.603   2.338  1.2104  0.5046 -0.9644
10889TIP3   OH254081   6.356   4.971   3.461  0.2836 -0.5419 -0.2865
10889TIP3    H154082   6.326   4.932   3.544 -1.1613 -0.9333 -0.9664
10889TIP3    H254083   6.337   5.064   3.470  2.4460 -0.1243  0.7773
10890TIP3   OH254084   4.864   1.207   4.949 -0.3871  1.1481  0.1729
10890TIP3    H154085   4.868   1.282   4.889  0.1951 -0.1026 -1.4146
10890TIP3    H254086   4.789   1.225   5.005 -1.2676  2.1510 -1.2589
10891TIP3   OH254087   5.974   3.701   0.904  0.6846  0.2475 -0.2668
10891TIP3    H154088   6.052   3.751   0.927  0.8123  0.2221 -0.6427
10891TIP3    H254089   5.990   3.614   0.942  1.2043 -0.0017 -1.0167
10892TIP3   OH254090   3.279   6.444  13.533  0.4226 -0.5316 -0.3144
10892TIP3    H154091   3.275   6.489  13.449  0.2114  0.2767  0.1156
10892TIP3    H254092   3.370   6.414  13.540  1.1621  1.6433  0.2794
10893TIP3   OH254093   4.482   5.099   5.851 -0.7148  0.2000 -0.0856
10893TIP3    H154094   4.464   5.122   5.943  0.0519  1.0190 -0.1197
10893TIP3    H254095   4.422   5.027   5.832 -1.0896  0.2080  0.9737
10894TIP3   OH254096   5.277   6.020  17.052 -0.0357 -0.0937  0.1942
10894TIP3    H154097   5.306   6.005  16.962  1.4301 -2.2145  0.9360
10894TIP3    H254098   5.223   5.944  17.072 -0.8997  0.6874  0.9382
10895TIP3   OH254099   2.053   0.691   3.344 -0.2224 -0.0675 -0.0160
10895TIP3    H154100   2.014   0.686   3.431 -2.0356 -2.1214 -0.8533
10895TIP3    H254101   2.007   0.763   3.300 -0.6281 -0.2435  0.1197
10896TIP3   OH254102   6.312   4.014  14.929 -0.1097  0.0476  0.4407
10896TIP3    H154103   6.347   4.009  14.840  0.8042  0.2774  0.7665
10896TIP3    H254104   6.381   4.058  14.978  0.1783 -1.6184  1.6345
10897TIP3   OH254105   5.173   6.485  16.554 -0.3223  0.2204  0.2579
10897TIP3    H154106   5.141   6.460  16.641 -0.6304  1.0803  0.4011
10897TIP3    H254107   5.193   6.401  16.511  0.4036 -0.1940  1.3608
10898TIP3   OH254108   4.764   1.800   0.087  0.4497 -0.0177  0.4345
10898TIP3    H154109   4.747   1.877   0.032  1.7257  0.2045  0.2958
10898TIP3    H254110   4.718   1.729   0.044  0.4226  0.3982 -0.2514
10899TIP3   OH254111   0.493   0.817  12.860 -0.0631  0.9435  0.1340
10899TIP3    H154112   0.516   0.824  12.768 -2.2592 -0.6382 -0.6037
10899TIP3    H254113   0.397   0.811  12.861 -0.1588  1.7131  2.5849
10900TIP3   OH254114   1.609   4.665   2.092 -0.3077 -0.2497  0.4883
10900TIP3    H154115   1.520   4.699   2.081  0.2251  0.8826 -0.5069
10900TIP3    H254116   1.612   4.588   2.035  0.0459  1.0931 -1.4011
10901TIP3   OH254117   6.242   6.186  13.999 -0.1068  0.0761 -0.6628
10901TIP3    H154118   6.335   6.161  14.000  0.0782  0.7024  1.1602
10901TIP3    H254119   6.238   6.264  13.944  0.8974  1.4600  1.1104
10902TIP3   OH254120   2.673   2.509   5.548 -0.3390  0.4186  0.7536
10902TIP3    H154121   2.589   2.477   5.580 -0.4149 -1.2092 -0.9308
10902TIP3    H254122   2.669   2.604   5.561 -1.7672  0.2110  2.1352
10903TIP3   OH254123   3.490   6.540  13.040  0.4957  0.2272  0.2903
10903TIP3    H154124   3.445   6.529  13.124  0.7687  0.1895  0.4322
10903TIP3    H254125   3.473   6.459  12.992  1.1257 -0.1442  0.6819
10904TIP3   OH254126   0.283   3.046  16.320 -0.1680 -0.8944 -0.3478
10904TIP3    H154127   0.230   2.994  16.381  0.1601 -0.4956  0.2828
10904TIP3    H254128   0.364   3.064  16.367  0.7813 -1.9399 -1.4906
10905TIP3   OH254129   1.166   4.382  11.056 -0.0702 -0.2934 -0.2081
10905TIP3    H154130   1.156   4.286  11.057 -1.9226 -0.1382  0.1841
10905TIP3    H254131   1.127   4.409  10.973 -1.9932  0.2853  0.8151
10906TIP3   OH254132   6.435   2.875  13.097 -0.0038  0.6071 -0.3896
10906TIP3    H154133   6.487   2.824  13.036 -1.5582 -1.2595 -0.2368
10906TIP3    H254134   6.499   2.912  13.158  1.2778 -0.0161 -1.3098
10907TIP3   OH254135   4.313   1.646   0.225  0.2195 -0.1566 -0.1377
10907TIP3    H154136   4.319   1.563   0.178 -1.1851 -0.8008  0.7473
10907TIP3    H254137   4.381   1.640   0.292  0.5755 -0.2944 -0.5058
10908TIP3   OH254138   3.578   0.224  16.964 -0.4293  0.9103  0.5948
10908TIP3    H154139   3.510   0.255  16.905 -0.6837  0.5404  0.6909
10908TIP3    H254140   3.626   0.303  16.989  0.2585  0.9668 -0.8265
10909TIP3   OH254141   1.517   1.635  15.160  0.2065 -0.5826 -0.5811
10909TIP3    H154142   1.524   1.543  15.185 -0.1145 -0.9742 -1.8236
10909TIP3    H254143   1.502   1.632  15.065 -0.1555  0.7408 -0.5797
10910TIP3   OH254144   3.192   2.819   3.167 -0.2879  0.0024 -0.1856
10910TIP3    H154145   3.257   2.817   3.238  0.4895 -0.6212 -0.8838
10910TIP3    H254146   3.172   2.726   3.151 -2.0938  0.2020  0.6501
10911TIP3   OH254147   2.638   5.737  16.542 -0.1093  0.0158  0.5067
10911TIP3    H154148   2.552   5.698  16.557 -0.2552  0.1444  0.0357
10911TIP3    H254149   2.623   5.804  16.475  0.5069 -0.5881 -0.2665
10912TIP3   OH254150   1.687   0.294  15.099  0.4426  0.6083 -0.0005
10912TIP3    H154151   1.646   0.290  15.186 -2.2240 -1.1775 -1.2284
10912TIP3    H254152   1.615   0.281  15.037  2.6784 -1.7747 -2.3789
10913TIP3   OH254153   1.858   2.629   4.942  0.0337 -0.6291  0.0221
10913TIP3    H154154   1.867   2.551   4.888 -0.3186 -1.1058  0.6303
10913TIP3    H254155   1.822   2.695   4.883  0.6059 -0.8404 -0.5704
10914TIP3   OH254156   2.005   5.052   5.258  0.5771 -0.7220  0.6743
10914TIP3    H154157   2.055   5.039   5.338  0.8359 -0.2967  0.5874
10914TIP3    H254158   1.967   5.139   5.268 -0.9124 -1.3954  1.1444
10915TIP3   OH254159   1.975   5.632   0.070  0.2201  0.4413  0.2091
10915TIP3    H154160   1.988   5.720   0.107 -1.7431  0.7998  0.1482
10915TIP3    H254161   1.895   5.640   0.017 -0.0275 -1.3941  0.2464
10916TIP3   OH254162   4.664   6.735  15.757 -0.0993 -0.0119 -0.2580
10916TIP3    H154163   4.741   6.698  15.714  0.0274 -0.4782  0.3641
10916TIP3    H254164   4.696   6.813  15.802 -0.3742  0.9229 -1.6048
10917TIP3   OH254165   6.703   3.371  13.385  0.0615  0.1248 -0.1434
10917TIP3    H154166   6.625   3.339  13.340  0.1317  0.2687 -0.3706
10917TIP3    H254167   6.716   3.310  13.457 -1.3568  1.1773  1.0665
10918TIP3   OH254168   5.708   5.258  10.321 -0.0267  0.0551 -0.4953
10918TIP3    H154169   5.696   5.166  10.347 -1.1166  0.1066 -0.7529
10918TIP3    H254170   5.619   5.292  10.316  0.3159  0.8099 -1.5749
10919TIP3   OH254171   0.895   3.280  12.806 -0.9222  0.3679 -0.2468
10919TIP3    H154172   0.816   3.258  12.757 -0.9132 -0.1942 -0.0176
10919TIP3    H254173   0.933   3.195  12.830 -0.8298  0.6318  0.5720
10920TIP3   OH254174   0.883   5.028  13.106 -0.1969  0.0503 -0.4977
10920TIP3    H154175   0.864   4.941  13.139 -2.2081  0.5737 -0.1509
10920TIP3    H254176   0.900   5.081  13.185  1.0070  0.0099 -0.7036
10921TIP3   OH254177   1.628   6.044  14.058  0.4621 -0.0486  0.5724
10921TIP3    H154178   1.624   6.010  13.969 -0.0250  1.8799 -0.2009
10921TIP3    H254179   1.569   5.988  14.108  0.4776 -0.9416 -0.3774
10922TIP3   OH254180   3.427   5.155  11.339 -0.2686  0.3605 -0.0980
10922TIP3    H154181   3.511   5.177  11.379  0.1637 -1.3502  0.0048
10922TIP3    H254182   3.450   5.110  11.258 -1.0431 -0.9603  0.3777
10923TIP3   OH254183   2.008   0.963   0.212 -0.2629  0.0284  0.4211
10923TIP3    H154184   2.013   1.050   0.253  1.2639  0.2967 -0.2633
10923TIP3    H254185   2.098   0.930   0.217 -0.2914 -0.4321 -1.6046
10924TIP3   OH254186   1.095   4.426  15.056  0.0776 -0.5267 -0.7333
10924TIP3    H154187   1.190   4.422  15.064 -0.0370 -2.0702  0.1825
10924TIP3    H254188   1.079   4.498  14.994  1.7824  0.3575 -0.1960
10925TIP3   OH254189   1.404   4.405   0.004  0.1071  0.2160 -0.8963
10925TIP3    H154190   1.363   4.481  -0.037 -2.6279 -0.3023  0.6276
10925TIP3    H254191   1.374   4.331  -0.049 -2.4152 -0.3255  1.0864
10926TIP3   OH254192   1.968   5.536  13.685 -0.0753 -0.4589 -0.1125
10926TIP3    H154193   1.999   5.591  13.613 -1.5916  1.4736  0.6213
10926TIP3    H254194   2.042   5.533  13.746  0.3604 -0.0405 -0.6066
10927TIP3   OH254195   3.475   2.443   5.612  0.0084  0.0384  0.3522
10927TIP3    H154196   3.385   2.441   5.577  0.0275  2.8232 -0.1121
10927TIP3    H254197   3.470   2.500   5.689  1.1092 -1.1214  1.3239
10928TIP3   OH254198   1.852   1.166   3.175 -0.1314  0.5373  0.1420
10928TIP3    H154199   1.900   1.243   3.144 -2.0259  1.6905 -0.0683
10928TIP3    H254200   1.843   1.179   3.269  0.9666 -0.2829  0.3797
10929TIP3   OH254201   2.168   1.177  11.905 -0.0866  0.0417 -0.2831
10929TIP3    H154202   2.104   1.130  11.852  0.5324 -0.7012 -0.3989
10929TIP3    H254203   2.175   1.125  11.985 -2.2271  2.0200  1.3230
10930TIP3   OH254204   1.226   0.536   2.719  0.2030 -0.1281  0.1967
10930TIP3    H154205   1.294   0.484   2.675 -0.1338 -1.8624  1.6236
10930TIP3    H254206   1.250   0.627   2.699  2.2480 -0.7162 -0.3490
10931TIP3   OH254207   4.639   3.958   6.171 -0.2992  0.4924 -0.0609
10931TIP3    H154208   4.661   4.049   6.189  0.6955  0.3418 -0.4505
10931TIP3    H254209   4.632   3.917   6.257  0.0194  0.7625  0.0946
10932TIP3   OH254210   3.373   0.377  15.804  0.5879  0.7616 -0.4723
10932TIP3    H154211   3.303   0.382  15.870 -1.6517 -0.0761 -2.6144
10932TIP3    H254212   3.359   0.453  15.748  1.6835  0.8180 -0.6810
10933TIP3   OH254213   6.343   5.743  14.211 -0.0188 -0.8564 -0.2385
10933TIP3    H154214   6.269   5.750  14.272  0.0264  0.1269 -0.2681
10933TIP3    H254215   6.420   5.743  14.267  0.0645  0.9508 -0.2902
10934TIP3   OH254216   3.362   3.929   5.355  0.0548 -0.0703 -0.0239
10934TIP3    H154217   3.346   3.835   5.346 -1.2257  0.2434 -1.3233
10934TIP3    H254218   3.300   3.958   5.422  0.1659 -0.0728  0.0806
10935TIP3   OH254219   2.773   5.931   3.727  0.5404  0.3583  0.5713
10935TIP3    H154220   2.698   5.870   3.728 -0.0534  1.0362 -0.8571
10935TIP3    H254221   2.777   5.964   3.638  1.1256  2.0994  1.1929
10936TIP3   OH254222   4.877   4.255   4.215 -0.1548 -0.3963 -0.0382
10936TIP3    H154223   4.916   4.282   4.298 -0.2581  0.8928 -0.3882
10936TIP3    H254224   4.944   4.273   4.149 -0.9057  0.8402 -0.5123
10937TIP3   OH254225   4.554   4.130  16.147  0.3007  0.2760 -0.0389
10937TIP3    H154226   4.498   4.155  16.220 -0.4698  0.8073 -0.7825
10937TIP3    H254227   4.498   4.140  16.070  0.5895 -1.8507 -0.5713
10938TIP3   OH254228   2.736   0.068   6.190  0.0372 -0.2121 -0.1123
10938TIP3    H154229   2.736   0.145   6.246 -1.0805 -0.4498  0.2344
10938TIP3    H254230   2.677   0.006   6.233 -1.5068 -0.0892 -1.9298
10939TIP3   OH254231   2.477   6.573   1.503 -0.0461  0.6026  0.3677
10939TIP3    H154232   2.386   6.553   1.525 -0.3552 -0.0249 -1.3499
10939TIP3    H254233   2.516   6.487   1.484  1.3435  0.6888  2.4781
10940TIP3   OH254234   3.175   1.981   4.397 -0.2195 -0.0736 -0.6768
10940TIP3    H154235   3.133   1.918   4.456  1.3741 -0.4196  0.1254
10940TIP3    H254236   3.105   2.007   4.337 -1.5186 -0.8108  0.4544
10941TIP3   OH254237   0.555   2.338   2.585  0.1119 -0.0693  1.0722
10941TIP3    H154238   0.606   2.417   2.604  1.8019 -0.5676 -1.0331
10941TIP3    H254239   0.465   2.371   2.575  0.5678  1.3914  1.4409
10942TIP3   OH254240   4.810   0.446  15.830 -0.5047  0.2485 -0.0957
10942TIP3    H154241   4.835   0.521  15.776  1.1630 -0.2214 -0.0191
10942TIP3    H254242   4.852   0.371  15.788 -1.5565 -0.5503  0.2460
10943TIP3   OH254243   5.243   0.801  13.182  0.1310 -0.2226  0.3985
10943TIP3    H154244   5.243   0.860  13.257  1.0283  0.0607  0.1982
10943TIP3    H254245   5.263   0.715  13.219 -4.0361 -1.0870  1.1109
10944TIP3   OH254246   1.878   2.869  15.972  0.2326  0.4971  0.1696
10944TIP3    H154247   1.913   2.866  16.061  2.1179  1.3142 -0.5075
10944TIP3    H254248   1.925   2.800  15.925 -1.0634 -0.2224 -0.1273
10945TIP3   OH254249   5.316   4.736  13.168 -0.0143 -0.5060 -0.0159
10945TIP3    H154250   5.245   4.695  13.119  0.9578 -0.5539 -1.4593
10945TIP3    H254251   5.394   4.719  13.115  0.8103  0.9866  0.6644
10946TIP3   OH254252   1.267   1.286  16.628 -0.8806  1.3166 -0.2548
10946TIP3    H154253   1.199   1.350  16.608 -0.7992  1.4381 -0.1394
10946TIP3    H254254   1.342   1.312  16.576 -1.0931  0.8711 -0.8005
10947TIP3   OH254255   1.985   3.717  13.280 -0.0645  0.0850 -0.3028
10947TIP3    H154256   1.981   3.755  13.368 -0.9137 -1.7324  0.4785
10947TIP3    H254257   1.899   3.737  13.242 -0.1460 -0.1817 -0.2601
10948TIP3   OH254258   2.704   1.299   5.410 -0.6079  0.6932 -0.5983
10948TIP3    H154259   2.785   1.252   5.387 -1.7741 -0.8841 -1.7360
10948TIP3    H254260   2.691   1.279   5.503  0.5169  1.3189 -0.2920
10949TIP3   OH254261   4.304   1.558   1.102 -0.2656  0.8091  0.1655
10949TIP3    H154262   4.391   1.543   1.065  0.3410  1.4341  1.2793
10949TIP3    H254263   4.265   1.471   1.108  0.6357  0.4128  0.4674
10950TIP3   OH254264   0.149   1.000  13.647 -0.5065 -0.7079 -0.5126
10950TIP3    H154265   0.189   1.035  13.568  0.2180 -2.1441 -0.8167
10950TIP3    H254266   0.194   0.917  13.662 -2.2062 -1.5720  0.0940
10951TIP3   OH254267   4.323   4.019  17.246  0.3834  0.1803 -0.2902
10951TIP3    H154268   4.271   4.099  17.235 -0.7063 -0.4814 -0.0832
10951TIP3    H254269   4.360   4.025  17.334  0.1345  0.3615 -0.1993
10952TIP3   OH254270   2.597   4.646   2.038 -0.1238  0.7319 -0.3042
10952TIP3    H154271   2.647   4.584   2.091  0.5193  1.7788  0.3580
10952TIP3    H254272   2.614   4.619   1.948  0.5177  0.2187 -0.0408
10953TIP3   OH254273   0.875   5.883  16.299 -0.0264 -0.5185  0.5602
10953TIP3    H154274   0.928   5.913  16.225 -0.5420 -0.0679  0.3666
10953TIP3    H254275   0.815   5.819  16.261  1.5051 -2.3573  1.0831
10954TIP3   OH254276   1.978   4.092  16.491 -0.4699  0.4185 -0.1800
10954TIP3    H154277   2.060   4.078  16.443 -0.5573 -0.6766 -0.0237
10954TIP3    H254278   1.933   4.008  16.487 -0.1346  0.0192  2.4856
10955TIP3   OH254279   4.121   1.008   0.682 -0.0040 -0.5648  0.2191
10955TIP3    H154280   4.045   1.058   0.712  0.8338  1.0146 -0.1756
10955TIP3    H254281   4.153   1.056   0.606  1.4922 -1.1093  0.4650
10956TIP3   OH254282   0.455   2.437   2.024  0.3195 -0.0793  0.0088
10956TIP3    H154283   0.527   2.469   2.079  0.7605 -0.2832 -0.4375
10956TIP3    H254284   0.481   2.462   1.935 -0.0124 -0.4301 -0.1858
10957TIP3   OH254285   2.664   2.280   4.966 -0.0561  0.3265  0.1601
10957TIP3    H154286   2.703   2.366   4.948  2.3284 -0.7188 -0.0943
10957TIP3    H254287   2.731   2.233   5.016 -1.7717 -1.0169  1.3130
10958TIP3   OH254288   4.033   2.451  12.062  0.5309 -0.1554  0.2733
10958TIP3    H154289   3.967   2.463  11.994  1.2699  1.9275 -0.1444
10958TIP3    H254290   4.014   2.518  12.127  1.3883 -0.4319  0.8279
10959TIP3   OH254291   0.356   4.581  15.505  0.0155  0.2480  0.2379
10959TIP3    H154292   0.338   4.660  15.556  1.5581  0.6126  0.2682
10959TIP3    H254293   0.272   4.559  15.464 -0.8677  0.8661  1.6441
10960TIP3   OH254294   3.280   2.923  14.889  0.0577 -0.1168  0.2225
10960TIP3    H154295   3.191   2.909  14.855 -0.3843  2.2449  0.2678
10960TIP3    H254296   3.270   2.921  14.984  0.2332 -0.7601  0.2320
10961TIP3   OH254297   0.646   4.969  13.435  0.3134  0.0520  0.2039
10961TIP3    H154298   0.703   5.043  13.411  0.8586 -0.2604  0.5057
10961TIP3    H254299   0.689   4.892  13.397  0.3053 -0.2382  0.7698
10962TIP3   OH254300   2.342   2.114  15.121  0.5780 -0.2938  0.1680
10962TIP3    H154301   2.392   2.033  15.111  1.0655  0.1619 -1.3847
10962TIP3    H254302   2.252   2.085  15.134  0.5495 -1.0977 -1.5716
10963TIP3   OH254303   4.656   5.394   6.127  0.0107  0.1277  0.2941
10963TIP3    H154304   4.647   5.446   6.207 -2.2678  1.6673 -0.8432
10963TIP3    H254305   4.592   5.323   6.137 -0.4015  0.4227 -0.2094
10964TIP3   OH254306   1.745   5.980  11.648  0.1539  0.3182 -0.0542
10964TIP3    H154307   1.693   6.036  11.590 -1.0056  1.2865  1.8164
10964TIP3    H254308   1.681   5.941  11.707  1.2247 -1.1302  0.1997
10965TIP3   OH254309   6.008   3.011  13.223 -0.2612 -0.3012  0.1775
10965TIP3    H154310   5.979   2.989  13.312  1.7438  0.3547  1.0608
10965TIP3    H254311   5.958   3.089  13.201  0.8716  0.9539  1.7600
10966TIP3   OH254312   0.729   3.936  16.322  0.5163 -0.1205  0.1540
10966TIP3    H154313   0.786   3.936  16.245  0.2286 -1.4941 -0.0723
10966TIP3    H254314   0.757   3.860  16.373 -1.2730 -1.0062 -0.1057
10967TIP3   OH254315   3.191   2.269  11.990  0.4094  0.2222  0.0568
10967TIP3    H154316   3.119   2.217  12.026  1.9020 -1.9920  0.0869
10967TIP3    H254317   3.228   2.316  12.065 -0.3126  0.4994  0.2400
10968TIP3   OH254318   5.740   1.168   4.911 -0.1706  0.2079  0.1622
10968TIP3    H154319   5.664   1.221   4.888  0.1573  0.4087 -0.4687
10968TIP3    H254320   5.712   1.118   4.988 -2.3403 -2.5818 -2.1895
10969TIP3   OH254321   4.980   6.259  14.796 -0.2394 -0.0139 -0.0177
10969TIP3    H154322   4.903   6.304  14.830  0.1005 -0.6693  1.7013
10969TIP3    H254323   4.956   6.166  14.798  0.4379 -0.1916  0.1248
10970TIP3   OH254324   1.837   6.497   4.001 -0.0658 -0.0332 -0.8211
10970TIP3    H154325   1.881   6.418   4.033  1.9177  0.7568 -1.4536
10970TIP3    H254326   1.810   6.544   4.080 -1.3393 -1.3465 -0.4405
10971TIP3   OH254327   0.026   5.902  15.141  0.8603  0.3904 -0.5715
10971TIP3    H154328   0.107   5.953  15.144  0.5637  0.8738  2.0917
10971TIP3    H254329  -0.033   5.954  15.088  1.9319  0.5460 -1.6698
10972TIP3   OH254330   5.612   0.978   6.539  0.1205  0.1716 -0.6764
10972TIP3    H154331   5.707   0.984   6.533  0.0598 -0.0837 -2.2915
10972TIP3    H254332   5.587   1.050   6.596  1.1636  1.2085 -1.4966
10973TIP3   OH254333   4.253   0.559   5.025  0.4315  0.1424 -0.4416
10973TIP3    H154334   4.298   0.510   5.094  0.7483  0.0070 -0.7409
10973TIP3    H254335   4.204   0.494   4.975 -1.8360  0.5238  1.1412
10974TIP3   OH254336   1.579   3.975  12.965 -0.5512  0.3081  0.2542
10974TIP3    H154337   1.545   4.006  12.881 -0.3819 -0.2112 -0.0172
10974TIP3    H254338   1.503   3.937  13.009  0.0190 -3.2627 -1.4602
10975TIP3   OH254339   1.004   1.103   5.190 -0.2904  0.0767  0.6622
10975TIP3    H154340   0.989   1.024   5.243  1.3957  1.1145  2.8596
10975TIP3    H254341   0.938   1.165   5.221 -0.0516  0.3112  0.7008
10976TIP3   OH254342   5.462   0.183  11.149  0.0968 -0.2808 -0.5119
10976TIP3    H154343   5.385   0.185  11.092  0.0815 -0.2152 -0.4888
10976TIP3    H254344   5.512   0.261  11.125 -0.1307 -0.0172 -0.1309
10977TIP3   OH254345   3.738   0.142  16.256  0.3463  0.1065 -0.4396
10977TIP3    H154346   3.821   0.138  16.208  0.8687 -2.6982  0.5171
10977TIP3    H254347   3.755   0.095  16.338 -0.5439  4.5198  2.6542
10978TIP3   OH254348   0.537   5.730  13.627  0.7964  0.1498 -0.1372
10978TIP3    H154349   0.599   5.726  13.700  0.5666  0.2456  0.0653
10978TIP3    H254350   0.495   5.643  13.626  0.2689  0.3888  0.3185
10979TIP3   OH254351   0.749   2.326   0.025 -0.0773 -0.2434  0.4249
10979TIP3    H154352   0.812   2.272   0.072 -0.1345 -1.0104 -0.3579
10979TIP3    H254353   0.796   2.356  -0.053 -0.6730 -0.8590 -0.1893
10980TIP3   OH254354   5.702   2.021  10.730 -0.0825  0.1945  0.3404
10980TIP3    H154355   5.724   2.113  10.746  0.8773  0.1328 -0.5579
10980TIP3    H254356   5.780   1.984  10.689 -0.9615 -0.6750 -0.6039
10981TIP3   OH254357   1.041   5.421   0.829 -0.3677  0.4318 -0.3812
10981TIP3    H154358   1.029   5.510   0.794  1.3066  0.4473 -1.0073
10981TIP3    H254359   1.102   5.380   0.769  0.1416 -0.6117  0.8057
10982TIP3   OH254360   2.304   2.086  11.988 -0.2741  0.0326 -0.0501
10982TIP3    H154361   2.211   2.091  12.011 -0.4238  0.6195 -0.7547
10982TIP3    H254362   2.305   2.096  11.893  0.5467  0.4376 -0.0003
10983TIP3   OH254363   2.399   1.942  11.521 -0.3794 -0.3661  0.2698
10983TIP3    H154364   2.464   1.903  11.462  0.2370  0.8255  0.1301
10983TIP3    H254365   2.446   2.012  11.566 -1.0300 -0.8392  1.7123
10984TIP3   OH254366   5.502   3.537  16.409  0.3401 -0.4657  0.3132
10984TIP3    H154367   5.557   3.535  16.331 -0.0809 -0.1167 -0.0019
10984TIP3    H254368   5.557   3.578  16.477  0.0292  1.1421 -0.3612
10985TIP3   OH254369   6.169   1.445   5.409 -0.2585  0.5510 -0.2305
10985TIP3    H154370   6.215   1.456   5.493  3.7302 -1.6241 -1.8641
10985TIP3    H254371   6.160   1.350   5.399 -2.4959  0.8279 -1.4811
10986TIP3   OH254372   2.073   1.493   2.612  0.0387 -0.5277 -0.0915
10986TIP3    H154373   2.108   1.518   2.698  0.0115 -1.9663  0.3580
10986TIP3    H254374   2.143   1.445   2.570  0.0865  0.2549 -0.9421
10987TIP3   OH254375   4.484   4.372   3.756 -0.1383 -0.6511  0.3830
10987TIP3    H154376   4.577   4.369   3.734 -0.2435 -2.2365  0.0511
10987TIP3    H254377   4.447   4.439   3.698  0.7453 -0.1566  0.3786
10988TIP3   OH254378   5.258   1.502   3.283 -0.7503 -0.1936 -0.2689
10988TIP3    H154379   5.217   1.428   3.327  1.5086 -1.4409 -0.1499
10988TIP3    H254380   5.224   1.498   3.193 -1.5588 -0.6075  0.0390
10989TIP3   OH254381   4.778   0.549   0.377 -0.4151  0.1379 -0.7338
10989TIP3    H154382   4.741   0.598   0.303 -0.4321 -0.4017 -1.0813
10989TIP3    H254383   4.870   0.574   0.378 -0.7102  1.2818 -0.0279
10990TIP3   OH254384   5.966   0.988  14.022 -0.2900  0.0612  0.1515
10990TIP3    H154385   6.016   0.906  14.015 -1.7803 -0.8934  0.1389
10990TIP3    H254386   5.978   1.031  13.937 -2.9109 -2.2611 -1.5732
10991TIP3   OH254387   5.266   1.567   6.589  0.0450  0.1483 -0.0870
10991TIP3    H154388   5.347   1.525   6.619 -0.0541  0.7366  1.0614
10991TIP3    H254389   5.262   1.649   6.638  0.1792  1.4919 -2.2038
10992TIP3   OH254390   2.793   0.716   5.173  0.3334 -0.1715 -0.1048
10992TIP3    H154391   2.859   0.687   5.110 -1.0047 -1.0619 -1.1544
10992TIP3    H254392   2.776   0.638   5.226  0.6319  0.2646  0.6521
10993TIP3   OH254393   5.521   2.144   2.339  0.2638 -0.3239  0.0553
10993TIP3    H154394   5.498   2.140   2.246 -0.0891  1.4051  0.0272
10993TIP3    H254395   5.440   2.125   2.385 -0.0942  0.8822 -0.0298
10994TIP3   OH254396   2.868   4.588   3.740 -0.0253  0.4488  1.1991
10994TIP3    H154397   2.960   4.611   3.730 -0.0424  0.8633  1.9141
10994TIP3    H254398   2.840   4.635   3.819 -1.2288  1.4647  0.1954
10995TIP3   OH254399   3.397   0.809  14.359 -0.4039  0.3194  0.3734
10995TIP3    H154400   3.450   0.887  14.373  0.3676 -0.0794 -0.2853
10995TIP3    H254401   3.306   0.841  14.363 -0.1225  1.0414  1.2565
10996TIP3   OH254402   3.912   3.617  15.373  1.0108 -0.4445  0.0688
10996TIP3    H154403   3.893   3.580  15.460  1.4940  0.2874  0.4970
10996TIP3    H254404   3.985   3.565  15.340  1.7974  0.2048  0.7381
10997TIP3   OH254405   0.899   5.635   1.157 -0.8830 -0.2428  0.4764
10997TIP3    H154406   0.895   5.566   1.091 -1.3156  0.7868 -0.6103
10997TIP3    H254407   0.874   5.592   1.239  1.7910 -2.0695  0.4738
10998TIP3   OH254408   4.052   2.049   2.923 -0.1210  0.0558 -0.6523
10998TIP3    H154409   4.003   2.029   3.003  0.2056 -1.1457 -0.7381
10998TIP3    H254410   4.030   2.141   2.904 -0.5765  0.2129  0.5430
10999TIP3   OH254411   4.407   4.159  15.651  0.0688 -0.3421 -0.0390
10999TIP3    H154412   4.319   4.138  15.622  0.6302 -1.4356 -1.0158
10999TIP3    H254413   4.409   4.254  15.656 -0.7789 -0.2517 -1.2438
11000TIP3   OH254414   0.380   5.076  12.708 -0.2610  0.2697  0.0099
11000TIP3    H154415   0.462   5.058  12.754  0.1564 -0.4410 -0.9701
11000TIP3    H254416   0.313   5.031  12.760  0.0344  0.4367  0.5447
11001TIP3   OH254417   1.602   6.391  12.789  0.1537 -0.4952 -0.0260
11001TIP3    H154418   1.688   6.420  12.817  0.1953  1.6078 -2.0353
11001TIP3    H254419   1.620   6.320  12.727  0.3888 -0.7693  0.3561
11002TIP3   OH254420   2.837   1.351   1.969  0.2634 -0.4776 -0.3257
11002TIP3    H154421   2.787   1.327   2.047  0.2756 -0.3926 -0.2920
11002TIP3    H254422   2.773   1.348   1.898  0.2065 -0.3530 -0.2800
11003TIP3   OH254423   5.896   2.674   5.489 -0.4504  0.4110  0.8267
11003TIP3    H154424   5.968   2.662   5.427 -1.4917 -0.4802 -0.2578
11003TIP3    H254425   5.908   2.605   5.554  1.0596  1.7849  2.0963
11004TIP3   OH254426   3.415   0.436  11.276 -0.2244  0.0015 -0.3531
11004TIP3    H154427   3.374   0.477  11.200  0.9805  0.9476 -0.5388
11004TIP3    H254428   3.507   0.424  11.250  0.2397  0.4649  0.9740
11005TIP3   OH254429   3.373   2.764  14.382 -0.3509  0.3904 -0.4877
11005TIP3    H154430   3.326   2.728  14.457 -0.1626 -1.2077 -1.0912
11005TIP3    H254431   3.322   2.840  14.355  0.0207  1.5099  1.7278
11006TIP3   OH254432   0.252   4.247  15.532 -0.2692 -0.6993 -0.0937
11006TIP3    H154433   0.291   4.238  15.445  0.4677  1.6750 -0.0911
11006TIP3    H254434   0.323   4.226  15.593  0.2380  0.7734 -0.1121
11007TIP3   OH254435   3.294   1.419  16.906 -0.1333 -0.3066  0.0645
11007TIP3    H154436   3.355   1.363  16.954  0.6156 -0.2912 -0.8435
11007TIP3    H254437   3.268   1.487  16.968  1.7294  0.4041  0.1198
11008TIP3   OH254438   2.747   0.856   5.813  0.3884  0.1398 -0.1841
11008TIP3    H154439   2.765   0.941   5.853  2.0994 -0.1690 -0.2155
11008TIP3    H254440   2.728   0.798   5.887 -1.2845  0.6264 -0.1945
11009TIP3   OH254441   2.836   1.752  12.742  0.2383 -0.0071  0.1001
11009TIP3    H154442   2.789   1.717  12.818  1.2068 -1.6755 -0.0024
11009TIP3    H254443   2.800   1.839  12.729 -1.5647 -0.5569  1.0741
11010TIP3   OH254444   3.174   5.439  17.183 -0.0230 -0.5259  0.1814
11010TIP3    H154445   3.217   5.445  17.269  1.1141 -1.1406 -0.3196
11010TIP3    H254446   3.191   5.523  17.141  0.6077 -0.7289  0.0261
11011TIP3   OH254447   1.228   2.310   5.590  0.6687 -0.1092  0.7253
11011TIP3    H154448   1.235   2.221   5.556  0.0378 -0.2655  0.9905
11011TIP3    H254449   1.213   2.364   5.513  1.5451 -0.1598  0.5057
11012TIP3   OH254450   4.646   3.186  14.126  0.4503  0.1779 -0.4884
11012TIP3    H154451   4.699   3.109  14.146 -0.7563 -0.7127 -0.5947
11012TIP3    H254452   4.599   3.163  14.046  0.6794  1.3627 -0.9964
11013TIP3   OH254453   6.541   1.870  13.049 -0.4633 -0.0525  0.3344
11013TIP3    H154454   6.604   1.798  13.049 -1.2137 -0.7233 -0.2919
11013TIP3    H254455   6.595   1.948  13.039  0.3412 -0.5390  0.7214
11014TIP3   OH254456   0.197   0.876   6.458 -0.2034 -0.1048 -0.3260
11014TIP3    H154457   0.120   0.832   6.494  0.3609  0.3487  1.5034
11014TIP3    H254458   0.161   0.949   6.407 -1.0174 -0.8609 -0.8744
11015TIP3   OH254459   6.447   6.389  11.131  0.5115  0.2750  0.3579
11015TIP3    H154460   6.353   6.389  11.118  0.4502 -0.3645  0.7205
11015TIP3    H254461   6.476   6.304  11.096  0.5212 -0.8980  2.9472
11016TIP3   OH254462   5.191   2.055  12.655  0.0871  0.2751  0.4176
11016TIP3    H154463   5.115   2.093  12.611  1.5355  0.0857 -2.4932
11016TIP3    H254464   5.156   1.980  12.704 -1.6269  0.2790 -0.7288
11017TIP3   OH254465   1.611   6.142   0.617 -0.8480  0.3534 -0.5155
11017TIP3    H154466   1.600   6.112   0.527 -0.3937  0.0938 -0.4833
11017TIP3    H254467   1.614   6.062   0.669 -0.4862  0.4816 -0.3378
11018TIP3   OH254468   3.046   2.363   5.296  0.2207 -0.5426 -0.2501
11018TIP3    H154469   3.080   2.424   5.362 -1.1854 -1.7362  1.6969
11018TIP3    H254470   3.124   2.319   5.262  1.0022  0.2920  0.3961
11019TIP3   OH254471   5.129   2.754   0.333 -0.3083 -0.1226  0.2105
11019TIP3    H154472   5.132   2.659   0.337 -1.0733 -0.1934 -0.5948
11019TIP3    H254473   5.194   2.783   0.397  2.4491 -1.1845 -1.9277
11020TIP3   OH254474   5.113   3.661   1.652  0.0506 -0.0477 -0.5434
11020TIP3    H154475   5.135   3.569   1.639  1.4727 -0.0731  1.5696
11020TIP3    H254476   5.020   3.666   1.631 -0.2160 -2.1021 -0.1176
11021TIP3   OH254477   3.427   6.052  16.081 -0.2163  0.4310  0.6565
11021TIP3    H154478   3.396   6.113  16.014  0.9402 -0.5722 -0.8692
11021TIP3    H254479   3.354   5.992  16.095  0.4250 -1.0737 -1.8742
11022TIP3   OH254480   6.401   0.861   5.229 -0.0669  0.0164 -0.0286
11022TIP3    H154481   6.393   0.923   5.157 -1.3781  1.5865  1.4024
11022TIP3    H254482   6.343   0.789   5.205 -0.2177  0.3578 -0.7012
11023TIP3   OH254483   1.121   2.107  16.967  0.4898  0.3325 -0.2326
11023TIP3    H154484   1.147   2.114  16.875  1.7283  0.6326  0.1190
11023TIP3    H254485   1.104   2.013  16.980  1.1029  0.1665 -0.5743
11024TIP3   OH254486   2.514   0.664  16.965 -0.4994 -0.2677 -0.4051
11024TIP3    H154487   2.582   0.687  17.028  0.6471 -1.1887 -1.2598
11024TIP3    H254488   2.460   0.600  17.010 -0.7054  0.3245  0.2115
11025TIP3   OH254489   0.700   1.140   2.367 -0.4322 -0.4746  0.8368
11025TIP3    H154490   0.705   1.234   2.351 -0.5205 -0.5422  0.3995
11025TIP3    H254491   0.616   1.114   2.330 -0.2911 -0.7695  0.7264
11026TIP3   OH254492   3.437   0.494  16.079 -0.1609  0.5872 -0.4637
11026TIP3    H154493   3.384   0.437  16.136  0.9081 -1.3529 -1.3099
11026TIP3    H254494   3.373   0.550  16.035 -1.1201  1.2725  1.6351
11027TIP3   OH254495   1.470   2.912   5.682  0.1040  0.4550  0.3508
11027TIP3    H154496   1.474   2.988   5.624 -0.9405  0.3205  0.0732
11027TIP3    H254497   1.526   2.847   5.641 -1.3311  0.0382 -1.0327
11028TIP3   OH254498   1.960   0.499  15.586 -0.4703 -0.1819 -0.1775
11028TIP3    H154499   1.890   0.502  15.651  0.2951  2.0503  0.6457
11028TIP3    H254500   2.003   0.415  15.600 -1.7773 -0.7476  0.5964
11029TIP3   OH254501   2.120   4.702  15.567 -0.8066 -0.1763 -0.1979
11029TIP3    H154502   2.066   4.781  15.574  0.3770  0.7653 -1.2320
11029TIP3    H254503   2.188   4.713  15.633  1.5841  1.5708 -2.7254
11030TIP3   OH254504   1.983   1.911   5.459  0.1079  0.4608  0.4876
11030TIP3    H154505   1.995   1.925   5.365  0.0446 -0.1286  0.3917
11030TIP3    H254506   1.960   1.819   5.467 -1.2185  0.8084  0.9601
11031TIP3   OH254507   4.271   4.858  14.067  0.1405  0.2747 -0.4331
11031TIP3    H154508   4.318   4.823  14.143 -1.6057  0.6264  0.8763
11031TIP3    H254509   4.324   4.932  14.038  1.6816 -0.8385 -0.6143
11032TIP3   OH254510   1.256   5.573  16.211 -0.5210  0.1282  0.1123
11032TIP3    H154511   1.347   5.546  16.197 -0.2994  1.5085 -1.3512
11032TIP3    H254512   1.210   5.491  16.232  0.8591 -0.7416 -0.1339
11033TIP3   OH254513   0.356   5.952  16.480 -0.5556 -0.8910  0.1636
11033TIP3    H154514   0.384   6.018  16.416 -0.6212 -1.4989 -0.5015
11033TIP3    H254515   0.427   5.951  16.545 -0.2745 -0.5831 -0.1291
11034TIP3   OH254516   6.561   4.013   0.271  0.1820 -0.0720  0.2178
11034TIP3    H154517   6.566   3.925   0.307 -1.1592 -0.2502  0.0188
11034TIP3    H254518   6.556   4.070   0.348 -0.2882 -0.2726  0.3386
11035TIP3   OH254519   6.400   2.084   5.045 -0.4550  0.0978  0.1775
11035TIP3    H154520   6.427   2.087   5.136  0.5390  2.7033 -0.1331
11035TIP3    H254521   6.463   2.026   5.002  1.4555  1.8772  0.4757
11036TIP3   OH254522   2.430   0.549  15.634 -0.6502 -0.0173 -0.3369
11036TIP3    H154523   2.510   0.601  15.627 -1.5156  1.2543 -1.4268
11036TIP3    H254524   2.423   0.504  15.550 -1.8476  1.1073 -0.8728
11037TIP3   OH254525   0.934   0.834   0.644  0.0209  0.3117  0.2431
11037TIP3    H154526   0.997   0.812   0.575 -1.5757 -1.9657 -0.6158
11037TIP3    H254527   0.916   0.750   0.687 -0.6602  1.3223  2.0170
11038TIP3   OH254528   2.815   0.288   1.227 -0.1255 -0.0310 -0.4252
11038TIP3    H154529   2.813   0.196   1.200  1.2164 -0.3895  0.5593
11038TIP3    H254530   2.758   0.291   1.304 -0.8518  0.1410 -0.9744
11039TIP3   OH254531   6.379   0.687  12.696  0.1664  0.5927  0.0880
11039TIP3    H154532   6.404   0.597  12.676 -1.3915  0.0353  0.4772
11039TIP3    H254533   6.309   0.678  12.761 -0.6269  2.0513 -0.5257
11040TIP3   OH254534   3.655   2.666   4.814 -0.0907 -0.1979  1.1753
11040TIP3    H154535   3.640   2.759   4.828  0.9691  0.1801 -0.0539
11040TIP3    H254536   3.568   2.630   4.798 -0.2969  1.0944 -1.0600
11041TIP3   OH254537   4.608   4.098  12.914 -0.2144  0.5643  0.3889
11041TIP3    H154538   4.598   4.034  12.844 -0.9721  0.6425  0.4153
11041TIP3    H254539   4.590   4.050  12.994 -0.6851  0.7807  0.4170
11042TIP3   OH254540   6.036   4.987   3.195 -0.1375  0.1251  0.2570
11042TIP3    H154541   6.049   4.943   3.279  0.0387 -0.2369  0.0444
11042TIP3    H254542   6.068   5.076   3.209 -2.3117  0.8068  1.2829
11043TIP3   OH254543   6.643   0.677  14.343 -0.2620  0.3963 -0.0564
11043TIP3    H154544   6.684   0.600  14.303 -0.5840  0.2897 -0.1844
11043TIP3    H254545   6.607   0.645  14.426  2.0738  1.0289  1.2849
11044TIP3   OH254546   2.476   1.583  12.340 -0.3405 -0.1605  0.0860
11044TIP3    H154547   2.565   1.619  12.341 -0.9766  1.5486  1.3292
11044TIP3    H254548   2.480   1.507  12.281  1.7775  0.2475 -0.3520
11045TIP3   OH254549   3.568   3.071   0.467  0.1164  0.4861  0.2598
11045TIP3    H154550   3.604   3.159   0.452  0.3462  0.8681  2.5721
11045TIP3    H254551   3.474   3.086   0.480 -0.7424 -0.2720 -3.8594
11046TIP3   OH254552   0.317   3.768  11.494 -0.1385 -0.2478 -1.0296
11046TIP3    H154553   0.335   3.674  11.485  0.1077 -0.5277  1.6150
11046TIP3    H254554   0.229   3.772  11.531  0.0554  0.5274 -0.6371
11047TIP3   OH254555   2.883   3.082  16.422  0.4517 -0.3037 -0.4530
11047TIP3    H154556   2.915   2.992  16.418 -0.2981 -0.7039  1.3128
11047TIP3    H254557   2.956   3.135  16.393  2.2528 -1.2756  1.9448
11048TIP3   OH254558   1.484   3.517   3.278 -0.2630 -0.1886 -0.1674
11048TIP3    H154559   1.390   3.514   3.256 -0.2157  2.1056 -0.9653
11048TIP3    H254560   1.518   3.432   3.248 -1.6071 -0.0321 -2.4029
11049TIP3   OH254561   2.285   6.272   4.086 -0.2180 -0.7446  0.0843
11049TIP3    H154562   2.367   6.285   4.133 -0.5731  0.0441  0.5192
11049TIP3    H254563   2.238   6.355   4.098 -1.5098 -1.5448  0.7129
11050TIP3   OH254564   3.337   0.176  13.012 -0.6183 -0.3496 -0.3188
11050TIP3    H154565   3.346   0.178  12.917  0.2528  1.5476 -0.2489
11050TIP3    H254566   3.407   0.119  13.043 -0.2686 -0.1621 -0.7683
11051TIP3   OH254567   6.529   1.496   2.018 -0.4068  0.3713  0.2257
11051TIP3    H154568   6.530   1.433   1.946  2.7776  0.9044 -0.3244
11051TIP3    H254569   6.527   1.442   2.097 -1.9467 -0.2481 -0.1909
11052TIP3   OH254570   6.563   4.947  12.292  0.1338 -0.4659  0.0223
11052TIP3    H154571   6.626   4.982  12.229 -0.4386  1.8103  0.6209
11052TIP3    H254572   6.523   5.025  12.332 -1.3620 -1.8384  1.3486
11053TIP3   OH254573   2.709   2.385  15.573 -0.2741  0.0938  0.6344
11053TIP3    H154574   2.720   2.407  15.480 -1.9695 -0.4803  0.2663
11053TIP3    H254575   2.799   2.382  15.607  0.5946 -1.9230 -1.5348
11054TIP3   OH254576   6.406   1.182  12.456  0.2971  0.1307  0.1018
11054TIP3    H154577   6.382   1.093  12.482 -0.0342  0.2619  0.2499
11054TIP3    H254578   6.477   1.206  12.516 -1.0501  0.7582  1.5010
11055TIP3   OH254579   3.630   5.251   4.912  0.4470 -0.0030 -1.1168
11055TIP3    H154580   3.689   5.311   4.957 -0.3300 -0.0808  0.0447
11055TIP3    H254581   3.544   5.292   4.920  0.1839 -0.3774 -1.9241
11056TIP3   OH254582   6.036   4.633   3.899 -0.3703  0.5469  0.3972
11056TIP3    H154583   6.073   4.700   3.957  2.3975 -0.7752  0.3448
11056TIP3    H254584   6.111   4.603   3.847 -1.6827 -1.9702 -0.1823
11057TIP3   OH254585   0.215   0.401   6.043 -0.3155  0.0241 -0.2111
11057TIP3    H154586   0.128   0.393   6.003 -0.0665  0.6646 -0.9112
11057TIP3    H254587   0.214   0.339   6.115 -1.3651  0.0351 -0.1975
11058TIP3   OH254588   3.140   1.680  11.515  0.4584 -0.2650  0.0142
11058TIP3    H154589   3.190   1.605  11.546  2.3706  0.6284 -0.7599
11058TIP3    H254590   3.201   1.753  11.519 -1.2884  1.2283  0.5399
11059TIP3   OH254591   0.962   2.143   2.136 -0.1943  0.6610  0.2649
11059TIP3    H154592   1.050   2.109   2.148 -0.3842  0.2269  0.4520
11059TIP3    H254593   0.973   2.238   2.126  0.2362  0.6725  0.8429
11060TIP3   OH254594   1.702   4.564  10.976 -0.1733 -0.0146  0.2778
11060TIP3    H154595   1.754   4.486  10.995 -0.3364 -0.0339  0.6651
11060TIP3    H254596   1.612   4.531  10.965 -0.1859  0.0760  0.1146
11061TIP3   OH254597   6.714   5.230  13.617  0.0333  0.3296 -0.4094
11061TIP3    H154598   6.634   5.202  13.662  2.8009 -2.3386  3.5027
11061TIP3    H254599   6.721   5.170  13.543 -1.2345  0.1492 -0.4128
11062TIP3   OH254600   0.332   4.945  14.217 -0.1422 -0.4212  0.0157
11062TIP3    H154601   0.240   4.919  14.225 -0.0188 -0.8190  0.1963
11062TIP3    H254602   0.376   4.899  14.288  0.1709 -0.0988  0.0328
11063TIP3   OH254603   3.083   2.833   0.632  0.2431  0.0880 -0.3146
11063TIP3    H154604   3.151   2.852   0.697  0.7760  1.0027 -1.1133
11063TIP3    H254605   3.001   2.855   0.675  0.7158  2.5933 -0.5761
11064TIP3   OH254606   3.029   6.333   6.127 -0.1378  0.0715  0.2819
11064TIP3    H154607   2.955   6.383   6.093 -0.6064 -0.4108  0.5776
11064TIP3    H254608   3.069   6.391   6.192 -0.1199  0.4189 -0.0348
11065TIP3   OH254609   3.010   0.541  14.286 -0.1964 -0.1483  0.0015
11065TIP3    H154610   2.930   0.501  14.252 -1.2075  1.5119  0.3063
11065TIP3    H254611   3.065   0.467  14.312 -1.7851 -1.3265  0.1485
11066TIP3   OH254612   3.983   2.880   5.183  0.6248 -0.1041 -0.1684
11066TIP3    H154613   3.933   2.943   5.234 -1.7060 -0.9496 -1.2237
11066TIP3    H254614   4.002   2.925   5.101 -0.5685 -0.5303 -0.7078
11067TIP3   OH254615   5.852   5.598   5.952 -0.5900 -0.2439 -0.2458
11067TIP3    H154616   5.858   5.680   5.904 -1.2646  0.3522  0.6596
11067TIP3    H254617   5.943   5.568   5.958 -0.4035  0.1080 -1.1172
11068TIP3   OH254618   3.482   6.145  13.811 -0.1715  0.6749  0.0415
11068TIP3    H154619   3.402   6.099  13.786 -1.3311  1.7489  1.5904
11068TIP3    H254620   3.463   6.180  13.898  2.1858  0.5246  0.6798
11069TIP3   OH254621   0.452   6.121  17.071  0.2292 -0.3045  0.1388
11069TIP3    H154622   0.403   6.165  17.001  2.5457 -1.3516 -2.3631
11069TIP3    H254623   0.461   6.031  17.040  0.7753 -0.9892  2.1568
11070TIP3   OH254624   6.440   0.124  16.542 -0.4757 -0.0593  0.5976
11070TIP3    H154625   6.464   0.192  16.604 -1.3120  0.2221  0.6235
11070TIP3    H254626   6.381   0.167  16.480 -0.0858 -0.4718 -0.0812
11071TIP3   OH254627   4.066   0.476  15.077  0.0170 -0.6027 -0.5119
11071TIP3    H154628   3.977   0.444  15.066  0.0072 -0.4882 -0.7584
11071TIP3    H254629   4.121   0.409  15.036 -0.0433  0.0018 -1.6028
11072TIP3   OH254630   0.333   4.289  11.571 -0.4967 -0.0152 -0.7156
11072TIP3    H154631   0.323   4.293  11.666  4.0250  0.7564 -0.0144
11072TIP3    H254632   0.289   4.367  11.538  0.1061  1.1867  1.1490
11073TIP3   OH254633   5.293   1.175   0.241  0.3384  0.2168  0.1640
11073TIP3    H154634   5.342   1.093   0.247  0.7094  0.2421 -1.8090
11073TIP3    H254635   5.360   1.242   0.233  0.0145  0.5496  0.2154
11074TIP3   OH254636   2.999   1.338   3.669  0.6325 -0.5890  0.0650
11074TIP3    H154637   3.056   1.396   3.618 -2.8053  0.9319 -2.5061
11074TIP3    H254638   2.987   1.261   3.614 -0.9092 -0.1770 -0.2459
11075TIP3   OH254639   5.437   1.412   1.146  0.1480 -0.3807 -0.0727
11075TIP3    H154640   5.471   1.502   1.153  1.8428 -0.7891 -2.0041
11075TIP3    H254641   5.464   1.369   1.227  2.6091 -0.1094 -0.6711
11076TIP3   OH254642   2.545   3.907  16.984 -0.1916  0.4469 -0.3024
11076TIP3    H154643   2.593   3.942  17.059 -0.6025  0.7435 -0.1761
11076TIP3    H254644   2.606   3.913  16.911  0.6677 -0.9934  0.2549
11077TIP3   OH254645   4.067   3.430  12.990 -0.4246 -0.4592  0.6777
11077TIP3    H154646   4.067   3.466  12.901 -0.3633 -0.6330  0.6064
11077TIP3    H254647   4.159   3.422  13.013 -0.4480  0.0073  0.9316
11078TIP3   OH254648   1.114   0.770   0.055 -0.7307  0.4017  0.2935
11078TIP3    H154649   1.067   0.827   0.116 -1.1984 -0.6114  0.8981
11078TIP3    H254650   1.075   0.790  -0.030 -1.7598  0.1047  0.6760
11079TIP3   OH254651   6.035   5.498  13.241 -0.5214 -0.3501 -0.3209
11079TIP3    H154652   6.003   5.473  13.328 -0.4712 -1.9744 -0.7373
11079TIP3    H254653   6.080   5.420  13.209  2.8746  1.4104 -0.2591
11080TIP3   OH254654   4.787   4.187  13.981 -0.5151 -0.2918 -0.1419
11080TIP3    H154655   4.773   4.152  13.893 -2.5792 -1.5001  0.5961
11080TIP3    H254656   4.762   4.116  14.039  0.0238  0.7596  1.4348
11081TIP3   OH254657   6.716   6.152   0.704  0.2528 -0.4983  0.4610
11081TIP3    H154658   6.672   6.070   0.683 -1.5509  0.1261  1.6417
11081TIP3    H254659   6.669   6.219   0.655  0.9838 -0.0082  0.3979
11082TIP3   OH254660   0.864   0.472   0.891  0.4759  0.5128 -0.9854
11082TIP3    H154661   0.932   0.429   0.943 -0.4807 -0.5590 -0.5905
11082TIP3    H254662   0.819   0.528   0.954 -0.8376 -0.9651 -0.5476
11083TIP3   OH254663   5.651   5.802   0.640  0.5185 -0.4960  0.0880
11083TIP3    H154664   5.612   5.882   0.605  2.1037  0.0058 -0.6503
11083TIP3    H254665   5.721   5.833   0.697  1.1257 -1.3519 -0.1723
11084TIP3   OH254666   5.329   0.327  15.744  0.1699 -0.0968  0.3429
11084TIP3    H154667   5.315   0.277  15.825  1.0975 -2.3642 -0.7823
11084TIP3    H254668   5.417   0.302  15.717 -0.2222  0.4262 -1.4997
11085TIP3   OH254669   4.901   6.611   0.801  0.0895 -0.0728 -0.0951
11085TIP3    H154670   4.944   6.681   0.850  0.7110 -0.7525  0.3425
11085TIP3    H254671   4.827   6.655   0.757 -0.3259  0.5932  1.2232
11086TIP3   OH254672   3.714   3.911   2.500 -0.2239  0.1398 -0.3108
11086TIP3    H154673   3.662   3.947   2.571  1.1465  1.1066  0.2481
11086TIP3    H254674   3.805   3.931   2.524  0.3663 -0.8092 -1.6132
11087TIP3   OH254675   0.545   5.374   4.190 -0.2383 -0.1782 -0.1624
11087TIP3    H154676   0.615   5.400   4.129 -0.7405 -0.2406 -0.7761
11087TIP3    H254677   0.509   5.294   4.151 -0.6821 -0.1208  0.1255
11088TIP3   OH254678   6.632   6.379  11.875  0.3433  0.0647  0.2964
11088TIP3    H154679   6.620   6.453  11.935  0.1005  1.6493 -1.5818
11088TIP3    H254680   6.725   6.382  11.851  0.3528 -0.2938  0.2889
11089TIP3   OH254681   3.183   2.629  16.874 -0.1763  0.1868 -0.5053
11089TIP3    H154682   3.228   2.674  16.803  1.8018 -0.6244  0.1556
11089TIP3    H254683   3.138   2.699  16.922  1.2553  1.2062 -0.5947
11090TIP3   OH254684   5.105   2.081  10.453  0.2166  0.2646  0.5034
11090TIP3    H154685   5.121   2.169  10.486  3.0552  0.6738 -1.5601
11090TIP3    H254686   5.067   2.094  10.367  2.8172 -0.2974 -0.8512
11091TIP3   OH254687   2.650   1.034  11.150 -0.6840  0.1208 -0.6804
11091TIP3    H154688   2.632   1.037  11.056 -2.3509  0.9778 -0.3633
11091TIP3    H254689   2.649   1.126  11.178 -0.7621 -0.1619  0.2810
11092TIP3   OH254690   3.462   1.416  16.686 -0.4708  0.1099 -0.3952
11092TIP3    H154691   3.405   1.430  16.762 -1.5464  1.0945 -1.3321
11092TIP3    H254692   3.533   1.361  16.718 -1.3980 -0.2661  1.0838
11093TIP3   OH254693   6.713   2.690  13.364  0.0736  0.4338  0.0031
11093TIP3    H154694   6.754   2.604  13.369 -1.4446 -0.4920 -2.0749
11093TIP3    H254695   6.734   2.721  13.276 -1.5361  1.0305 -0.1980
11094TIP3   OH254696   4.845   0.719  16.217 -0.7827 -0.7047  0.4841
11094TIP3    H154697   4.896   0.749  16.142  0.6419 -1.5457  1.0505
11094TIP3    H254698   4.885   0.635  16.240 -1.7987 -0.9100  1.6028
11095TIP3   OH254699   2.970   0.416   4.277  0.4848  0.4787  0.4981
11095TIP3    H154700   2.901   0.361   4.239  0.8576  0.3282  0.0263
11095TIP3    H254701   3.007   0.463   4.203  0.5343  0.9647  0.8271
11096TIP3   OH254702   1.975   0.718   1.753 -0.1408 -0.2059 -0.1112
11096TIP3    H154703   2.027   0.793   1.723 -1.3901  0.4161 -0.7882
11096TIP3    H254704   2.027   0.641   1.729 -0.2710  0.3383 -2.2650
11097TIP3   OH254705   3.412   2.517   0.583  0.2701  0.2143  0.7285
11097TIP3    H154706   3.329   2.469   0.593  0.8663 -0.6222  1.8803
11097TIP3    H254707   3.414   2.578   0.657 -0.0852  1.4580 -0.2537
11098TIP3   OH254708   4.618   1.108   5.971  0.5474 -0.2274 -0.4225
11098TIP3    H154709   4.667   1.089   5.891  1.0972 -0.7845  0.0308
11098TIP3    H254710   4.570   1.188   5.952  0.0461 -0.7960 -1.5774
11099TIP3   OH254711   1.054   3.552  14.351  0.5350 -0.3933 -0.2523
11099TIP3    H154712   0.979   3.503  14.319  1.4759 -2.6220  0.7443
11099TIP3    H254713   1.131   3.502  14.322  1.7072  1.8092 -1.2504
11100TIP3   OH254714   0.663   6.219   3.320 -0.1590 -0.1279 -0.1279
11100TIP3    H154715   0.720   6.169   3.378 -0.3210  0.0979  0.2256
11100TIP3    H254716   0.610   6.153   3.276 -0.0623 -0.2968  0.0081
11101TIP3   OH254717   3.342   6.417  10.609  0.4497  0.1172  0.1772
11101TIP3    H154718   3.415   6.370  10.569  0.5481  0.6365 -0.2594
11101TIP3    H254719   3.297   6.459  10.535  2.0621  3.1650  0.7805
11102TIP3   OH254720   3.448   4.749  16.653  0.4319  0.6156 -0.1904
11102TIP3    H154721   3.456   4.752  16.748 -0.2027  0.4889 -0.1275
11102TIP3    H254722   3.375   4.688  16.637 -0.9073  2.2630 -0.6673
11103TIP3   OH254723   3.635   1.581  12.440  0.0028  0.6751  0.5118
11103TIP3    H154724   3.709   1.554  12.386  0.8587  2.4998  0.7066
11103TIP3    H254725   3.568   1.515  12.422 -0.5666  2.1713 -4.4204
11104TIP3   OH254726   5.867   6.565  12.146 -0.2367 -0.2238  0.2066
11104TIP3    H154727   5.866   6.618  12.226 -0.9222  0.8805 -0.5139
11104TIP3    H254728   5.909   6.484  12.172 -0.1256  0.2596  1.6088
11105TIP3   OH254729   1.342   3.695  13.802 -0.5396  0.1234  0.5982
11105TIP3    H154730   1.342   3.782  13.763 -2.1414  0.2724  0.8809
11105TIP3    H254731   1.296   3.640  13.739  3.5239 -1.4269 -1.3399
11106TIP3   OH254732   2.474   6.264  13.221 -0.5512  0.8354  0.0856
11106TIP3    H154733   2.464   6.307  13.306 -0.3195  1.3230 -0.1323
11106TIP3    H254734   2.480   6.171  13.243 -0.8163  0.9293  0.5787
11107TIP3   OH254735   2.547   4.280   0.292  0.0255  0.0417 -0.1958
11107TIP3    H154736   2.625   4.266   0.239 -2.1837  0.7309 -3.9681
11107TIP3    H254737   2.507   4.193   0.299 -0.2989  0.1393 -0.7686
11108TIP3   OH254738   0.802   2.376  13.422 -0.3770  0.0035 -0.2201
11108TIP3    H154739   0.807   2.315  13.496 -2.7474 -0.8123 -0.6357
11108TIP3    H254740   0.876   2.351  13.366  0.1203 -0.8814  0.7763
11109TIP3   OH254741   3.795   5.030   4.258 -0.4722 -0.1156 -0.2554
11109TIP3    H154742   3.722   5.090   4.273 -2.5151 -2.0032 -1.9689
11109TIP3    H254743   3.848   5.037   4.338 -3.4437  0.0779  1.8908
11110TIP3   OH254744   5.101   3.063   6.138 -0.1154 -0.0140 -0.5029
11110TIP3    H154745   5.170   3.124   6.115  1.6827 -1.6673  0.2165
11110TIP3    H254746   5.020   3.109   6.118  1.1730  1.1735 -3.5330
11111TIP3   OH254747   5.632   2.489  11.895  0.0545  0.7000  0.5341
11111TIP3    H154748   5.592   2.429  11.959 -0.5456 -0.5205 -0.9256
11111TIP3    H254749   5.698   2.536  11.945  1.1204 -1.7503  1.5995
11112TIP3   OH254750   2.816   6.584  15.712  0.0040 -0.7440 -0.1695
11112TIP3    H154751   2.721   6.580  15.700 -0.2977  1.0190  1.1650
11112TIP3    H254752   2.832   6.530  15.789 -0.1871  0.2692  0.6128
11113TIP3   OH254753   6.521   5.730  13.534 -0.3123 -0.3698 -0.2491
11113TIP3    H154754   6.480   5.655  13.577  0.2379  0.3390  1.6248
11113TIP3    H254755   6.602   5.696  13.498 -1.7593 -1.4647 -2.7431
11114TIP3   OH254756   5.252   4.102  16.617  0.4229  0.2051  0.3061
11114TIP3    H154757   5.301   4.183  16.604  0.3373  0.2461  0.2300
11114TIP3    H254758   5.162   4.131  16.631  0.0130  0.0637 -1.6933
11115TIP3   OH254759   3.693   0.843   2.295 -0.2465 -0.1940  0.5583
11115TIP3    H154760   3.752   0.771   2.318 -1.9923 -1.9875 -0.2837
11115TIP3    H254761   3.717   0.866   2.205  0.2948  0.2702  0.8184
11116TIP3   OH254762   1.393   4.111  10.856  0.4744 -0.1329 -0.4120
11116TIP3    H154763   1.333   4.132  10.927  0.3961 -0.3699 -0.4062
11116TIP3    H254764   1.479   4.135  10.891  0.4968 -0.7252 -0.0333
11117TIP3   OH254765   6.503   0.554  16.524 -0.0367  0.1356 -0.4460
11117TIP3    H154766   6.413   0.584  16.537  0.0493 -0.0822  0.7831
11117TIP3    H254767   6.554   0.600  16.590  1.1432  1.7578 -2.3632
11118TIP3   OH254768   3.973   4.835   4.596  0.4126  0.3343  0.2480
11118TIP3    H154769   3.889   4.858   4.636 -1.1404 -1.6204 -1.6682
11118TIP3    H254770   3.998   4.915   4.548 -1.5153  0.3280 -0.9160
11119TIP3   OH254771   2.432   0.427  16.600  0.0872 -0.6948 -0.0499
11119TIP3    H154772   2.346   0.397  16.631  0.4201 -1.1522  0.4657
11119TIP3    H254773   2.485   0.434  16.680 -0.0815  1.7280 -0.0771
11120TIP3   OH254774   2.799   5.417  12.271 -0.1631 -0.1658 -0.4233
11120TIP3    H154775   2.726   5.393  12.214  0.4867 -0.8504 -1.0061
11120TIP3    H254776   2.846   5.334  12.286 -0.1637  0.0586  0.8942
11121TIP3   OH254777   2.623   0.516  11.374 -0.0690  0.2093  0.2218
11121TIP3    H154778   2.645   0.433  11.417 -1.0029 -0.0893  0.1596
11121TIP3    H254779   2.538   0.540  11.411 -0.6011  0.2704 -0.9863
11122TIP3   OH254780   0.406   1.216   1.005  0.2579 -0.2328  0.6876
11122TIP3    H154781   0.344   1.179   0.943  1.6798  0.3189 -1.1394
11122TIP3    H254782   0.492   1.194   0.970  1.1175  1.2898  1.6991
11123TIP3   OH254783   1.209   4.202  15.278 -1.2077  0.2230 -0.5428
11123TIP3    H154784   1.295   4.172  15.310 -1.4874 -0.0331 -0.0079
11123TIP3    H254785   1.230   4.273  15.217 -0.5992 -0.0848 -0.7030
11124TIP3   OH254786   6.654   3.531   3.915 -0.1041  0.3160 -0.0515
11124TIP3    H154787   6.700   3.477   3.851  1.8474  0.1006  1.4238
11124TIP3    H254788   6.687   3.620   3.900  0.6242  0.2107  0.8080
11125TIP3   OH254789   5.983   6.769   3.618  0.3770  0.7671 -0.1719
11125TIP3    H154790   6.052   6.739   3.559 -0.5761  0.6484 -1.2801
11125TIP3    H254791   5.986   6.864   3.613  0.7367  0.7748  0.1324
11126TIP3   OH254792   0.357   3.973   1.519 -0.0981 -0.3370 -0.4860
11126TIP3    H154793   0.358   4.067   1.501  1.2532 -0.2177  0.1388
11126TIP3    H254794   0.293   3.963   1.590  0.2243  0.1974 -0.1138
11127TIP3   OH254795   2.596   6.758  11.169  0.1930  0.0147  0.2359
11127TIP3    H154796   2.677   6.723  11.205  0.8172  2.7832  1.8205
11127TIP3    H254797   2.596   6.730  11.078  1.5740 -2.2509  0.8436
11128TIP3   OH254798   2.359   4.687  16.073  0.0156 -0.0444 -0.5894
11128TIP3    H154799   2.392   4.598  16.059 -0.5933 -0.7607  2.0421
11128TIP3    H254800   2.428   4.731  16.123 -0.7829  0.0700  0.4502
11129TIP3   OH254801   0.991   2.840  16.544 -0.1803  0.6490  0.2175
11129TIP3    H154802   1.041   2.852  16.464 -2.4626 -0.6977 -1.5499
11129TIP3    H254803   0.934   2.917  16.548  0.5324  1.1486  1.0677
11130TIP3   OH254804   5.459   2.755   0.251 -0.6342  0.1130 -0.1549
11130TIP3    H154805   5.468   2.832   0.194 -2.2107  0.2399 -0.2715
11130TIP3    H254806   5.421   2.789   0.332  1.3996 -0.1007  0.9723
11131TIP3   OH254807   0.551   4.288  14.792  0.1364 -0.1511 -0.5106
11131TIP3    H154808   0.595   4.292  14.708 -1.0307  0.8700 -1.0904
11131TIP3    H254809   0.506   4.203  14.792  0.2298 -0.1995 -0.8716
11132TIP3   OH254810   3.031   5.175   2.263 -0.3001  0.0474 -0.3999
11132TIP3    H154811   3.048   5.141   2.175  0.6191  1.7860 -0.9459
11132TIP3    H254812   3.114   5.215   2.289 -0.3758 -0.9327  1.5294
11133TIP3   OH254813   4.956   1.455   0.861 -0.6700  0.3305 -0.1175
11133TIP3    H154814   4.899   1.532   0.849  0.2542  1.3046  1.3951
11133TIP3    H254815   5.037   1.478   0.816 -0.5975  0.0121 -0.1468
11134TIP3   OH254816   6.348   6.650   5.296 -0.4139  0.0407 -0.8399
11134TIP3    H154817   6.254   6.666   5.298 -0.2460  1.0496  0.9030
11134TIP3    H254818   6.382   6.714   5.232 -0.7048  1.0983  0.0303
11135TIP3   OH254819   2.113   0.366   3.530 -0.2479 -0.5073  0.0930
11135TIP3    H154820   2.035   0.317   3.502 -0.3763  0.0554 -0.5524
11135TIP3    H254821   2.171   0.299   3.567 -1.0971 -0.9046  0.7214
11136TIP3   OH254822   6.402   6.704  14.354 -0.2564 -0.0935  0.2631
11136TIP3    H154823   6.430   6.635  14.294  0.1227  0.5426 -0.2955
11136TIP3    H254824   6.308   6.712  14.339 -0.6702 -1.7575  1.6539
11137TIP3   OH254825   1.979   0.970  15.889  0.3007  0.1367 -0.4754
11137TIP3    H154826   1.986   1.057  15.850 -0.7369 -0.3231 -1.7527
11137TIP3    H254827   1.972   0.910  15.815  1.6484 -1.1325  0.3513
11138TIP3   OH254828   4.029   1.260  15.821  0.0014 -0.0127 -0.3632
11138TIP3    H154829   4.055   1.340  15.776 -0.7851  0.3525 -0.1917
11138TIP3    H254830   4.083   1.258  15.900  2.0762 -1.1528 -1.7295
11139TIP3   OH254831   1.990   6.489   2.855  0.5975 -0.3804  0.2056
11139TIP3    H154832   1.914   6.501   2.911  1.0337 -0.3112  0.7917
11139TIP3    H254833   2.049   6.561   2.878  1.2975 -1.0389  0.5367
11140TIP3   OH254834   4.022   0.980   4.554 -0.4311  0.3347  0.3542
11140TIP3    H154835   4.049   1.042   4.486 -1.8555  0.7470  0.1194
11140TIP3    H254836   4.096   0.976   4.614  0.4447  0.7720 -0.6596
11141TIP3   OH254837   2.273   4.911  13.355  0.4092 -0.2256  0.0804
11141TIP3    H154838   2.227   4.993  13.337  0.6683  0.0291  0.5674
11141TIP3    H254839   2.358   4.922  13.313  0.6507 -0.0232  0.6232
11142TIP3   OH254840   6.615   0.312   1.762  0.0469 -0.1831 -0.2957
11142TIP3    H154841   6.702   0.337   1.732 -0.8134  1.9441 -1.1849
11142TIP3    H254842   6.562   0.304   1.682 -0.2262 -3.3248  0.0508
11143TIP3   OH254843   3.805   5.290   0.781  0.4359  0.1239 -0.0027
11143TIP3    H154844   3.854   5.231   0.723  3.5227  1.5642  0.9619
11143TIP3    H254845   3.791   5.240   0.861  1.4540  0.0791  0.1555
11144TIP3   OH254846   1.063   0.679  16.441 -0.1929 -0.1294 -0.3782
11144TIP3    H154847   1.022   0.766  16.437  1.0683  0.4589 -1.5322
11144TIP3    H254848   1.035   0.636  16.360 -1.8663 -1.3476  0.7842
11145TIP3   OH254849   4.787   5.556  13.312 -0.0017 -0.4513 -0.1315
11145TIP3    H154850   4.851   5.617  13.350 -0.8400 -0.2400  0.9609
11145TIP3    H254851   4.704   5.603  13.315 -0.1347 -0.4305 -2.2374
11146TIP3   OH254852   4.366   4.525   0.387  0.1154  0.2037  0.5190
11146TIP3    H154853   4.411   4.554   0.307  2.2330 -0.4865  1.3909
11146TIP3    H254854   4.316   4.448   0.359  0.2106  0.4162 -0.2826
11147TIP3   OH254855   1.132   3.611   1.269 -0.0144 -0.1754  0.1082
11147TIP3    H154856   1.197   3.616   1.339  0.7587  1.1158 -0.6630
11147TIP3    H254857   1.138   3.696   1.225 -0.4686 -0.9553 -1.5339
11148TIP3   OH254858   4.178   1.807   4.960  0.2054 -0.0243 -0.4430
11148TIP3    H154859   4.166   1.847   4.874  0.2229 -0.3639 -0.6050
11148TIP3    H254860   4.268   1.828   4.985 -0.1305  0.9949 -0.0230
11149TIP3   OH254861   0.411   2.010  11.172  0.0953  0.2635 -0.6132
11149TIP3    H154862   0.489   1.966  11.140  1.1318  0.2002  1.8113
11149TIP3    H254863   0.380   2.061  11.098  1.8902 -0.4318 -1.9056
11150TIP3   OH254864   5.402   4.607  16.199 -0.5966  0.0036 -0.6694
11150TIP3    H154865   5.323   4.607  16.252  0.9472  1.5298  1.8268
11150TIP3    H254866   5.454   4.533  16.233 -0.8256 -0.9239 -2.2106
11151TIP3   OH254867   4.644   4.662  16.131  0.1197 -0.5950  0.6313
11151TIP3    H154868   4.626   4.605  16.056 -0.8703 -0.3434  0.6606
11151TIP3    H254869   4.627   4.750  16.098 -2.6658 -0.6098  1.7455
11152TIP3   OH254870   5.862   2.360   4.477 -0.0596 -0.9964 -0.0292
11152TIP3    H154871   5.826   2.433   4.527  1.0186 -0.9300  0.6794
11152TIP3    H254872   5.848   2.283   4.533  0.4268 -1.0490  0.0208
11153TIP3   OH254873   0.511   0.108  13.522 -0.1360  0.0157  0.1956
11153TIP3    H154874   0.590   0.077  13.479  0.4507  0.4606  0.9362
11153TIP3    H254875   0.452   0.133  13.451 -0.5451 -2.5276 -0.4517
11154TIP3   OH254876   5.675   4.052  14.017  0.0538  0.3587  0.0171
11154TIP3    H154877   5.749   3.995  13.996 -0.1038  0.3785 -0.6168
11154TIP3    H254878   5.658   4.036  14.110 -0.5079 -1.2633 -0.3196
11155TIP3   OH254879   4.057   4.573   5.340 -0.0029  0.0090  0.3413
11155TIP3    H154880   4.065   4.481   5.315 -0.4507 -0.3356  1.4362
11155TIP3    H254881   3.979   4.603   5.294  0.5516  0.0520 -0.5988
11156TIP3   OH254882   2.625   5.909  14.107  0.3416 -0.3174 -0.3953
11156TIP3    H154883   2.705   5.863  14.081 -0.3552 -2.0418  0.3857
11156TIP3    H254884   2.577   5.846  14.162 -0.5889  1.4123  0.8688
11157TIP3   OH254885   2.814   4.250   1.536  0.4425  0.3479  0.3929
11157TIP3    H154886   2.801   4.334   1.494  0.3963 -0.6446 -1.6928
11157TIP3    H254887   2.907   4.230   1.522 -0.0476 -0.9849 -1.2867
11158TIP3   OH254888   0.136   1.806   0.278 -0.7360  0.5455  0.0543
11158TIP3    H154889   0.052   1.777   0.314 -0.5297  0.9814  0.9002
11158TIP3    H254890   0.112   1.866   0.207 -1.1534  1.2413  0.7611
11159TIP3   OH254891   3.635   4.392   1.142 -0.0343 -0.3473 -0.3798
11159TIP3    H154892   3.687   4.432   1.212  0.0882 -0.5382 -0.3597
11159TIP3    H254893   3.699   4.373   1.073 -0.0741 -0.5941 -0.3507
11160TIP3   OH254894   4.825   6.494   5.001 -0.2941 -0.1579  0.1374
11160TIP3    H154895   4.743   6.527   5.037 -0.5805 -0.6581 -0.0469
11160TIP3    H254896   4.849   6.421   5.058 -0.4601 -0.5984 -0.3570
11161TIP3   OH254897   3.428   3.382  13.505 -0.2171 -0.5657  0.0486
11161TIP3    H154898   3.510   3.380  13.555  0.1347  0.9334 -0.4108
11161TIP3    H254899   3.360   3.391  13.571  0.3058  2.4244  0.3513
11162TIP3   OH254900   1.037   2.277   3.059 -0.4867  0.6278 -0.1298
11162TIP3    H154901   0.984   2.342   3.106 -0.6195  1.7510 -1.7682
11162TIP3    H254902   0.976   2.235   2.999 -0.1512 -0.2616  0.1247
11163TIP3   OH254903   6.330   3.844  11.937 -0.2574  0.3964  0.1437
11163TIP3    H154904   6.282   3.764  11.958 -0.0532  0.3467  0.4306
11163TIP3    H254905   6.330   3.893  12.019 -0.3119  0.6558 -0.0105
11164TIP3   OH254906   2.465   0.232   2.212 -0.0848  0.1167  0.3039
11164TIP3    H154907   2.500   0.289   2.281  2.0193 -0.4651 -0.1908
11164TIP3    H254908   2.504   0.147   2.230 -0.4774 -0.3326 -0.9056
11165TIP3   OH254909   0.178   4.365  16.655 -0.4269  0.6475 -0.3139
11165TIP3    H154910   0.156   4.281  16.613 -0.4669  0.2458  0.5003
11165TIP3    H254911   0.095   4.396  16.691  0.0127 -0.1903  1.5440
11166TIP3   OH254912   2.154   3.010  12.625  0.0405 -0.3408 -0.5802
11166TIP3    H154913   2.197   2.942  12.676 -0.3018  0.2880  0.5825
11166TIP3    H254914   2.224   3.070  12.600  0.2289 -0.7212 -0.9818
11167TIP3   OH254915   4.363   5.952  16.988  0.5203  0.0901  0.6377
11167TIP3    H154916   4.395   6.038  16.963 -0.7427  0.7051  1.0273
11167TIP3    H254917   4.419   5.890  16.942  0.1272  1.1377 -1.3277
11168TIP3   OH254918   2.021   4.377  13.107  0.0451 -0.4559 -0.5062
11168TIP3    H154919   2.108   4.359  13.143  0.8529  0.6855 -1.8105
11168TIP3    H254920   2.022   4.335  13.021 -0.6068 -0.2123 -0.6374
11169TIP3   OH254921   3.874   4.639  14.466  0.4526 -0.6452 -0.3632
11169TIP3    H154922   3.934   4.695  14.514  1.2106 -2.0252  0.3574
11169TIP3    H254923   3.879   4.670  14.375 -0.2763  1.3711  0.2190
11170TIP3   OH254924   1.419   2.672   0.410  0.3327  0.0582 -0.4885
11170TIP3    H154925   1.453   2.597   0.362 -0.1897  0.4621 -1.5346
11170TIP3    H254926   1.487   2.693   0.474  0.0582 -1.9097  0.5260
11171TIP3   OH254927   0.920   2.133  12.225 -0.3029  0.2199 -0.0984
11171TIP3    H154928   0.966   2.126  12.141 -0.1741  1.1391 -0.1190
11171TIP3    H254929   0.920   2.044  12.260  0.6714  0.0362 -0.5267
11172TIP3   OH254930   6.461   0.085  15.626 -0.4934  0.0361  0.5663
11172TIP3    H154931   6.502   0.136  15.697  0.0128 -0.4732  0.6525
11172TIP3    H254932   6.440   0.001  15.667 -1.8781  0.3725  0.5838
11173TIP3   OH254933   0.986   1.027   1.971  0.1118  0.4284  0.1096
11173TIP3    H154934   0.891   1.014   1.962  0.0508 -0.7724  1.9278
11173TIP3    H254935   0.996   1.082   2.049  0.9206 -0.2319  0.4907
11174TIP3   OH254936   6.551   4.925  16.672  0.2132 -0.1315  0.1480
11174TIP3    H154937   6.554   4.832  16.693 -2.3641 -1.0915 -2.9006
11174TIP3    H254938   6.479   4.960  16.725  0.0169 -0.2940 -0.0125
11175TIP3   OH254939   5.850   4.385   5.880 -0.2685 -0.3776  0.0520
11175TIP3    H154940   5.937   4.386   5.920 -0.4411 -1.1369  0.4628
11175TIP3    H254941   5.845   4.468   5.832  0.6503 -0.2962  0.0812
11176TIP3   OH254942   6.283   4.684   5.702 -0.0415  0.2428  0.4474
11176TIP3    H154943   6.273   4.589   5.709  0.7770  0.0091 -1.0390
11176TIP3    H254944   6.305   4.699   5.610 -0.8101  1.9464  0.4947
11177TIP3   OH254945   5.724   4.050   1.926  0.6991 -0.0478  0.3235
11177TIP3    H154946   5.709   4.032   1.833  3.4145 -1.4864  0.0679
11177TIP3    H254947   5.793   3.989   1.952 -0.3190 -0.0609  3.4546
11178TIP3   OH254948   5.659   3.723  16.544 -0.1377  0.2827 -0.0522
11178TIP3    H154949   5.713   3.793  16.507  0.7086 -0.9524 -1.2216
11178TIP3    H254950   5.722   3.662  16.583 -0.9354  0.9888  2.5827
11179TIP3   OH254951   4.621   4.832   5.104  0.3394 -0.3324 -0.1574
11179TIP3    H154952   4.680   4.801   5.035 -0.7610 -1.1229 -0.7793
11179TIP3    H254953   4.543   4.776   5.096 -0.4907  0.6620  0.6439
11180TIP3   OH254954   6.101   3.507  14.387 -0.6878  0.4658 -0.1269
11180TIP3    H154955   6.068   3.583  14.434 -0.8382 -1.1920  2.6654
11180TIP3    H254956   6.024   3.465  14.349 -0.5345  1.9663 -2.2736
11181TIP3   OH254957   4.885   5.400  13.103 -0.6932 -0.1419 -0.8216
11181TIP3    H154958   4.954   5.463  13.083 -0.1027 -0.5131 -0.0142
11181TIP3    H254959   4.839   5.437  13.178  0.5999 -1.3295  0.6272
11182TIP3   OH254960   0.023   2.129  12.243 -0.0948  0.2335 -0.0419
11182TIP3    H154961  -0.010   2.203  12.295 -0.4149  0.4414 -0.5439
11182TIP3    H254962   0.084   2.084  12.303  1.7350  2.0931 -0.3688
11183TIP3   OH254963   0.029   4.216   0.243 -0.2041 -0.4434  0.3245
11183TIP3    H154964  -0.051   4.250   0.284  0.8815  1.5383  0.9232
11183TIP3    H254965   0.054   4.142   0.298 -1.0162 -0.3944  0.7860
11184TIP3   OH254966   4.950   4.701   0.737  0.2398 -0.3772 -0.1582
11184TIP3    H154967   4.875   4.645   0.719 -1.3291  1.6346 -0.1598
11184TIP3    H254968   4.936   4.734   0.826  2.2765 -1.6254  0.7079
11185TIP3   OH254969   5.227   4.671   5.275  0.3544 -0.3415  1.1514
11185TIP3    H154970   5.224   4.742   5.339  0.4584  0.1979  0.5742
11185TIP3    H254971   5.320   4.655   5.261  0.4167  1.1567 -0.5714
11186TIP3   OH254972   2.138   5.299   4.948  0.9454 -0.0551  0.8218
11186TIP3    H154973   2.192   5.264   5.019 -0.6232 -0.5070  1.8501
11186TIP3    H254974   2.064   5.238   4.943  0.6663  0.3855 -0.7317
11187TIP3   OH254975   0.450   3.879  14.586  0.3627 -0.4059 -0.2256
11187TIP3    H154976   0.513   3.813  14.558  0.5242 -0.5059  0.3631
11187TIP3    H254977   0.370   3.830  14.605 -0.1259 -0.2066 -1.6115
11188TIP3   OH254978   6.341   0.511   4.170 -0.0177  0.2785  0.3063
11188TIP3    H154979   6.278   0.567   4.215  0.9584  1.8645 -0.1940
11188TIP3    H254980   6.292   0.470   4.099 -0.3870  1.9161 -0.4195
11189TIP3   OH254981   5.722   0.203   5.843 -0.0318  0.2155 -0.6265
11189TIP3    H154982   5.661   0.186   5.915 -2.2421 -1.0223 -2.6093
11189TIP3    H254983   5.798   0.148   5.862 -0.8852 -0.6517  0.4042
11190TIP3   OH254984   5.713   2.688   6.128  0.5268  0.0641 -0.4571
11190TIP3    H154985   5.649   2.741   6.175  2.3982 -0.3265  2.7796
11190TIP3    H254986   5.730   2.737   6.047  0.3217  3.1210  1.2207
11191TIP3   OH254987   0.966   3.541   2.942 -0.5545  0.1406 -0.0255
11191TIP3    H154988   1.019   3.466   2.914 -0.9686  0.0350 -0.5374
11191TIP3    H254989   1.026   3.594   2.994 -0.2036 -0.4512  0.1885
11192TIP3   OH254990   0.240   1.445   4.877  0.4166 -0.6092 -0.4237
11192TIP3    H154991   0.261   1.364   4.831  3.4691  0.0105 -0.3655
11192TIP3    H254992   0.267   1.430   4.967  3.1633  1.0319 -0.8376
11193TIP3   OH254993   2.925   2.781   3.970 -0.4306  0.3649 -0.8259
11193TIP3    H154994   2.928   2.703   4.026 -0.8002  0.8796 -0.0769
11193TIP3    H254995   2.963   2.751   3.887 -1.2032 -0.8020 -0.7889
11194TIP3   OH254996   3.711   3.086  14.689 -0.2686 -0.1251 -0.2365
11194TIP3    H154997   3.658   3.090  14.769 -0.7029  0.2971 -0.5369
11194TIP3    H254998   3.647   3.070  14.619  0.3587 -3.1019 -0.2435
11195TIP3   OH254999   2.482   6.091   2.305  0.0963  0.5053  0.1083
11195TIP3    H155000   2.467   6.113   2.397 -1.3988  2.1479 -0.4559
11195TIP3    H255001   2.480   5.995   2.302 -0.2719  0.4362  1.7077
11196TIP3   OH255002   3.607   5.592  13.883 -0.6136  0.0395  0.0334
11196TIP3    H155003   3.553   5.537  13.940 -1.1735 -0.5230 -1.0124
11196TIP3    H255004   3.568   5.680  13.891 -0.5633  0.0052  0.6639
11197TIP3   OH255005   4.801   6.308   5.559 -0.3202 -0.0565  0.5163
11197TIP3    H155006   4.848   6.258   5.626  0.5079 -1.2690 -0.8899
11197TIP3    H255007   4.864   6.373   5.528 -0.1249 -0.5621 -0.1826
11198TIP3   OH255008   0.387   0.475  12.573 -0.3091 -0.2985  0.2071
11198TIP3    H155009   0.380   0.437  12.661 -0.0056  1.1399  0.8861
11198TIP3    H255010   0.357   0.406  12.514 -2.2547 -0.7103  1.5797
11199TIP3   OH255011   0.074   4.740   2.983 -0.2842  0.3166  0.1188
11199TIP3    H155012   0.132   4.788   2.924  0.3096 -0.5081  0.0120
11199TIP3    H255013   0.010   4.805   3.011  0.5320  1.1902  0.0367
11200TIP3   OH255014   3.862   1.871  14.609  0.1838  0.0054  0.0334
11200TIP3    H155015   3.907   1.920  14.677 -1.2075 -0.0172  1.0232
11200TIP3    H255016   3.769   1.883  14.628 -0.2161 -1.7911 -0.5647
11201TIP3   OH255017   3.353   3.702  14.562  0.4852  0.4387  0.0008
11201TIP3    H155018   3.316   3.784  14.596  0.6118  0.6450 -0.3551
11201TIP3    H255019   3.441   3.698  14.601  0.7298  0.8072 -0.5046
11202TIP3   OH255020   5.518   0.892  14.825  0.0183 -0.0112  0.7509
11202TIP3    H155021   5.497   0.838  14.902 -0.2541 -0.1285  0.5973
11202TIP3    H255022   5.507   0.833  14.751 -0.9664  0.4270  0.5252
11203TIP3   OH255023   1.015   6.015  16.486  0.0020  0.2200 -0.7084
11203TIP3    H155024   0.974   5.958  16.421  1.0164 -1.4015 -0.0076
11203TIP3    H255025   1.034   5.957  16.560 -1.0305  1.9839  1.0237
11204TIP3   OH255026   2.712   5.896  16.126 -0.0883  0.3820  0.2418
11204TIP3    H155027   2.701   5.986  16.096 -0.8018 -0.2315 -1.4322
11204TIP3    H255028   2.634   5.879  16.179 -0.0705  0.6751  0.3627
11205TIP3   OH255029   3.433   4.644   4.662 -0.2967  0.0010  0.0060
11205TIP3    H155030   3.400   4.651   4.752 -1.7294  0.3370 -0.5114
11205TIP3    H255031   3.464   4.554   4.655 -1.1728 -0.3543  0.5321
11206TIP3   OH255032   1.067   0.675   0.453 -0.8781 -0.1601 -0.2662
11206TIP3    H155033   1.034   0.640   0.370  1.1451 -0.8168 -0.8456
11206TIP3    H255034   1.098   0.598   0.501  1.0240  0.4989 -0.3520
11207TIP3   OH255035   1.269   0.815   2.662  0.3711  0.6286  0.0328
11207TIP3    H155036   1.347   0.847   2.707  0.4861 -0.2251  0.4600
11207TIP3    H255037   1.272   0.857   2.576  2.5264 -1.0888 -0.8321
11208TIP3   OH255038   1.864   1.304   5.653 -0.4940  0.1093  0.2510
11208TIP3    H155039   1.787   1.361   5.662 -1.3140 -1.0296  0.6484
11208TIP3    H255040   1.840   1.243   5.583 -0.0303 -0.3806  0.5162
11209TIP3   OH255041   3.768   2.826   3.514 -0.0880 -0.0620 -0.1759
11209TIP3    H155042   3.754   2.894   3.581  0.0323  0.0087 -0.2211
11209TIP3    H255043   3.699   2.841   3.450  1.4258  1.6379 -1.4980
11210TIP3   OH255044   4.969   2.594   1.409  0.6655 -0.1712 -0.2678
11210TIP3    H155045   4.940   2.631   1.326  0.2238  0.0146 -0.0309
11210TIP3    H255046   4.964   2.499   1.396 -0.6768 -0.1481 -0.0106
11211TIP3   OH255047   0.792   4.381  12.890 -0.1539 -0.0567 -0.2551
11211TIP3    H155048   0.842   4.345  12.817 -0.5536 -0.2345 -0.4454
11211TIP3    H255049   0.743   4.306  12.924  0.5833 -0.1394  0.6688
11212TIP3   OH255050   3.934   0.695  14.004  0.1812  0.0001 -0.0535
11212TIP3    H155051   3.898   0.652  14.081  0.8256  1.1092  0.8994
11212TIP3    H255052   3.874   0.767  13.987  0.0695 -0.2120 -0.5689
11213TIP3   OH255053   1.477   2.246   1.613 -0.3820  0.1306  0.1887
11213TIP3    H155054   1.467   2.341   1.625  1.7053  0.4237 -0.0888
11213TIP3    H255055   1.552   2.222   1.667  0.7964 -0.8624 -1.7879
11214TIP3   OH255056   0.988   6.482   3.036 -0.3375 -0.1511 -0.1857
11214TIP3    H155057   1.030   6.558   3.076  0.7808 -0.5393 -0.6032
11214TIP3    H255058   0.934   6.520   2.966 -2.5469  0.5638  1.7499
11215TIP3   OH255059   4.137   3.603   5.634  0.2353 -0.0655 -0.0218
11215TIP3    H155060   4.098   3.631   5.717  0.3599  0.1663 -0.0406
11215TIP3    H255061   4.165   3.513   5.649 -1.4517 -0.6985 -0.3901
11216TIP3   OH255062   5.474   5.338   2.063  0.6516  0.5288  0.0944
11216TIP3    H155063   5.461   5.409   2.000 -0.9199 -0.5688 -0.8959
11216TIP3    H255064   5.524   5.272   2.015  0.0933 -0.0025  0.2286
11217TIP3   OH255065   0.984   0.000   5.486 -0.5768  0.4144  0.6117
11217TIP3    H155066   0.889  -0.014   5.493 -0.4522 -0.0808  1.3769
11217TIP3    H255067   1.005   0.058   5.560 -0.2606  0.4306  0.5100
11218TIP3   OH255068   5.588   6.757   0.129  0.0488 -0.3020 -0.1970
11218TIP3    H155069   5.603   6.852   0.130 -2.2887  0.1492 -0.1288
11218TIP3    H255070   5.578   6.735   0.037  2.3209 -0.8707 -0.3619
11219TIP3   OH255071   1.164   3.208  14.524  0.5452 -0.0402  0.2560
11219TIP3    H155072   1.130   3.213  14.434  0.3395 -0.4305  0.3135
11219TIP3    H255073   1.192   3.298  14.543 -0.9650  0.4287  0.4112
11220TIP3   OH255074   5.573   1.842   1.569  0.1443  0.3348 -0.2226
11220TIP3    H155075   5.557   1.750   1.591 -0.4907  0.8782  1.8170
11220TIP3    H255076   5.557   1.847   1.474 -0.4640 -1.5056 -0.2630
11221TIP3   OH255077   2.372   0.856  11.853 -0.6462 -0.0675 -0.1526
11221TIP3    H155078   2.432   0.864  11.928 -0.1971 -0.1709 -0.4949
11221TIP3    H255079   2.286   0.845  11.892 -0.3107 -0.9292  0.3624
11222TIP3   OH255080   4.218   5.739   4.602  0.1300  0.6080 -0.0726
11222TIP3    H155081   4.143   5.680   4.608  1.9464 -1.6912  2.4720
11222TIP3    H255082   4.239   5.743   4.509 -0.2487 -2.6136 -0.3796
11223TIP3   OH255083   1.003   5.907  13.480 -0.1348  0.7030 -0.1874
11223TIP3    H155084   0.963   5.821  13.496  0.3480  0.6610  0.9158
11223TIP3    H255085   1.070   5.890  13.414 -0.2363  0.2787 -0.1853
11224TIP3   OH255086   0.591   1.799   5.981 -0.2687 -0.5624  0.0922
11224TIP3    H155087   0.565   1.717   5.938 -0.8456 -1.5553  2.2032
11224TIP3    H255088   0.513   1.855   5.974  0.1151 -0.1495 -1.3254
11225TIP3   OH255089   3.858   5.746   0.124  0.1810 -0.4775 -0.0266
11225TIP3    H155090   3.783   5.695   0.154 -1.5747  2.2190  0.5753
11225TIP3    H255091   3.846   5.754   0.030  0.5277 -1.1999 -0.1418
11226TIP3   OH255092   1.916   0.892   5.865  0.3061  0.5918 -0.4871
11226TIP3    H155093   2.000   0.851   5.887  0.7241  0.8403 -1.5889
11226TIP3    H255094   1.900   0.867   5.774 -1.3688 -0.3672  0.0251
11227TIP3   OH255095   0.567   5.512  16.976  0.3275  0.2685 -0.1585
11227TIP3    H155096   0.605   5.595  16.948  0.3059  1.0442  1.8967
11227TIP3    H255097   0.561   5.459  16.897  0.6965  2.0861 -1.4458
11228TIP3   OH255098   6.457   2.798  16.941  0.2365  0.0995  0.4329
11228TIP3    H155099   6.512   2.801  17.019 -0.5012  1.2185  0.9454
11228TIP3    H255100   6.449   2.890  16.914  2.9220 -0.3803 -2.7704
11229TIP3   OH255101   3.239   6.285  14.773  0.2515 -0.4584 -0.1554
11229TIP3    H155102   3.273   6.350  14.712  1.9384  1.4982  2.6671
11229TIP3    H255103   3.147   6.276  14.749  0.3590  1.7381 -1.6993
11230TIP3   OH255104   3.010   5.151   2.948 -0.0496 -0.2176 -0.1617
11230TIP3    H155105   2.978   5.174   3.036  2.0533  0.6442  0.4477
11230TIP3    H255106   3.104   5.138   2.960 -0.1335 -3.0150 -1.7705
11231TIP3   OH255107   0.327   5.247   0.127 -0.4493 -0.3452  0.0826
11231TIP3    H155108   0.410   5.250   0.079 -2.4361  0.6735 -3.7433
11231TIP3    H255109   0.264   5.213   0.063 -3.3608  0.7481  2.1462
11232TIP3   OH255110   2.909   5.801   3.980  0.4797 -0.3031 -0.2502
11232TIP3    H155111   2.910   5.822   3.886 -0.3010  0.3496 -0.1273
11232TIP3    H255112   2.820   5.821   4.007  0.5405 -1.0655  0.5120
11233TIP3   OH255113   1.895   0.490   3.991  0.2725 -0.5759  0.0610
11233TIP3    H155114   1.912   0.488   3.897 -1.5220  0.8423 -0.3434
11233TIP3    H255115   1.808   0.530   3.999  1.2077  1.1687  2.4241
11234TIP3   OH255116   5.898   2.526   2.951  0.2903  0.1042 -0.3331
11234TIP3    H155117   5.979   2.550   2.996 -0.2460  3.0048 -0.7706
11234TIP3    H255118   5.889   2.590   2.881 -2.2674 -0.2687 -0.4405
11235TIP3   OH255119   5.084   1.903   4.197  0.0693  0.3515  0.2379
11235TIP3    H155120   5.053   1.971   4.138 -2.2437 -1.4881 -0.8285
11235TIP3    H255121   5.146   1.852   4.146 -0.6997 -0.2697 -0.0949
11236TIP3   OH255122   2.046   0.682  12.437  0.2525 -0.0011  0.4373
11236TIP3    H155123   1.989   0.639  12.502 -0.5626  0.2816 -0.0810
11236TIP3    H255124   2.126   0.629  12.438 -0.9960 -2.0720 -0.7640
11237TIP3   OH255125   4.044   5.891   3.847  0.0932  0.0924 -0.2792
11237TIP3    H155126   4.108   5.882   3.776  0.6516 -0.1474  0.2391
11237TIP3    H255127   4.021   5.984   3.848 -0.1949  0.0289 -1.0070
11238TIP3   OH255128   2.684   4.468  10.775  0.3314 -0.9502 -0.0116
11238TIP3    H155129   2.627   4.451  10.850  0.2488 -1.8512 -0.2598
11238TIP3    H255130   2.747   4.395  10.776  2.4643  0.7821  1.1367
11239TIP3   OH255131   0.129   5.888   1.403 -0.2307 -0.0215  0.5032
11239TIP3    H155132   0.091   5.931   1.479  0.7839 -1.3258  1.8183
11239TIP3    H255133   0.173   5.958   1.354 -1.8106  1.0129  0.4827
11240TIP3   OH255134   2.906   3.668   0.417  0.2575  0.3209  0.1586
11240TIP3    H155135   2.922   3.582   0.455 -0.0149  1.3044  2.7630
11240TIP3    H255136   2.982   3.685   0.362  1.6166 -0.5452  1.6631
11241TIP3   OH255137   5.649   0.019  14.750 -0.0886  0.3213 -0.1037
11241TIP3    H155138   5.739   0.017  14.781  0.1112 -1.1574 -0.6796
11241TIP3    H255139   5.650   0.082  14.678  0.5660  0.0922 -0.3038
11242TIP3   OH255140   2.029   3.898  14.628  0.6515 -0.4239  0.4139
11242TIP3    H155141   2.029   3.964  14.559  1.0663 -0.3409  0.4948
11242TIP3    H255142   2.111   3.912  14.675  0.1534 -0.1724  1.2174
11243TIP3   OH255143   6.232   6.602  14.681  0.3737 -0.1380 -0.0395
11243TIP3    H155144   6.224   6.550  14.601  0.6543 -2.2467  1.2433
11243TIP3    H255145   6.162   6.569  14.738  1.3106  0.0543  1.2639
11244TIP3   OH255146   0.481   2.183   4.162  0.1589  0.6528 -0.5325
11244TIP3    H155147   0.544   2.220   4.100  1.5505 -0.5748  0.0909
11244TIP3    H255148   0.526   2.185   4.246 -1.4699  1.7261  0.3700
11245TIP3   OH255149   5.535   0.669   0.403  0.2685  0.2673 -0.3829
11245TIP3    H155150   5.618   0.624   0.387  0.7490  1.1160 -0.3736
11245TIP3    H255151   5.476   0.635   0.335  0.6452 -0.2789 -0.4443
11246TIP3   OH255152   6.174   2.543  14.279  0.1530  0.3535  0.1197
11246TIP3    H155153   6.130   2.486  14.342 -1.9683  3.0726  1.2967
11246TIP3    H255154   6.159   2.502  14.194 -0.3606 -1.3428  0.9848
11247TIP3   OH255155   2.193   2.728  11.774  0.0481 -0.3813  0.0729
11247TIP3    H155156   2.108   2.692  11.751 -0.1442 -0.2795  0.5918
11247TIP3    H255157   2.172   2.805  11.827  0.4597 -0.7219  0.7496
11248TIP3   OH255158   4.960   4.719  13.602 -0.0713 -0.6026  0.2493
11248TIP3    H155159   4.903   4.779  13.553 -0.3531 -1.1196 -0.0623
11248TIP3    H255160   5.022   4.686  13.537 -0.5652 -1.4363  0.1861
11249TIP3   OH255161   2.306   5.862   1.818  0.6861 -0.6188  0.1452
11249TIP3    H155162   2.241   5.794   1.799 -0.5619  0.5871 -0.0910
11249TIP3    H255163   2.382   5.815   1.852 -0.7493 -1.9824  1.5972
11250TIP3   OH255164   3.241   1.821   1.060  0.0820  0.5430  0.3601
11250TIP3    H155165   3.229   1.913   1.084  0.0005  0.9942 -1.3088
11250TIP3    H255166   3.322   1.819   1.009 -0.4785 -0.1098 -0.5444
11251TIP3   OH255167   3.936   4.824   1.471  0.1083  0.0184  0.4729
11251TIP3    H155168   3.984   4.741   1.467  1.0992  0.5792  0.5350
11251TIP3    H255169   3.943   4.852   1.562 -0.6378 -0.0563  0.5619
11252TIP3   OH255170   5.482   3.241  13.653  0.1252 -0.2095 -0.2780
11252TIP3    H155171   5.566   3.195  13.658 -0.4385 -1.2821 -0.3314
11252TIP3    H255172   5.489   3.295  13.574  2.1832  2.7081  1.6723
11253TIP3   OH255173   4.274   0.660  14.988  0.4803  0.4968 -0.2769
11253TIP3    H155174   4.246   0.743  15.026  0.8716 -0.7076  2.9863
11253TIP3    H255175   4.216   0.595  15.026 -0.0251 -0.7732 -3.0060
11254TIP3   OH255176   5.227   1.008   4.555  0.1395 -0.1478 -0.7180
11254TIP3    H155177   5.185   0.947   4.615 -1.6103  2.1258  0.5435
11254TIP3    H255178   5.311   1.029   4.597  0.7122 -1.5041 -1.1120
11255TIP3   OH255179   2.156   6.709   2.850  0.2436 -0.8619  0.4629
11255TIP3    H155180   2.142   6.781   2.787  1.1489  0.5969  1.8495
11255TIP3    H255181   2.218   6.651   2.806 -0.4203 -0.7567 -0.6485
11256TIP3   OH255182   4.634   1.287   4.729  0.1077  0.3640 -0.0708
11256TIP3    H155183   4.646   1.195   4.753  0.2210  0.3923 -0.0172
11256TIP3    H255184   4.569   1.320   4.790  2.2150  1.1179  1.9363
11257TIP3   OH255185   6.677   1.977  15.685 -0.1235 -0.5456 -0.2262
11257TIP3    H155186   6.675   1.952  15.777  2.2767  1.1701  0.3938
11257TIP3    H255187   6.597   2.027  15.672 -0.5436 -0.8870  0.9109
11258TIP3   OH255188   4.822   4.175   4.582 -0.0821 -0.7110 -0.0310
11258TIP3    H155189   4.781   4.246   4.532 -0.0392 -0.5439  0.1710
11258TIP3    H255190   4.848   4.112   4.515 -1.4902 -1.2612 -0.1016
11259TIP3   OH255191   6.413   3.391   4.835 -0.8977  0.3702 -0.5276
11259TIP3    H155192   6.427   3.370   4.743  1.5304  0.7792 -0.3129
11259TIP3    H255193   6.340   3.335   4.862 -0.9222 -0.5632 -2.3987
11260TIP3   OH255194   3.017   5.392   2.748 -0.1157  0.3296  0.1365
11260TIP3    H155195   2.956   5.455   2.709  0.1556  0.4293 -0.1300
11260TIP3    H255196   2.972   5.361   2.826  0.1424  1.5786  0.8197
11261TIP3   OH255197   5.121   6.161   0.392  0.1053 -0.1478  0.1471
11261TIP3    H155198   5.031   6.152   0.361  0.5452 -1.1183 -0.9237
11261TIP3    H255199   5.113   6.199   0.480 -1.3239 -0.0121 -0.0232
11262TIP3   OH255200   4.970   6.140  16.039  0.2066  0.1036 -0.2422
11262TIP3    H155201   5.014   6.116  15.957 -1.7263  0.8780 -1.5690
11262TIP3    H255202   4.879   6.116  16.025 -0.0528 -0.3743  1.9845
11263TIP3   OH255203   3.990   2.454  15.301  0.0998 -0.0253 -0.4400
11263TIP3    H155204   4.069   2.407  15.276 -0.1433  0.0260 -1.3379
11263TIP3    H255205   3.998   2.540  15.258  0.5144  0.7627  1.1285
11264TIP3   OH255206   2.351   3.278  11.240  0.4536 -0.8678  0.0181
11264TIP3    H155207   2.264   3.249  11.213  0.6997 -0.3216 -1.4971
11264TIP3    H255208   2.387   3.321  11.162  1.8374 -0.5278  0.8036
11265TIP3   OH255209   0.860   1.867   1.642  0.0604  0.0737 -0.0871
11265TIP3    H155210   0.843   1.800   1.708 -0.3351  0.8023  0.5507
11265TIP3    H255211   0.865   1.949   1.690 -1.1827  0.7573 -1.0534
11266TIP3   OH255212   6.112   5.759  14.392 -0.0414  0.1114  0.4173
11266TIP3    H155213   6.133   5.711  14.472 -0.2848  0.0891  0.4674
11266TIP3    H255214   6.018   5.774  14.397  0.3337  2.6882  1.5897
11267TIP3   OH255215   1.433   6.071  11.576 -0.5456 -0.1304  0.3777
11267TIP3    H155216   1.439   5.977  11.561  0.4707  0.0113 -0.1817
11267TIP3    H255217   1.352   6.097  11.531 -0.8301 -0.7274  0.5322
11268TIP3   OH255218   3.883   1.886   6.064  0.2606  0.1652  0.6385
11268TIP3    H155219   3.974   1.902   6.042  0.3875 -0.6322  0.5761
11268TIP3    H255220   3.883   1.872   6.159  0.1903  0.2538  0.6518
11269TIP3   OH255221   2.930   2.308  15.738  0.0159 -0.3022 -0.1294
11269TIP3    H155222   2.994   2.362  15.784 -2.0440  0.4288  2.1191
11269TIP3    H255223   2.949   2.219  15.766  0.7154 -0.2379 -0.3815
11270TIP3   OH255224   5.026   6.209   0.114  0.7444 -0.3157 -0.6085
11270TIP3    H155225   5.069   6.271   0.055  1.1110 -0.5612 -0.5964
11270TIP3    H255226   4.963   6.163   0.059  0.0206  0.4892 -0.4955
11271TIP3   OH255227   3.735   1.809   3.613 -0.4364 -0.0657  0.2206
11271TIP3    H155228   3.711   1.881   3.672 -1.2474 -1.0703  1.1679
11271TIP3    H255229   3.816   1.774   3.649  0.4846  0.9627 -0.8038
11272TIP3   OH255230   0.461   1.978   5.382  0.2891  0.1259  0.2210
11272TIP3    H155231   0.489   2.043   5.318  0.8355 -0.0582  0.2651
11272TIP3    H255232   0.514   1.997   5.460  0.1394 -0.0994  0.3795
11273TIP3   OH255233   1.768   0.760   5.625 -0.0040  0.2162 -0.1934
11273TIP3    H155234   1.691   0.704   5.634  0.9170 -1.0060  0.5362
11273TIP3    H255235   1.840   0.698   5.612  1.0312  1.2605  0.4009
11274TIP3   OH255236   4.712   4.170  11.138 -0.4568  0.2649  0.1241
11274TIP3    H155237   4.805   4.148  11.148  0.1529  2.5798  0.0201
11274TIP3    H255238   4.667   4.085  11.141  1.6316 -0.9011  0.2981
11275TIP3   OH255239   1.981   6.316   5.327  0.2635  0.0876  0.2602
11275TIP3    H155240   2.073   6.297   5.312 -0.0006  0.3320 -2.0024
11275TIP3    H255241   1.934   6.243   5.288 -0.5290  0.5282  0.3575
11276TIP3   OH255242   2.760   2.882  14.958  0.2159 -0.0507  0.3664
11276TIP3    H155243   2.713   2.864  15.039 -0.0341 -1.0671  0.0183
11276TIP3    H255244   2.805   2.800  14.939  0.6485  0.3306 -0.2753
11277TIP3   OH255245   5.846   0.011  14.572  0.7025 -0.1122  0.4228
11277TIP3    H155246   5.790   0.085  14.550  0.5166 -0.5209 -0.5241
11277TIP3    H255247   5.787  -0.065  14.571  1.0275 -0.3710  0.6875
11278TIP3   OH255248   2.108   6.417  13.190 -0.4045  0.0370  0.3981
11278TIP3    H155249   2.028   6.452  13.149  0.4769 -1.0578 -2.5049
11278TIP3    H255250   2.087   6.326  13.209 -0.2103  0.0692  0.7843
11279TIP3   OH255251   1.583   5.977  13.393 -0.7146 -0.2172 -0.6894
11279TIP3    H155252   1.621   5.896  13.426 -0.2505  1.0707  2.2280
11279TIP3    H255253   1.499   5.985  13.438  0.5051  2.2389  1.4081
11280TIP3   OH255254   5.302   1.136   4.855 -0.1120  0.2560 -0.8160
11280TIP3    H155255   5.342   1.136   4.942  0.5187  1.7197 -1.0746
11280TIP3    H255256   5.376   1.141   4.794 -0.6146  1.6334 -1.3461
11281TIP3   OH255257   1.237   3.463  14.557  0.0350  0.4028  0.4588
11281TIP3    H155258   1.190   3.541  14.527 -1.3324 -0.2842  0.7546
11281TIP3    H255259   1.329   3.486  14.547 -0.3420  1.5635 -0.7347
11282TIP3   OH255260   2.284   4.400   1.898  0.6655  0.1804 -0.0757
11282TIP3    H155261   2.190   4.388   1.884  0.6410  1.1879 -0.8763
11282TIP3    H255262   2.321   4.405   1.810  1.4083  0.2247  0.2354
11283TIP3   OH255263   4.023   1.930  12.521 -0.3439 -0.5393  0.6077
11283TIP3    H155264   4.072   2.012  12.520  0.1002 -0.7891  1.5585
11283TIP3    H255265   4.057   1.881  12.445 -0.6877  0.1809 -0.0264
11284TIP3   OH255266   1.404   4.246   3.932 -0.9150  0.0609 -0.2270
11284TIP3    H155267   1.462   4.237   3.856 -1.3279 -0.9436 -0.4432
11284TIP3    H255268   1.339   4.176   3.921 -0.0649 -1.1662  1.8712
11285TIP3   OH255269   4.814   4.155   1.726  0.5537 -0.3482 -0.7285
11285TIP3    H155270   4.741   4.142   1.666  0.9145 -2.8958 -0.6956
11285TIP3    H255271   4.874   4.213   1.679  0.4935 -1.7127 -2.5494
11286TIP3   OH255272   0.500   6.463  16.915  0.4332  0.1105  0.1056
11286TIP3    H155273   0.443   6.500  16.848  0.6017 -0.8378 -0.5710
11286TIP3    H255274   0.450   6.472  16.997  0.1860  1.1688 -0.1412
11287TIP3   OH255275   2.921   0.723  14.939  0.2418 -0.6533  0.3556
11287TIP3    H155276   2.869   0.802  14.935  0.0493 -0.6558  1.9447
11287TIP3    H255277   3.012   0.753  14.934  0.1602 -0.6638 -2.5790
11288TIP3   OH255278   1.474   1.787   2.791 -0.1150  0.3073 -0.4378
11288TIP3    H155279   1.445   1.768   2.881  0.4522  1.1681 -0.0613
11288TIP3    H255280   1.399   1.832   2.752 -0.6257 -0.6763 -0.6315
11289TIP3   OH255281   0.168   2.036   1.559  0.2527 -0.8251 -0.2086
11289TIP3    H155282   0.215   2.113   1.527  1.8421 -2.4930 -2.1583
11289TIP3    H255283   0.132   2.063   1.644  1.1745  1.8624 -0.5882
11290TIP3   OH255284   6.207   4.175   3.146 -0.6920 -0.9706 -0.1713
11290TIP3    H155285   6.169   4.122   3.076  0.8178 -1.1567 -0.8937
11290TIP3    H255286   6.192   4.123   3.226  0.0710 -2.1391 -0.7585
11291TIP3   OH255287   4.471   3.086   3.722 -0.3010 -0.1582  0.0177
11291TIP3    H155288   4.479   3.004   3.769  0.5466  0.7798  1.5725
11291TIP3    H255289   4.561   3.111   3.700 -0.0843  2.1726  2.9155
11292TIP3   OH255290   6.758   5.350  14.358 -0.1515  0.3718  0.0756
11292TIP3    H155291   6.838   5.304  14.380 -0.3756  0.0812  0.2838
11292TIP3    H255292   6.699   5.282  14.325 -0.8058  0.3416  1.2431
11293TIP3   OH255293   0.918   0.634  17.043 -0.3756 -0.0610  0.0531
11293TIP3    H155294   0.852   0.614  16.976 -0.2275  1.3946 -0.5854
11293TIP3    H255295   0.986   0.569  17.030 -2.1328 -2.3029  1.4516
11294TIP3   OH255296   4.447   4.784   1.011 -0.1105 -0.4529  0.1542
11294TIP3    H155297   4.526   4.815   1.056  0.6619 -0.9901 -0.7661
11294TIP3    H255298   4.417   4.859   0.960  1.0234 -0.7822 -1.0832
11295TIP3   OH255299   2.339   1.628   3.315  0.3235  0.4712  0.1601
11295TIP3    H155300   2.307   1.585   3.236  1.8332  0.1085 -0.3010
11295TIP3    H255301   2.435   1.620   3.309  0.4525 -0.7094  2.6547
11296TIP3   OH255302   5.473   0.078   3.164 -0.1923 -0.0018 -0.0798
11296TIP3    H155303   5.432  -0.002   3.130 -2.1545 -0.9021  3.8123
11296TIP3    H255304   5.563   0.053   3.184 -0.3626 -0.7699 -0.2469
11297TIP3   OH255305   4.929   3.775   3.914  0.5203 -0.0401  0.4707
11297TIP3    H155306   4.956   3.866   3.907  2.5372 -0.6189  0.1857
11297TIP3    H255307   4.962   3.734   3.834  0.1995 -1.1541  0.8897
11298TIP3   OH255308   2.893   5.071   2.692  0.6506 -0.0412  0.0694
11298TIP3    H155309   2.960   5.019   2.647  0.8054  0.4035 -0.2278
11298TIP3    H255310   2.931   5.090   2.778  0.7520 -0.1046  0.0392
11299TIP3   OH255311   0.745   3.020   2.649 -0.0090 -0.1086  0.4293
11299TIP3    H155312   0.687   3.006   2.723 -1.7174 -2.5775 -1.2195
11299TIP3    H255313   0.687   3.039   2.575  1.2964 -1.3786 -1.0205
11300TIP3   OH255314   4.965   3.253  16.278 -0.0383 -0.0794  0.5664
11300TIP3    H155315   4.972   3.214  16.191  1.5112 -2.0872  1.5075
11300TIP3    H255316   5.009   3.337  16.270  0.7926 -0.5818 -0.4350
11301TIP3   OH255317   0.506   5.207   4.622 -0.7225  0.5496 -0.4525
11301TIP3    H155318   0.476   5.297   4.629  1.6238  1.3166  0.6299
11301TIP3    H255319   0.576   5.210   4.556  0.7452 -0.0183  0.9963
11302TIP3   OH255320   5.467   4.732   4.992 -0.1428  0.0039  0.3910
11302TIP3    H155321   5.461   4.826   4.977 -0.1130  0.2015  1.5358
11302TIP3    H255322   5.560   4.716   5.006 -0.3041  0.0708  1.6968
11303TIP3   OH255323   3.257   3.364  14.743  0.4950 -0.0594 -0.9976
11303TIP3    H155324   3.168   3.329  14.731  0.7352  0.0693 -3.4865
11303TIP3    H255325   3.248   3.426  14.816 -1.4294 -0.1008 -1.1467
11304TIP3   OH255326   5.747   5.953  12.569  0.5563 -0.0389  0.1709
11304TIP3    H155327   5.763   5.944  12.476  0.9440  0.1002  0.2222
11304TIP3    H255328   5.731   5.864  12.600  1.1984 -0.1806  0.1089
11305TIP3   OH255329   4.049   5.995  12.055  0.2069 -0.9655 -0.1579
11305TIP3    H155330   4.074   6.012  12.146 -1.6309  0.9381  0.0890
11305TIP3    H255331   4.085   6.069  12.007 -1.4056 -0.3113 -0.4201
11306TIP3   OH255332   3.693   6.713   3.748  0.5916 -0.2398 -0.0963
11306TIP3    H155333   3.756   6.644   3.773  1.4011  0.1963 -0.8854
11306TIP3    H255334   3.668   6.753   3.832 -1.3422 -2.6540  0.6093
11307TIP3   OH255335   1.111   3.318  11.747 -0.0516 -0.5260 -0.0629
11307TIP3    H155336   1.167   3.392  11.727  1.1482 -1.4417 -0.2239
11307TIP3    H255337   1.044   3.353  11.805  1.5825  0.2877  1.3956
11308TIP3   OH255338   4.865   5.213  13.323  0.4496 -0.2806 -0.2946
11308TIP3    H155339   4.804   5.255  13.384  0.7461 -1.0403  0.5380
11308TIP3    H255340   4.852   5.260  13.240 -2.2995 -1.3052 -0.5474
11309TIP3   OH255341   1.358   0.104   0.571 -0.6882  0.0405  0.1996
11309TIP3    H155342   1.311   0.145   0.499 -0.7920  1.6804  1.1542
11309TIP3    H255343   1.297   0.106   0.644 -0.0208 -0.0980  0.7794
11310TIP3   OH255344   1.796   0.928   0.872 -0.0256 -0.3833 -0.7283
11310TIP3    H155345   1.726   0.866   0.856 -1.1275 -0.1088  2.2771
11310TIP3    H255346   1.791   0.945   0.966  1.7127  2.4745 -1.0346
11311TIP3   OH255347   5.518   5.788  12.414  0.3542  0.0309 -0.6384
11311TIP3    H155348   5.606   5.757  12.434  0.3121  0.6708  0.6593
11311TIP3    H255349   5.480   5.808  12.500 -0.4349  1.4193 -1.2808
11312TIP3   OH255350   4.979   6.183  16.706 -0.2209  0.0718  0.4672
11312TIP3    H155351   4.898   6.233  16.712  0.0358  0.4690  0.5824
11312TIP3    H255352   5.001   6.161  16.796 -0.2914 -0.1895  0.4227
11313TIP3   OH255353   1.090   1.151   3.157 -0.3009 -0.3786 -0.4903
11313TIP3    H155354   1.090   1.247   3.154 -3.0509 -0.3255 -1.4356
11313TIP3    H255355   1.094   1.130   3.250  1.2331  0.6054 -0.3061
11314TIP3   OH255356   0.160   0.541  14.459  0.0920  0.3275 -0.4383
11314TIP3    H155357   0.200   0.497  14.384  1.6255  0.8371  0.0461
11314TIP3    H255358   0.082   0.489  14.478 -1.2465  1.0633 -3.3370
11315TIP3   OH255359   5.425   0.927   0.320 -0.4736  0.8226  0.1671
11315TIP3    H155360   5.519   0.932   0.302 -0.6843  1.5097 -0.8449
11315TIP3    H255361   5.411   0.837   0.349  0.4396  0.6003 -0.0444
11316TIP3   OH255362   1.069   6.588  11.823 -0.1272  0.3289 -0.7628
11316TIP3    H155363   1.156   6.625  11.813 -0.6888  2.1748  0.5084
11316TIP3    H255364   1.060   6.573  11.917 -0.8422 -0.8033 -0.9857
11317TIP3   OH255365   5.054   3.816  14.663 -0.1734  0.1953  0.4361
11317TIP3    H155366   5.055   3.824  14.759  0.7526  2.2713  0.3145
11317TIP3    H255367   5.008   3.894  14.634  1.1629  0.5402 -0.8585
11318TIP3   OH255368   5.184   3.587  11.536  0.1494 -0.3796 -0.2070
11318TIP3    H155369   5.212   3.542  11.616  0.6393 -1.7584 -1.1207
11318TIP3    H255370   5.255   3.571  11.474 -0.4672  0.2111 -1.0796
11319TIP3   OH255371   2.989   2.500  12.809  0.2970  0.0603  0.2994
11319TIP3    H155372   3.042   2.543  12.876  0.4783 -0.8202  0.7342
11319TIP3    H255373   3.051   2.474  12.741  0.0803  1.1802 -0.3586
11320TIP3   OH255374   6.033   6.551   0.145  0.4832 -0.3897  0.1757
11320TIP3    H155375   5.990   6.467   0.157  1.2536 -0.6267  1.4589
11320TIP3    H255376   5.999   6.584   0.062 -0.1729 -1.7456 -0.1162
11321TIP3   OH255377   2.563   2.522  15.819 -0.0964 -1.0901 -0.0590
11321TIP3    H155378   2.630   2.539  15.752 -0.4876  0.9224  0.0124
11321TIP3    H255379   2.555   2.426  15.820  2.1694 -1.3600 -0.6484
11322TIP3   OH255380   5.189   1.256   3.421  0.1006  0.1502 -0.0544
11322TIP3    H155381   5.269   1.246   3.473  0.2084 -1.1864 -0.4430
11322TIP3    H255382   5.209   1.214   3.338 -1.2978 -1.0372  0.1742
11323TIP3   OH255383   0.492   4.048  16.410 -0.0060  0.0748 -0.4811
11323TIP3    H155384   0.495   4.112  16.481 -2.2675  1.3765 -1.4507
11323TIP3    H255385   0.577   4.005  16.412  0.9285  1.8886  1.3399
11324TIP3   OH255386   5.330   2.446   5.117  0.6040  0.3598 -0.0360
11324TIP3    H155387   5.322   2.538   5.093  0.5707  0.7685  1.4650
11324TIP3    H255388   5.240   2.416   5.128  0.5744 -0.1260 -1.4311
11325TIP3   OH255389   6.749   1.207  13.393 -0.2619  0.1307  0.5871
11325TIP3    H155390   6.737   1.245  13.480  0.9938  0.0504  0.8200
11325TIP3    H255391   6.790   1.278  13.342 -1.0531  0.2034  0.0234
11326TIP3   OH255392   4.963   3.806  12.742 -0.4727  0.2259 -0.0617
11326TIP3    H155393   4.956   3.892  12.783  1.5734  0.3883  0.0446
11326TIP3    H255394   4.988   3.748  12.814  0.9384  0.0979 -0.6286
11327TIP3   OH255395   2.675   3.736   5.199 -0.0311  0.1884  0.0156
11327TIP3    H155396   2.659   3.670   5.131  1.8185  0.1146 -0.3851
11327TIP3    H255397   2.656   3.820   5.156 -1.1590  0.0202  0.1502
11328TIP3   OH255398   3.327   1.671  15.245  0.9739 -0.1641  0.2068
11328TIP3    H155399   3.263   1.727  15.288  0.7937 -0.5323  0.4220
11328TIP3    H255400   3.412   1.703  15.276  0.8721  0.0204  0.2936
11329TIP3   OH255401   3.299   2.397  15.735 -0.3981  0.0426  0.0350
11329TIP3    H155402   3.271   2.470  15.680  0.4792  1.2427  1.1200
11329TIP3    H255403   3.268   2.419  15.823  1.0976 -0.1599  0.6495
11330TIP3   OH255404   0.853   5.580  12.299  0.2424  0.0729  0.1709
11330TIP3    H155405   0.897   5.499  12.324 -3.2367 -1.5534  1.5377
11330TIP3    H255406   0.887   5.646  12.360 -0.0785 -1.3983  2.0247
11331TIP3   OH255407   5.550   5.374   2.598 -0.0419 -0.1039 -0.4064
11331TIP3    H155408   5.626   5.384   2.540 -0.0333  1.0964 -0.2118
11331TIP3    H255409   5.476   5.364   2.538 -0.0319  1.1093 -0.6527
11332TIP3   OH255410   4.058   2.212   3.288 -0.1605 -0.4878  0.1174
11332TIP3    H155411   3.989   2.152   3.261  0.0028 -0.7769  0.3464
11332TIP3    H255412   4.139   2.175   3.252 -0.1447 -0.0513 -0.3092
11333TIP3   OH255413   4.172   4.062  12.809 -0.1082 -0.7064 -0.4474
11333TIP3    H155414   4.245   4.004  12.829  0.0895  0.0293  1.1111
11333TIP3    H255415   4.094   4.015  12.840  0.0941 -0.0107  1.2182
11334TIP3   OH255416   1.249   5.869   1.214  0.7279  0.1387  0.4664
11334TIP3    H155417   1.179   5.875   1.278  1.5527 -1.9875  1.6607
11334TIP3    H255418   1.207   5.891   1.130 -1.4177 -1.2642  1.1017
11335TIP3   OH255419   6.745   2.717  12.061 -0.3581 -0.7403 -0.2885
11335TIP3    H155420   6.790   2.702  11.978  2.3212 -0.3106  0.9765
11335TIP3    H255421   6.778   2.648  12.119  1.5171  1.6224  1.6765
11336TIP3   OH255422   3.214   1.052   4.343 -0.0194  0.8116  0.2571
11336TIP3    H155423   3.200   1.002   4.263  1.3425  1.5266 -0.4549
11336TIP3    H255424   3.181   1.140   4.323 -1.0405  0.6081  0.9963
11337TIP3   OH255425   5.159   1.183   2.891  0.4196  0.2667  0.0304
11337TIP3    H155426   5.077   1.147   2.925 -0.1655  2.5173  1.2007
11337TIP3    H255427   5.202   1.109   2.848 -0.8808 -1.6699  1.8746
11338TIP3   OH255428   2.313   0.603  11.750  0.5392 -0.3911  0.1499
11338TIP3    H155429   2.331   0.595  11.656 -0.6979 -0.3294 -0.0985
11338TIP3    H255430   2.309   0.698  11.765  0.3575 -0.4071  0.1981
11339TIP3   OH255431   3.746   2.965  10.739  0.3576  0.2769 -0.2554
11339TIP3    H155432   3.748   3.049  10.694  0.5291 -0.5524 -1.8937
11339TIP3    H255433   3.672   2.918  10.699  1.7340 -1.2384 -1.1721
11340TIP3   OH255434   2.019   0.705   0.428  0.0087  0.1903  0.1422
11340TIP3    H155435   1.971   0.780   0.394  0.5561 -0.0315 -1.1898
11340TIP3    H255436   1.969   0.677   0.505 -0.9213  1.1154 -0.1066
11341TIP3   OH255437   3.705   5.204  12.223  0.1391  0.3462  0.0166
11341TIP3    H155438   3.798   5.182  12.233  0.0408 -0.0693  0.0151
11341TIP3    H255439   3.674   5.149  12.152 -0.3591 -0.2684  0.7006
11342TIP3   OH255440   0.890   2.611   6.278 -0.2463 -0.2914  0.0218
11342TIP3    H155441   0.942   2.541   6.318 -0.1386 -1.1134 -1.4691
11342TIP3    H255442   0.954   2.678   6.255 -0.1981 -0.1821  0.4718
11343TIP3   OH255443   5.489   3.682  16.881  0.1561 -1.0133 -0.0386
11343TIP3    H155444   5.467   3.641  16.965 -0.0582 -0.5741  0.1230
11343TIP3    H255445   5.458   3.620  16.816 -0.5139 -0.9429  0.2008
11344TIP3   OH255446   1.818   2.917   0.040  0.0970 -0.2126 -0.3369
11344TIP3    H155447   1.888   2.934   0.103  0.8237 -1.0532 -0.9005
11344TIP3    H255448   1.738   2.912   0.094  0.7936 -1.6057  0.6087
11345TIP3   OH255449   4.618   1.561  12.872  0.1143 -0.1716 -0.0570
11345TIP3    H155450   4.613   1.655  12.888  1.9882  0.0637 -0.6316
11345TIP3    H255451   4.694   1.532  12.922 -0.5863 -1.4487  0.3188
11346TIP3   OH255452   5.837   3.803  15.902 -0.4302  0.1687  0.1932
11346TIP3    H155453   5.878   3.885  15.932  1.8076 -1.0562  0.7265
11346TIP3    H255454   5.849   3.742  15.975  0.7682 -1.4908 -1.3017
11347TIP3   OH255455   5.610   0.873  16.423 -0.1128  0.3642 -0.1696
11347TIP3    H155456   5.672   0.945  16.438  2.0976 -1.4860  0.0011
11347TIP3    H255457   5.597   0.871  16.329 -0.5780  1.2366 -0.1411
11348TIP3   OH255458   0.035   3.914   5.268 -0.2668  0.2068 -0.6180
11348TIP3    H155459   0.003   3.845   5.210 -1.1691 -1.3764  1.6089
11348TIP3    H255460  -0.042   3.966   5.289 -0.0076  0.5884 -0.5941
11349TIP3   OH255461   2.429   2.310  11.880  0.2056 -0.1126 -0.2537
11349TIP3    H155462   2.384   2.392  11.856  1.2194  1.1488  1.8943
11349TIP3    H255463   2.379   2.277  11.955 -0.0745 -1.3885 -0.9830
11350TIP3   OH255464   0.208   1.485   4.303  0.3530  0.0428  0.2389
11350TIP3    H155465   0.239   1.514   4.389  0.6993  0.0627  0.1092
11350TIP3    H255466   0.113   1.491   4.309  0.4116  1.1363  0.2393
11351TIP3   OH255467   3.680   0.601   2.056 -0.0965 -0.2447 -0.2897
11351TIP3    H155468   3.704   0.687   2.091  1.0879 -0.9688  0.7579
11351TIP3    H255469   3.762   0.566   2.020 -0.6235 -0.8253 -0.9553
11352TIP3   OH255470   3.904   4.829  15.003  0.1238  0.5679 -0.1087
11352TIP3    H155471   3.955   4.904  14.975  1.5783 -0.2201  0.3577
11352TIP3    H255472   3.867   4.794  14.922  0.6700  0.8989 -0.5044
11353TIP3   OH255473   4.793   0.354   6.684 -0.4319 -0.4876  0.1003
11353TIP3    H155474   4.820   0.419   6.619 -1.3097 -2.1035 -2.0214
11353TIP3    H255475   4.746   0.404   6.751 -3.0544  0.9229 -2.5532
11354TIP3   OH255476   6.411   4.778   1.992 -0.1900 -0.1305  0.8612
11354TIP3    H155477   6.362   4.713   1.942  0.3662 -0.0276  0.1695
11354TIP3    H255478   6.498   4.740   2.002  0.1816  0.5643  0.3272
11355TIP3   OH255479   2.902   6.142   1.226  0.1387 -0.2681 -0.1738
11355TIP3    H155480   2.819   6.116   1.264  0.3072 -0.3100  0.1678
11355TIP3    H255481   2.881   6.167   1.136 -0.3781  0.5165  0.1527
11356TIP3   OH255482   4.260   5.718  16.719  0.5548  0.2966  0.0005
11356TIP3    H155483   4.203   5.701  16.795  2.3699 -1.2792  1.1053
11356TIP3    H255484   4.343   5.676  16.742  1.7419  1.3239 -2.1356
11357TIP3   OH255485   1.817   1.808   6.068  0.3045 -0.8761  0.0701
11357TIP3    H155486   1.898   1.783   6.113 -0.4290 -0.2004  1.8538
11357TIP3    H255487   1.755   1.738   6.090  0.5889 -1.8682 -2.0290
11358TIP3   OH255488   1.546   0.155   4.157 -0.2082  0.8404  0.0653
11358TIP3    H155489   1.568   0.110   4.076 -0.8191 -1.3352  1.0090
11358TIP3    H255490   1.585   0.242   4.149 -0.3087  0.7086 -2.5456
11359TIP3   OH255491   1.996   2.068  11.480 -0.1534 -0.0869  0.4015
11359TIP3    H155492   1.937   2.126  11.433  0.7159  0.3313 -0.2064
11359TIP3    H255493   2.063   2.126  11.516 -0.2406 -0.5216  1.2927
11360TIP3   OH255494   6.353   4.481  14.360 -0.1869  0.1754  0.0619
11360TIP3    H155495   6.328   4.404  14.309 -0.2124  0.8521 -0.9845
11360TIP3    H255496   6.280   4.542  14.350 -0.6910 -0.0787  1.8372
11361TIP3   OH255497   4.533   6.178  12.153  0.5659 -0.2490  0.0826
11361TIP3    H155498   4.585   6.166  12.232  1.2102  0.5475 -0.2078
11361TIP3    H255499   4.557   6.265  12.121  0.2661 -0.5327 -0.9555
11362TIP3   OH255500   3.137   6.130   2.207 -0.4345  0.2429 -0.1359
11362TIP3    H155501   3.097   6.079   2.136  1.7982 -1.2264 -0.4455
11362TIP3    H255502   3.114   6.081   2.287 -0.6386  0.3447 -0.1311
11363TIP3   OH255503   3.854   5.708   3.470  0.2342 -0.1844 -0.2212
11363TIP3    H155504   3.858   5.612   3.477 -1.8771 -0.3624 -0.6243
11363TIP3    H255505   3.862   5.738   3.561  1.6938 -0.6640 -0.1639
11364TIP3   OH255506   5.521   0.520   5.660  0.1915 -0.1235  0.2040
11364TIP3    H155507   5.478   0.532   5.745 -1.2651 -0.1047 -0.5005
11364TIP3    H255508   5.507   0.603   5.614 -1.8864 -1.1698 -1.2322
11365TIP3   OH255509   2.310   4.742   5.991  0.3925  0.0806 -0.1056
11365TIP3    H155510   2.374   4.704   6.051  0.6312  1.1075  0.3253
11365TIP3    H255511   2.251   4.792   6.048 -0.4629 -0.4020 -0.5561
11366TIP3   OH255512   1.724   2.435  13.079 -0.7978 -0.0279  0.3319
11366TIP3    H155513   1.692   2.366  13.021 -0.6660 -1.5407  1.9770
11366TIP3    H255514   1.743   2.390  13.162  2.3492  1.3704  0.5086
11367TIP3   OH255515   1.113   3.458   2.608  0.3705 -0.1972  0.2917
11367TIP3    H155516   1.118   3.392   2.539  2.0831 -2.8976  2.7359
11367TIP3    H255517   1.020   3.470   2.624 -0.0197 -0.3306 -1.6957
11368TIP3   OH255518   0.503   1.292   6.014 -0.3056  0.1627 -0.1864
11368TIP3    H155519   0.590   1.269   5.984 -0.5369 -0.1253 -0.6464
11368TIP3    H255520   0.510   1.294   6.110  0.2596  0.3841 -0.2322
11369TIP3   OH255521   1.114   3.019  16.352 -0.0283  0.3320  0.0611
11369TIP3    H155522   1.176   3.087  16.324  0.7935  0.4332  2.0022
11369TIP3    H255523   1.044   3.022  16.286  1.1171  1.4675 -1.1657
11370TIP3   OH255524   4.604   2.914  17.174  0.0860  0.0758 -0.1976
11370TIP3    H155525   4.591   2.949  17.262  0.5304  0.2278 -0.1889
11370TIP3    H255526   4.547   2.838  17.169 -0.3932  0.4226  0.0121
11371TIP3   OH255527   5.149   0.959   3.738 -0.3328  0.3276  0.0216
11371TIP3    H155528   5.238   0.944   3.708  0.1646 -0.6754  1.8332
11371TIP3    H255529   5.096   0.898   3.687  0.3330 -0.5533  0.3429
11372TIP3   OH255530   0.308   4.560   5.452 -0.2474  0.1675 -0.2621
11372TIP3    H155531   0.248   4.524   5.518  1.0124 -0.0473  0.8114
11372TIP3    H255532   0.395   4.534   5.482  0.4677  1.3381 -1.2237
11373TIP3   OH255533   4.410   5.071   6.655  0.6865 -0.3068 -0.4274
11373TIP3    H155534   4.407   5.036   6.566 -0.1492 -1.5410  0.0452
11373TIP3    H255535   4.318   5.080   6.680  0.8719  1.7463 -0.2973
11374TIP3   OH255536   5.700   4.701  11.749  0.2606 -0.0296  0.1732
11374TIP3    H155537   5.612   4.731  11.768 -0.0047  1.2425 -2.5845
11374TIP3    H255538   5.707   4.616  11.794 -2.6287 -0.5329 -0.1708
11375TIP3   OH255539   1.013   4.962  13.428 -0.1420  0.0900 -0.2435
11375TIP3    H155540   1.100   4.985  13.460 -0.6531  0.1866  1.1447
11375TIP3    H255541   0.962   5.042  13.436 -1.2506 -0.7727  2.2216
11376TIP3   OH255542   1.930   2.181   0.916  0.0464 -0.8775 -0.5185
11376TIP3    H155543   1.979   2.261   0.936  0.5755 -1.4753  0.6827
11376TIP3    H255544   1.847   2.192   0.963  0.2744 -1.1814 -0.0294
11377TIP3   OH255545   1.494   3.851   4.788 -0.4361 -0.1881 -0.5614
11377TIP3    H155546   1.415   3.870   4.736 -0.2528 -2.6338 -1.8631
11377TIP3    H255547   1.514   3.934   4.831 -1.8843  1.3869 -2.6844
11378TIP3   OH255548   1.127   2.356   2.340 -0.3730  0.5105 -0.4195
11378TIP3    H155549   1.148   2.440   2.383 -0.4156  1.1768 -1.6574
11378TIP3    H255550   1.142   2.373   2.247  0.0157 -0.9990 -0.6479
11379TIP3   OH255551   3.072   1.284   5.313  0.1054  0.4057  0.3214
11379TIP3    H155552   3.030   1.233   5.383 -0.6227  1.2229  0.5034
11379TIP3    H255553   2.999   1.314   5.258  0.6066  0.4269 -0.3460
11380TIP3   OH255554   1.966   3.281  10.747 -0.1608  0.2063  0.1351
11380TIP3    H155555   2.002   3.193  10.741 -0.8107 -0.1044  0.6591
11380TIP3    H255556   1.998   3.315  10.831 -2.2038 -0.6245  1.3380
11381TIP3   OH255557   1.973   4.533   4.852 -0.2973  0.4317 -0.2613
11381TIP3    H155558   2.063   4.564   4.848  0.1610  0.0265  3.5212
11381TIP3    H255559   1.926   4.600   4.900 -1.1491 -0.9428  0.9117
11382TIP3   OH255560   3.602   1.444  13.383 -0.3175  0.4243  0.1370
11382TIP3    H155561   3.627   1.393  13.460 -1.8831 -2.3665 -1.0707
11382TIP3    H255562   3.639   1.397  13.309 -0.3971  2.0184 -0.9707
11383TIP3   OH255563   5.088   3.935   4.676  0.1133  0.3615  0.4331
11383TIP3    H155564   5.135   4.019   4.674 -1.8067  1.4996  0.1744
11383TIP3    H255565   5.031   3.942   4.753 -1.1975 -0.0253 -0.4609
11384TIP3   OH255566   3.249   0.659  15.948  0.6300 -0.0753 -0.4359
11384TIP3    H155567   3.165   0.662  15.993 -0.2837  0.5284 -2.0763
11384TIP3    H255568   3.272   0.751  15.934  0.6086 -0.2324 -1.6329
11385TIP3   OH255569   1.981   3.041  11.461 -0.8261  0.1980  0.0582
11385TIP3    H155570   1.949   2.962  11.417 -1.0052  0.7421 -0.8094
11385TIP3    H255571   1.912   3.064  11.523 -0.6691 -0.4471  0.4934
11386TIP3   OH255572   5.705   1.761   4.272  0.3014 -0.1324  0.4096
11386TIP3    H155573   5.755   1.822   4.327 -0.5365 -0.3657  1.4717
11386TIP3    H255574   5.675   1.814   4.198  1.0614  0.3050  0.4040
11387TIP3   OH255575   5.283   4.717  11.584 -0.0558  0.2490  0.1420
11387TIP3    H155576   5.348   4.676  11.527  1.4264  0.7038  1.4131
11387TIP3    H255577   5.206   4.661  11.576  1.3965 -1.9889  0.6535
11388TIP3   OH255578   0.981   1.112   2.358 -0.2106  0.4993 -0.5054
11388TIP3    H155579   0.887   1.091   2.357 -0.4529  1.2880  1.3311
11388TIP3    H255580   0.996   1.159   2.276 -0.6707 -2.4076 -2.4059
11389TIP3   OH255581   2.875   5.865  16.371  0.5007  0.1708  0.5167
11389TIP3    H155582   2.951   5.874  16.313  0.2715 -0.4592  0.1077
11389TIP3    H255583   2.803   5.839  16.313 -0.0575  0.8560  0.8810
11390TIP3   OH255584   1.022   0.132  16.547  0.2260 -0.2905  0.1804
11390TIP3    H155585   1.083   0.190  16.592  0.1715  1.6448 -2.0334
11390TIP3    H255586   0.936   0.165  16.571  0.1651 -0.2373 -0.1071
11391TIP3   OH255587   2.234   1.454  16.172  0.5963 -0.3328  0.0248
11391TIP3    H155588   2.324   1.426  16.152  0.7870  1.1122 -1.2833
11391TIP3    H255589   2.179   1.394  16.122  0.8575 -0.7492  0.2320
11392TIP3   OH255590   0.032   6.707  15.845  0.0058 -0.5912  0.0206
11392TIP3    H155591   0.017   6.788  15.895 -0.8081 -0.0173 -1.1069
11392TIP3    H255592   0.105   6.664  15.890  0.2025  0.5823  0.8677
11393TIP3   OH255593   1.207   4.111   0.662  0.1558  0.2554  0.2154
11393TIP3    H155594   1.211   4.019   0.638 -0.8802  0.0634  0.7059
11393TIP3    H255595   1.293   4.131   0.699  0.4926 -0.4199 -0.2011
11394TIP3   OH255596   4.149   3.131   2.332  0.0498 -0.2664 -0.1147
11394TIP3    H155597   4.199   3.068   2.280 -1.1188 -0.6740 -0.7973
11394TIP3    H255598   4.086   3.077   2.380  1.0840  0.1146  1.7331
11395TIP3   OH255599   6.126   5.052  12.631 -0.5619 -0.2365 -0.1554
11395TIP3    H155600   6.209   5.006  12.627 -0.9702 -1.0598  0.4903
11395TIP3    H255601   6.104   5.070  12.540 -0.1536 -0.8877 -0.3920
11396TIP3   OH255602   1.259   3.146  15.403  0.3827  0.1909 -0.1720
11396TIP3    H155603   1.257   3.203  15.326 -2.0794 -0.5792 -0.7624
11396TIP3    H255604   1.274   3.058  15.368  0.3622 -0.0200  0.3400
11397TIP3   OH255605   5.919   3.079   5.694 -0.0061 -0.1144  0.3369
11397TIP3    H155606   5.835   3.053   5.655  0.5998 -0.6851 -0.6462
11397TIP3    H255607   5.964   3.126   5.624  2.8395 -4.6780 -1.3435
11398TIP3   OH255608   4.250   6.662   5.898  0.3460  0.6148  0.2186
11398TIP3    H155609   4.181   6.597   5.910 -0.1043  1.0618  0.0919
11398TIP3    H255610   4.270   6.692   5.987  0.2667  0.5957  0.2429
11399TIP3   OH255611   6.531   5.925   5.283 -0.3696  0.4763 -0.2476
11399TIP3    H155612   6.515   6.008   5.327 -1.1029  1.4992 -2.3244
11399TIP3    H255613   6.459   5.916   5.221 -0.1632 -1.5992 -0.2565
11400TIP3   OH255614   3.099   3.089   4.522 -0.4083 -0.2566 -0.1287
11400TIP3    H155615   3.053   3.150   4.464 -0.0171 -0.5685 -0.7813
11400TIP3    H255616   3.033   3.024   4.545 -0.7956  0.3233  0.4680
11401TIP3   OH255617   2.496   3.404  15.084  0.0962 -0.3163 -0.0159
11401TIP3    H155618   2.421   3.417  15.141 -0.1276  0.5452 -0.5021
11401TIP3    H255619   2.564   3.369  15.142 -0.5287 -0.6835  0.5123
11402TIP3   OH255620   1.635   6.416  13.975 -0.7903  0.5435  0.0069
11402TIP3    H155621   1.657   6.399  14.067 -0.2291 -0.6382 -0.3396
11402TIP3    H255622   1.624   6.511  13.971 -0.7555  0.6231  1.2801
11403TIP3   OH255623   2.194   5.399   2.781  0.1790  0.1949 -0.2564
11403TIP3    H155624   2.199   5.367   2.871  1.1296 -0.9226 -0.6886
11403TIP3    H255625   2.281   5.435   2.763  0.4371 -0.8463 -1.1735
11404TIP3   OH255626   1.009   4.146  13.392 -0.0197  0.1766  0.6647
11404TIP3    H155627   1.012   4.216  13.327 -2.6548  0.2599  0.5333
11404TIP3    H255628   0.949   4.179  13.459  0.5142 -1.0470  1.7885
11405TIP3   OH255629   2.136   3.094   1.583  0.3375 -0.2801  0.2500
11405TIP3    H155630   2.117   3.179   1.624  1.2763  0.8034 -1.4303
11405TIP3    H255631   2.220   3.068   1.620  0.8237  0.3296 -0.4064
11406TIP3   OH255632   5.228   6.593   5.526  0.0434  0.1997  0.1161
11406TIP3    H155633   5.142   6.621   5.496  0.5080  0.1751 -1.3466
11406TIP3    H255634   5.287   6.616   5.454  1.2156 -0.0300  0.9686
11407TIP3   OH255635   2.884   5.176  16.329 -0.3253  0.0085 -0.3823
11407TIP3    H155636   2.924   5.243  16.384 -0.0686  0.7726 -1.4760
11407TIP3    H255637   2.938   5.098  16.344 -1.0373 -0.2025  1.4272
11408TIP3   OH255638   1.654   0.656  15.173  0.2033  0.6340  0.0672
11408TIP3    H155639   1.629   0.747  15.153 -1.0679  0.2564 -0.1299
11408TIP3    H255640   1.627   0.644  15.265  0.0946  0.3699  0.0006
11409TIP3   OH255641   2.866   4.018  13.481 -0.5249 -0.5041 -0.0662
11409TIP3    H155642   2.918   3.950  13.524 -0.1270  0.3846  0.9065
11409TIP3    H255643   2.931   4.069  13.432 -0.7329 -0.4417 -0.2761
11410TIP3   OH255644   2.776   2.684   2.069 -0.1190 -0.0962  0.0394
11410TIP3    H155645   2.865   2.711   2.093 -1.0627  0.4528  3.3939
11410TIP3    H255646   2.747   2.629   2.141 -2.1968 -1.1142 -1.4593
11411TIP3   OH255647   1.709   6.146   5.416  0.3788 -0.0396  0.2629
11411TIP3    H155648   1.682   6.106   5.499 -1.5041  1.6911  0.5730
11411TIP3    H255649   1.770   6.083   5.378 -0.2196 -1.8107  2.0337
11412TIP3   OH255650   0.286   1.785   1.239 -0.4207  0.0620  0.0158
11412TIP3    H155651   0.205   1.831   1.262  0.9792  3.0340 -0.5546
11412TIP3    H255652   0.336   1.782   1.320  0.3137  1.4194 -0.3606
11413TIP3   OH255653   6.369   1.574  16.719  0.0435 -0.2326 -0.0869
11413TIP3    H155654   6.290   1.536  16.682  1.1847 -2.0654 -0.7546
11413TIP3    H255655   6.408   1.504  16.771  0.8673  0.8663  0.8537
11414TIP3   OH255656   4.534   2.518   0.793  0.6405 -0.3463 -0.1620
11414TIP3    H155657   4.536   2.612   0.774 -1.3283 -0.1793  0.2967
11414TIP3    H255658   4.442   2.493   0.782  0.4836 -1.5062  2.9455
11415TIP3   OH255659   6.679   0.474   0.112 -0.7485  0.0229 -0.4276
11415TIP3    H155660   6.642   0.470   0.200  0.5994 -0.4915  0.1466
11415TIP3    H255661   6.688   0.567   0.093  0.1124  0.1507  0.5108
11416TIP3   OH255662   6.430   5.180  15.306  0.1780  0.5666 -0.1789
11416TIP3    H155663   6.460   5.113  15.368 -0.3637 -0.8838 -1.4296
11416TIP3    H255664   6.506   5.238  15.296  0.0709  1.2737  2.3181
11417TIP3   OH255665   1.606   0.645  17.273  0.4358  0.4100 -0.4213
11417TIP3    H155666   1.670   0.680  17.211  0.9208 -0.7716 -0.6022
11417TIP3    H255667   1.529   0.702  17.261  2.0282  3.1261  1.2067
11418TIP3   OH255668   3.009   3.428   0.510  0.2201 -0.4842 -0.1272
11418TIP3    H155669   3.007   3.383   0.426  2.2282 -0.7729 -0.0642
11418TIP3    H255670   2.978   3.362   0.573  0.9369 -1.0428 -0.3487
11419TIP3   OH255671   2.081   4.765   3.516 -0.2072  0.2345  0.0322
11419TIP3    H155672   2.078   4.679   3.475 -0.3373  0.1758  0.1631
11419TIP3    H255673   2.155   4.759   3.577 -0.7966 -0.1029  0.7347
11420TIP3   OH255674   5.347   4.225  14.771  0.4239  0.1735 -0.2234
11420TIP3    H155675   5.288   4.294  14.741 -0.8126 -0.6892  0.1492
11420TIP3    H255676   5.346   4.232  14.866  0.7506  0.0261 -0.2089
11421TIP3   OH255677   4.822   3.005   4.983  0.7704 -0.2078  0.6009
11421TIP3    H155678   4.819   3.088   4.936  3.0020 -0.4153 -0.0366
11421TIP3    H255679   4.846   3.029   5.072 -2.0384  0.0612  1.3695
11422TIP3   OH255680   0.513   5.156  14.490 -0.4245 -0.5662 -0.1966
11422TIP3    H155681   0.599   5.123  14.514  0.0211  2.3812  3.3224
11422TIP3    H255682   0.452   5.099  14.536 -0.1928 -1.1136 -0.5646
11423TIP3   OH255683   1.370   5.303  12.833 -0.4549 -0.5081  0.0128
11423TIP3    H155684   1.391   5.218  12.873  0.0217  0.2785  1.4925
11423TIP3    H255685   1.431   5.364  12.872 -1.1058  0.6236 -0.6867
11424TIP3   OH255686   6.075   4.709  16.380  0.3205 -0.8148  0.2524
11424TIP3    H155687   6.155   4.715  16.434  0.0702 -0.0466  0.5435
11424TIP3    H255688   6.084   4.780  16.316 -0.6498  0.0029  0.9996
11425TIP3   OH255689   2.376   1.784   3.975 -0.1401 -0.0661  0.7475
11425TIP3    H155690   2.455   1.814   4.020 -0.1959  0.9811  0.1696
11425TIP3    H255691   2.405   1.708   3.925 -0.0637 -1.2388  2.4525
11426TIP3   OH255692   2.781   4.587  14.005 -0.7269 -0.5058  0.2529
11426TIP3    H155693   2.853   4.590  13.942 -1.1670 -2.3318 -0.3929
11426TIP3    H255694   2.813   4.529  14.074 -0.2587  1.4588  1.7725
11427TIP3   OH255695   2.778   4.087  11.769 -0.0114 -0.0745  0.7562
11427TIP3    H155696   2.831   4.108  11.846 -1.1749 -1.4232  2.0003
11427TIP3    H255697   2.722   4.015  11.798  0.4242 -1.5490 -1.7837
11428TIP3   OH255698   5.817   3.775  13.587  0.4864 -0.1514  0.3134
11428TIP3    H155699   5.777   3.709  13.643  0.3669  0.3399  0.8137
11428TIP3    H255700   5.885   3.815  13.642 -0.3786  1.1074  0.5019
11429TIP3   OH255701   0.218   0.772  12.790 -0.1639  0.4988  0.5888
11429TIP3    H155702   0.250   0.750  12.703 -0.9257  0.9956  0.1719
11429TIP3    H255703   0.203   0.867  12.787  0.5254  0.6515  1.5070
11430TIP3   OH255704   2.964   1.022  13.561 -0.1996 -0.0437 -0.1996
11430TIP3    H155705   3.036   0.986  13.613  0.1981  1.3380  0.2633
11430TIP3    H255706   2.987   1.114  13.550 -1.5323  0.2495 -0.7023
11431TIP3   OH255707   3.682   4.524  13.413 -0.0729 -0.6893 -0.3381
11431TIP3    H155708   3.774   4.546  13.426 -0.0247  0.8120 -2.7105
11431TIP3    H255709   3.634   4.587  13.467  0.2682  0.2445 -1.0916
11432TIP3   OH255710   4.746   0.278  14.773 -0.3653 -0.5874 -0.6449
11432TIP3    H155711   4.661   0.316  14.748 -1.8855 -1.2763  2.8687
11432TIP3    H255712   4.736   0.184  14.755  0.3601 -0.4523 -1.8391
11433TIP3   OH255713   1.781   3.662   5.185  0.5090  0.2664  0.1683
11433TIP3    H155714   1.700   3.662   5.134 -0.6779 -0.0985  1.9535
11433TIP3    H255715   1.807   3.570   5.188  1.1236  0.4092 -0.5762
11434TIP3   OH255716   0.170   4.704   2.649  0.1290 -0.9951 -0.7324
11434TIP3    H155717   0.189   4.789   2.690 -0.3889 -0.2105 -2.0555
11434TIP3    H255718   0.249   4.683   2.599 -0.6757  0.0098 -2.5021
11435TIP3   OH255719   2.264   6.101   5.947 -0.4188  0.1189 -0.6196
11435TIP3    H155720   2.237   6.084   6.037  0.7321 -1.5502 -0.5387
11435TIP3    H255721   2.191   6.071   5.893  0.1465 -1.9911 -0.3160
11436TIP3   OH255722   5.311   2.993  16.077  0.1737 -0.0341  0.0100
11436TIP3    H155723   5.397   2.968  16.111  0.1131  2.8721  2.7484
11436TIP3    H255724   5.249   2.946  16.132 -0.0182 -0.9794 -0.9914
11437TIP3   OH255725   0.376   0.789   3.022 -0.0622  0.0800 -0.5568
11437TIP3    H155726   0.468   0.765   3.033 -0.2427 -1.3993 -1.9171
11437TIP3    H255727   0.372   0.827   2.934 -0.2067  3.2991  0.7008
11438TIP3   OH255728   5.592   4.492  15.901 -0.2286  0.1127 -0.9749
11438TIP3    H155729   5.631   4.476  15.815  1.9257 -0.6674  0.0618
11438TIP3    H255730   5.615   4.414  15.952 -1.9998  0.2823  0.1410
11439TIP3   OH255731   1.217   3.664  11.024  0.0185  0.2391  0.9679
11439TIP3    H155732   1.254   3.730  10.965 -2.7206  0.8174 -0.2997
11439TIP3    H255733   1.180   3.598  10.965  1.0722 -1.5312  2.1918
11440TIP3   OH255734   1.458   4.171   0.743 -0.5720 -0.4164  0.2013
11440TIP3    H155735   1.533   4.207   0.696  0.2380  1.7053  2.9294
11440TIP3    H255736   1.495   4.132   0.822 -2.1428 -1.7157  0.3515
11441TIP3   OH255737   0.010   3.362  12.521 -0.5473  0.8523 -0.0833
11441TIP3    H155738   0.002   3.327  12.609 -2.7831 -1.8364 -1.2134
11441TIP3    H255739  -0.080   3.365  12.488 -0.0946  4.2692 -1.4843
11442TIP3   OH255740   3.193   1.686   3.091 -0.3880 -0.3873  0.0089
11442TIP3    H155741   3.221   1.720   3.006  0.4544 -0.9005  0.0758
11442TIP3    H255742   3.227   1.749   3.154 -1.4098  0.2462 -0.0430
11443TIP3   OH255743   2.015   3.392   4.812 -0.2104 -0.3058  0.0533
11443TIP3    H155744   2.065   3.472   4.824 -0.9679  0.2889 -0.6734
11443TIP3    H255745   1.943   3.399   4.875 -2.6691  1.5857 -2.7219
11444TIP3   OH255746   0.938   0.957   3.870 -0.2480 -0.2972  0.7662
11444TIP3    H155747   0.915   1.049   3.864  1.3902  0.1842  1.2224
11444TIP3    H255748   0.989   0.939   3.791 -0.5690 -0.8269  0.6704
11445TIP3   OH255749   5.233   0.521  13.869 -0.1109 -0.2444  0.5796
11445TIP3    H155750   5.229   0.427  13.886 -0.1963 -0.5505 -0.9934
11445TIP3    H255751   5.260   0.528  13.777 -0.4619  1.2609  0.5618
11446TIP3   OH255752   5.979   0.646   1.597  0.0281  0.1865  0.0797
11446TIP3    H155753   6.054   0.663   1.540  1.9477 -0.5915  2.1751
11446TIP3    H255754   6.005   0.684   1.681 -1.5582 -0.8779  1.1008
11447TIP3   OH255755   1.939   4.103   0.549  0.2813 -0.0219 -0.1825
11447TIP3    H155756   2.024   4.136   0.518  0.7875 -1.2855 -0.2093
11447TIP3    H255757   1.945   4.110   0.644  0.9406 -1.2946 -0.1151
11448TIP3   OH255758   2.549   1.383  12.112 -0.2671 -0.4528 -0.0722
11448TIP3    H155759   2.550   1.462  12.057  3.4758 -0.0368  0.3393
11448TIP3    H255760   2.579   1.313  12.054  1.5190 -0.4658  0.8142
11449TIP3   OH255761   5.747   6.300   1.886  0.0731 -0.3685  0.5891
11449TIP3    H155762   5.830   6.286   1.840 -1.5910 -1.5657 -2.3006
11449TIP3    H255763   5.741   6.395   1.895  1.1663 -0.1818 -0.4004
11450TIP3   OH255764   2.690   0.656  15.627  0.2541  0.1421 -0.2939
11450TIP3    H155765   2.753   0.588  15.652 -0.9048 -0.4209  1.2367
11450TIP3    H255766   2.732   0.738  15.654  0.4111 -0.2082  0.5579
11451TIP3   OH255767   5.141   4.969   4.978  0.0472 -0.3663  0.3117
11451TIP3    H155768   5.095   4.946   5.059  0.3564 -1.0577  0.2954
11451TIP3    H255769   5.231   4.939   4.992  0.1326 -0.3691 -0.2343
11452TIP3   OH255770   1.211   3.619  15.597 -0.1202 -0.4199  0.1078
11452TIP3    H155771   1.280   3.639  15.534  1.1089 -1.3569  1.1039
11452TIP3    H255772   1.209   3.695  15.655  0.8204 -0.8122  0.6852
11453TIP3   OH255773   3.546   3.222   2.685  0.0029  0.0422  0.2837
11453TIP3    H155774   3.471   3.233   2.744 -0.0142  2.6281 -0.0993
11453TIP3    H255775   3.506   3.208   2.599 -0.0107 -0.1263  0.3164
11454TIP3   OH255776   5.565   1.154  12.416 -0.4382 -0.0245 -0.9251
11454TIP3    H155777   5.602   1.172  12.329 -0.8982 -2.0865 -1.6043
11454TIP3    H255778   5.471   1.163  12.404 -0.5376 -0.8115 -0.7959
11455TIP3   OH255779   3.273   3.319   1.423  0.7769 -0.0757 -0.6258
11455TIP3    H155780   3.203   3.325   1.488  1.3343  0.1371 -0.0238
11455TIP3    H255781   3.262   3.233   1.383  0.9087 -0.5499  0.3279
11456TIP3   OH255782   0.125   1.749   2.630 -0.3579  0.4193 -0.4490
11456TIP3    H155783   0.211   1.711   2.646 -0.7900 -0.2054  0.5229
11456TIP3    H255784   0.090   1.701   2.555 -0.2237  0.0489 -0.2741
11457TIP3   OH255785   0.064   3.012  15.539 -0.6847  0.0171 -0.3641
11457TIP3    H155786   0.153   3.045  15.555 -0.1596 -1.1714 -0.7209
11457TIP3    H255787   0.013   3.044  15.613  0.0557  0.6923 -0.1380
11458TIP3   OH255788   4.381   1.622  16.687 -0.0713  0.3180 -0.0860
11458TIP3    H155789   4.304   1.677  16.672 -0.5390 -0.4442 -0.5809
11458TIP3    H255790   4.437   1.637  16.611 -0.3913 -0.1821 -0.4329
11459TIP3   OH255791   5.434   2.223   3.406  0.4682  0.7981  1.0944
11459TIP3    H155792   5.386   2.290   3.454 -0.3525  0.3475  0.9356
11459TIP3    H255793   5.395   2.140   3.435  1.3082  0.4057  1.1200
11460TIP3   OH255794   5.270   4.509   1.061 -0.0110  0.1119 -0.1587
11460TIP3    H155795   5.304   4.576   1.002 -0.9408 -0.0164 -0.8625
11460TIP3    H255796   5.255   4.433   1.005 -0.7351 -0.0695  0.2715
11461TIP3   OH255797   3.148   1.238  13.931 -0.4706  0.6171  0.3281
11461TIP3    H155798   3.240   1.210  13.934 -0.7971 -0.7686 -0.9972
11461TIP3    H255799   3.100   1.163  13.966 -1.2197  0.5646 -0.7941
11462TIP3   OH255800   1.575   2.600  13.498 -0.3922 -0.1128 -0.1919
11462TIP3    H155801   1.580   2.696  13.490 -1.0758 -0.1706 -1.4592
11462TIP3    H255802   1.665   2.570  13.482 -0.1556  0.3081  0.2916
11463TIP3   OH255803   3.872   1.349   2.398 -0.4531  0.2999  0.2100
11463TIP3    H155804   3.817   1.306   2.332 -1.5215 -2.3904  2.6038
11463TIP3    H255805   3.814   1.416   2.436 -1.6511 -1.4076  1.5852
11464TIP3   OH255806   3.222   1.943   6.043  0.1576 -0.3057  0.7209
11464TIP3    H155807   3.294   1.900   5.997 -0.4613 -1.0717  0.4589
11464TIP3    H255808   3.226   1.906   6.132  0.2066 -0.2086  0.7590
11465TIP3   OH255809   4.476   3.515  10.835  0.2425 -0.2556 -0.0736
11465TIP3    H155810   4.471   3.566  10.916  0.6828 -0.5526  0.1399
11465TIP3    H255811   4.441   3.574  10.768 -0.1722 -0.0253  0.3370
11466TIP3   OH255812   5.834   3.950   0.906 -0.2557 -0.2539 -0.1407
11466TIP3    H155813   5.747   3.936   0.870 -0.1256 -1.4011 -0.0456
11466TIP3    H255814   5.886   3.877   0.872  1.0826  1.2582 -1.4770
11467TIP3   OH255815   1.428   6.033  12.161  0.1234  0.3980 -0.4766
11467TIP3    H155816   1.437   5.941  12.137  0.5533  0.7136 -1.6076
11467TIP3    H255817   1.435   6.034  12.257  1.8380 -0.5779 -0.5455
11468TIP3   OH255818   5.507   2.812   2.314  0.2574  0.2947  0.2293
11468TIP3    H155819   5.562   2.889   2.326 -2.0218  2.2679 -0.9452
11468TIP3    H255820   5.435   2.824   2.377  0.8485 -1.9928  1.4597
11469TIP3   OH255821   4.857   2.957   3.748  0.1359  0.4542  0.5534
11469TIP3    H155822   4.801   2.969   3.672  1.6252  0.6352 -0.5585
11469TIP3    H255823   4.817   3.013   3.816 -1.7613 -0.4696  0.2588
11470TIP3   OH255824   1.416   6.501  16.017 -0.2753  0.0757 -0.5171
11470TIP3    H155825   1.450   6.440  16.082 -1.6229  0.4197  0.5482
11470TIP3    H255826   1.465   6.582  16.032  0.5896 -0.3239 -1.0725
11471TIP3   OH255827   3.243   2.116  12.499  0.2990 -0.1791  0.2966
11471TIP3    H155828   3.286   2.183  12.447  1.4199  0.4454  1.9471
11471TIP3    H255829   3.250   2.036  12.447  3.5411 -0.1129  0.4475
11472TIP3   OH255830   6.411   2.537  13.955 -0.1260  0.4890  0.0038
11472TIP3    H155831   6.324   2.501  13.973 -0.5644  0.7619 -1.4707
11472TIP3    H255832   6.431   2.507  13.866  1.1774  0.6583  0.2233
11473TIP3   OH255833   2.397   2.234   3.346  0.3154 -0.5243  0.2613
11473TIP3    H155834   2.340   2.161   3.324 -1.2098  0.3155  1.2680
11473TIP3    H255835   2.484   2.195   3.354 -0.6074 -2.4361  1.7613
11474TIP3   OH255836   3.264   5.601   1.045 -0.7795 -0.8552 -0.5166
11474TIP3    H155837   3.324   5.580   0.973  1.9869 -3.0827  2.1831
11474TIP3    H255838   3.222   5.517   1.065  1.3182 -1.3002  2.6904
11475TIP3   OH255839   6.520   6.190  12.053  0.1619  0.0484  0.4156
11475TIP3    H155840   6.590   6.233  12.004  0.8431 -0.5422  0.8449
11475TIP3    H255841   6.500   6.111  12.003  1.3241 -0.9052  1.3909
11476TIP3   OH255842   1.770   4.268   2.329 -0.3438  0.0093 -0.1014
11476TIP3    H155843   1.731   4.298   2.247  1.2977  1.3465 -0.4492
11476TIP3    H255844   1.778   4.346   2.383  1.7415 -0.1700 -0.0461
11477TIP3   OH255845   1.373   2.083  16.218  0.6625 -0.0797 -0.0246
11477TIP3    H155846   1.436   2.059  16.150  0.2743 -1.7086  0.1542
11477TIP3    H255847   1.359   2.177  16.205  2.1339  0.0569 -0.8858
11478TIP3   OH255848   2.358   1.560  16.479  0.7494  0.3952  0.6601
11478TIP3    H155849   2.341   1.654  16.478 -0.6615  0.2669 -2.7715
11478TIP3    H255850   2.306   1.527  16.552 -1.6441  1.9393 -0.2108
11479TIP3   OH255851   4.708   0.688   1.949  0.4393  0.0871 -0.2882
11479TIP3    H155852   4.787   0.724   1.909  1.2303  0.1757  1.2644
11479TIP3    H255853   4.712   0.717   2.041 -2.0609  1.1712 -0.4334
11480TIP3   OH255854   4.137   4.421  12.821  0.6950  0.1281  0.5243
11480TIP3    H155855   4.159   4.470  12.742 -0.1005  0.4447  0.4920
11480TIP3    H255856   4.203   4.351  12.825  0.3896 -0.2519 -0.7300
11481TIP3   OH255857   3.374   3.238   2.961 -0.1361  0.3695 -0.3846
11481TIP3    H155858   3.464   3.260   2.984  0.3876 -1.5086 -0.5152
11481TIP3    H255859   3.349   3.168   3.021 -1.2714  0.3936 -0.7975
11482TIP3   OH255860   1.674   5.339  12.824  0.2440 -0.1328 -0.0072
11482TIP3    H155861   1.648   5.247  12.813  0.9504 -0.3437  0.0375
11482TIP3    H255862   1.680   5.351  12.919 -3.2099  0.9370  0.2034
11483TIP3   OH255863   5.783   4.267   5.315 -0.3871  0.3014 -0.7551
11483TIP3    H155864   5.808   4.293   5.227 -0.2187 -0.5410 -0.9705
11483TIP3    H255865   5.815   4.177   5.324  0.0554  0.5478  0.3486
11484TIP3   OH255866   6.443   6.419  14.752 -0.3245  0.4552 -0.0675
11484TIP3    H155867   6.537   6.431  14.765 -0.4584  2.3480 -0.6050
11484TIP3    H255868   6.408   6.507  14.742 -1.7637 -0.2935 -2.6205
11485TIP3   OH255869   4.897   0.999  16.329 -0.3152 -0.2687 -0.2105
11485TIP3    H155870   4.953   1.054  16.275  0.7125 -1.2256 -0.1574
11485TIP3    H255871   4.908   0.911  16.294  1.2457 -1.1251  2.1463
11486TIP3   OH255872   1.780   2.466  12.623 -0.2120 -0.2313  0.6405
11486TIP3    H155873   1.856   2.462  12.565 -0.6129 -0.7161  0.1440
11486TIP3    H255874   1.817   2.464  12.711  0.4975  2.1352  0.4460
11487TIP3   OH255875   2.988   6.709   2.379 -0.5465  0.1355 -0.0733
11487TIP3    H155876   2.956   6.793   2.411  0.4896 -0.3115  2.3541
11487TIP3    H255877   3.062   6.731   2.323 -1.1011  0.8891 -0.5200
11488TIP3   OH255878   4.703   4.512   2.869 -0.2298  0.2999  0.2346
11488TIP3    H155879   4.743   4.450   2.808 -0.8295 -1.5917  1.6631
11488TIP3    H255880   4.771   4.578   2.884  1.0128 -0.8154 -0.2161
11489TIP3   OH255881   5.779   3.005  15.918 -0.6937  0.5836 -0.5466
11489TIP3    H155882   5.837   3.024  15.844  0.2595  2.0223  0.5020
11489TIP3    H255883   5.696   3.047  15.895 -0.4325  0.9373 -0.8581
11490TIP3   OH255884   2.917   0.985   2.479  0.6471 -0.7961 -0.2047
11490TIP3    H155885   2.996   0.959   2.431  0.4148  0.4901 -1.3450
11490TIP3    H255886   2.947   1.055   2.538  0.1989  0.4583 -1.4160
11491TIP3   OH255887   3.503   2.945   6.094  0.8056  0.4968 -0.2096
11491TIP3    H155888   3.556   2.958   6.015  2.0604  0.7365  0.6437
11491TIP3    H255889   3.556   2.980   6.165 -0.3437  0.3750  0.7435
11492TIP3   OH255890   0.779   6.274  15.817  0.1132  0.3054 -0.2670
11492TIP3    H155891   0.797   6.270  15.724  0.1442 -0.2294 -0.2399
11492TIP3    H255892   0.785   6.183  15.847  2.3102  0.7146  0.6873
11493TIP3   OH255893   3.967   4.798   2.926  0.0095  0.0034 -0.3533
11493TIP3    H155894   4.050   4.768   2.963 -0.0550 -1.1649 -1.0996
11493TIP3    H255895   3.900   4.760   2.983 -0.0410 -0.3771 -0.6580
11494TIP3   OH255896   1.557   3.964  17.071  0.0235  0.5080 -0.6345
11494TIP3    H155897   1.572   3.937  17.161 -2.4362 -0.0877 -0.3361
11494TIP3    H255898   1.644   3.988  17.038  1.2011 -0.7513  1.3829
11495TIP3   OH255899   0.420   5.763  14.116 -0.2574 -0.0743 -0.1218
11495TIP3    H155900   0.425   5.746  14.210  2.7012  2.1542  0.2555
11495TIP3    H255901   0.350   5.828  14.107  0.7890  1.2340  0.8681
11496TIP3   OH255902   1.040   6.016   1.866  0.2241  0.0417 -0.1119
11496TIP3    H155903   1.086   6.099   1.880  0.1729  0.3419 -1.5592
11496TIP3    H255904   1.109   5.954   1.845  0.3296 -0.4655  1.6469
11497TIP3   OH255905   3.945   2.515  15.621 -0.5137 -0.2333 -0.4248
11497TIP3    H155906   4.040   2.519  15.609 -0.5700 -0.1455 -0.8615
11497TIP3    H255907   3.933   2.487  15.711 -0.0736  0.3055 -0.1969
11498TIP3   OH255908   1.048   0.310  11.279  0.1473  0.1123  0.1945
11498TIP3    H155909   0.979   0.281  11.219  1.4927 -0.2322 -1.2577
11498TIP3    H255910   1.001   0.351  11.351 -1.6692 -2.0837  0.3786
11499TIP3   OH255911   4.247   6.485   0.264 -0.2399  0.0159 -0.3749
11499TIP3    H155912   4.170   6.535   0.290  0.3842  0.5762  0.4163
11499TIP3    H255913   4.236   6.400   0.307  0.2273  0.5511  0.8521
11500TIP3   OH255914   1.670   1.515  13.250  0.4083 -0.0806 -0.3636
11500TIP3    H155915   1.610   1.462  13.197 -1.5568  0.4990  1.1348
11500TIP3    H255916   1.697   1.457  13.321  0.6598  0.0350 -0.3625
11501TIP3   OH255917   6.001   3.500  13.462 -0.3227 -0.0978  0.3388
11501TIP3    H155918   6.025   3.592  13.454 -2.3213  0.6694  2.1319
11501TIP3    H255919   5.948   3.482  13.384 -0.4111  0.4426  0.2699
11502TIP3   OH255920   6.741   4.750  16.277  0.2557  0.5680  0.1353
11502TIP3    H155921   6.688   4.763  16.356 -1.0164  1.6589 -0.8447
11502TIP3    H255922   6.678   4.755  16.205  1.3125 -0.8586 -0.9443
11503TIP3   OH255923   6.265   3.352   1.234 -0.1972  0.0486 -0.3605
11503TIP3    H155924   6.297   3.359   1.144  0.9499 -0.3670  0.0022
11503TIP3    H255925   6.173   3.379   1.228 -0.3083 -0.5144 -1.7492
11504TIP3   OH255926   1.488   5.150  11.646  0.4854  0.4150 -0.1785
11504TIP3    H155927   1.574   5.191  11.639  0.7298 -0.0616 -0.0400
11504TIP3    H255928   1.430   5.220  11.675  0.9103  0.6425  0.1317
11505TIP3   OH255929   6.448   2.448  14.462  0.5855 -0.2159  0.1068
11505TIP3    H155930   6.355   2.455  14.439  1.2867  1.2257 -2.7072
11505TIP3    H255931   6.470   2.357  14.442  0.5007  0.2853 -2.7874
11506TIP3   OH255932   2.064   4.960  16.196  0.3304 -0.1792  0.3885
11506TIP3    H155933   2.114   5.040  16.212 -2.3613  1.5132  0.9193
11506TIP3    H255934   2.055   4.956  16.101  1.2967 -0.4198  0.2975
11507TIP3   OH255935   1.124   2.188   1.083  0.3570  0.5313  0.4237
11507TIP3    H155936   1.101   2.279   1.062 -0.1346  0.6768  1.5700
11507TIP3    H255937   1.041   2.141   1.083  0.6541 -0.0220 -0.5717
11508TIP3   OH255938   5.374   0.589   0.183  0.0412 -0.4222 -0.5667
11508TIP3    H155939   5.312   0.555   0.119 -0.3456 -0.3735 -0.2192
11508TIP3    H255940   5.460   0.566   0.148 -0.1430  0.1630 -1.4263
11509TIP3   OH255941   1.426   5.804   0.933 -0.1089 -0.1970  0.1013
11509TIP3    H155942   1.395   5.714   0.940  0.0687 -0.1577  2.0765
11509TIP3    H255943   1.366   5.845   0.871 -0.3082 -1.6078 -0.6917
11510TIP3   OH255944   3.447   2.256   5.382  0.2320  0.1452 -0.1459
11510TIP3    H155945   3.464   2.233   5.473 -0.9576  1.3813  0.4149
11510TIP3    H255946   3.412   2.345   5.385 -1.4356 -0.3989 -1.6542
11511TIP3   OH255947   4.028   3.020   2.752  0.1668 -0.2842 -0.3758
11511TIP3    H155948   3.953   3.072   2.722  0.2015 -0.5988 -1.0316
11511TIP3    H255949   4.104   3.076   2.737  0.0029  0.3453  1.0280
11512TIP3   OH255950   6.399   0.538  11.520  0.3035  0.3575  0.3934
11512TIP3    H155951   6.451   0.460  11.500  0.3016  0.4407  0.0663
11512TIP3    H255952   6.351   0.515  11.600 -0.9449 -0.5753 -0.5899
11513TIP3   OH255953   5.966   2.128  13.944 -0.3094 -0.1524  0.5526
11513TIP3    H155954   5.954   2.222  13.932 -0.4074 -0.2582 -0.1941
11513TIP3    H255955   5.944   2.089  13.860 -1.5790 -0.9739  1.2316
11514TIP3   OH255956   6.481   5.272   2.741 -0.3801  1.1024 -0.0965
11514TIP3    H155957   6.403   5.310   2.702 -0.3077  1.4749  0.1106
11514TIP3    H255958   6.542   5.262   2.668 -0.7297  0.5256 -0.3104
11515TIP3   OH255959   3.899   3.107  13.902 -1.0984 -0.3343 -0.1213
11515TIP3    H155960   3.950   3.069  13.973 -0.0568 -0.2204 -0.7749
11515TIP3    H255961   3.896   3.037  13.835 -0.7361  0.0816 -0.5812
11516TIP3   OH255962   4.377   5.539  11.856  0.3227  0.4156  0.1041
11516TIP3    H155963   4.434   5.557  11.931 -1.0327  1.7243  0.8744
11516TIP3    H255964   4.359   5.445  11.861 -0.5593  0.6539  2.0405
11517TIP3   OH255965   4.379   1.026  14.271 -0.0404  0.3406 -0.1684
11517TIP3    H155966   4.422   1.001  14.189  0.3547  1.6577 -0.3895
11517TIP3    H255967   4.286   1.008  14.256  0.0243  0.5926 -0.9203
11518TIP3   OH255968   5.384   4.870  13.982  0.2390 -0.4571 -0.1738
11518TIP3    H155969   5.424   4.935  13.924 -0.3460  0.4020  0.3408
11518TIP3    H255970   5.457   4.833  14.030  0.6447 -0.5999 -0.8974
11519TIP3   OH255971   2.676   6.168   2.116 -0.1053  0.1379 -0.9901
11519TIP3    H155972   2.715   6.081   2.127  0.5135  0.3815 -1.2340
11519TIP3    H255973   2.596   6.165   2.169  0.9884  0.1200  0.7420
11520TIP3   OH255974   2.094   1.153   5.428 -0.0738 -0.1433 -0.5350
11520TIP3    H155975   2.069   1.246   5.426  3.5705  1.0081 -0.4629
11520TIP3    H255976   2.189   1.155   5.442 -0.1868 -3.9737  2.0258
11521TIP3   OH255977   5.455   0.816   5.001 -0.1491  0.1501  0.1504
11521TIP3    H155978   5.464   0.907   5.029  1.0469  1.7356 -4.5539
11521TIP3    H255979   5.361   0.803   4.990 -0.6223 -0.3476  3.6101
11522TIP3   OH255980   5.284   2.846   1.308  0.0980  0.1796 -0.3509
11522TIP3    H155981   5.361   2.789   1.310 -1.3796 -2.0090 -0.9620
11522TIP3    H255982   5.230   2.810   1.236 -1.0242  2.2755 -0.6379
11523TIP3   OH255983   4.810   1.246   0.707  0.3166  0.4051 -0.3574
11523TIP3    H155984   4.875   1.316   0.718  0.3291  0.0519  2.7322
11523TIP3    H255985   4.855   1.167   0.737 -0.7268 -0.3283 -0.6743
11524TIP3   OH255986   5.023   5.110  16.789 -0.0438 -0.2661 -0.5198
11524TIP3    H155987   4.979   5.150  16.714 -1.0331 -0.4051 -0.0321
11524TIP3    H255988   4.980   5.025  16.800  0.1668 -0.2926  0.1415
11525TIP3   OH255989   6.635   1.244  14.836 -0.0867  0.0676 -0.2807
11525TIP3    H155990   6.660   1.160  14.875 -0.3674  1.0322  2.1804
11525TIP3    H255991   6.693   1.254  14.760 -0.6494 -2.7034 -1.1976
11526TIP3   OH255992   1.456   6.606  13.007  0.3870 -0.3824 -0.4121
11526TIP3    H155993   1.472   6.559  12.926 -1.4323 -0.9477 -0.4828
11526TIP3    H255994   1.374   6.571  13.040  1.3683 -0.6319  2.0356
11527TIP3   OH255995   2.082   5.696  13.449 -0.2792  0.2242  0.8854
11527TIP3    H155996   2.044   5.768  13.499  2.5041  2.9536 -0.6070
11527TIP3    H255997   2.035   5.697  13.366  0.4940  1.1631  0.4343
11528TIP3   OH255998   3.701   2.770  12.720  0.1621  0.2054  0.4699
11528TIP3    H155999   3.717   2.756  12.814 -1.2740 -0.6126  0.6221
11528TIP3    H256000   3.619   2.820  12.717 -0.3360 -0.6381 -0.3651
11529TIP3   OH256001   0.256   0.989  14.777 -0.1093 -0.2032 -0.0870
11529TIP3    H156002   0.313   1.014  14.704 -0.1735  1.5368  0.4134
11529TIP3    H256003   0.175   1.037  14.762  0.1511  0.8142  1.5273
11530TIP3   OH256004   2.561   2.797   3.735 -0.3128  0.0354 -0.7995
11530TIP3    H156005   2.580   2.890   3.728 -2.8202  0.8400  1.4757
11530TIP3    H256006   2.469   2.789   3.713 -0.6227 -1.6005  0.8504
11531TIP3   OH256007   5.226   6.390  15.397 -0.2681 -0.4638 -0.5547
11531TIP3    H156008   5.141   6.367  15.360 -0.2490  0.9094 -1.5391
11531TIP3    H256009   5.208   6.465  15.453  0.1146 -0.9507  0.2406
11532TIP3   OH256010   6.640   6.379   0.007 -0.0449 -0.8486  0.3322
11532TIP3    H156011   6.571   6.362  -0.057  1.7748 -1.5176 -1.5605
11532TIP3    H256012   6.655   6.473   0.001 -0.7325 -0.7037  0.7299
11533TIP3   OH256013   2.407   0.928   1.850  0.8043 -0.4393  0.1757
11533TIP3    H156014   2.421   0.841   1.811  0.6562 -1.2198  1.7971
11533TIP3    H256015   2.416   0.914   1.944  0.9733  1.3613  0.4587
11534TIP3   OH256016   2.361   0.825  13.657  0.0297 -0.0233 -0.8426
11534TIP3    H156017   2.381   0.918  13.661  0.5422 -0.1560  0.2044
11534TIP3    H256018   2.314   0.813  13.574  0.5547  1.0386 -1.3070
11535TIP3   OH256019   2.860   0.505   2.135 -0.5719  0.6892  0.5999
11535TIP3    H156020   2.888   0.415   2.153  1.1157  1.4066  1.8467
11535TIP3    H256021   2.799   0.526   2.206 -0.5162  0.7200  0.6387
11536TIP3   OH256022   6.701   6.638  15.094  0.3523 -0.4628 -0.4396
11536TIP3    H156023   6.718   6.721  15.051  0.4213  0.5361  1.4066
11536TIP3    H256024   6.607   6.638  15.111  0.5483 -0.1263  0.7418
11537TIP3   OH256025   4.576   3.082  16.814 -0.6821 -0.3829 -0.0347
11537TIP3    H156026   4.596   2.988  16.809 -0.1168 -0.2009 -1.5024
11537TIP3    H256027   4.600   3.116  16.728  0.7959  1.4279  1.0371
11538TIP3   OH256028   5.606   0.014  10.716 -0.3828 -0.4140 -0.1485
11538TIP3    H156029   5.667   0.078  10.752  1.7708 -2.1862 -0.4264
11538TIP3    H256030   5.578  -0.038  10.791 -1.2624  0.1354 -0.0834
11539TIP3   OH256031   1.533   0.418  11.478 -0.4469 -0.7005  0.1272
11539TIP3    H156032   1.558   0.482  11.543  0.1381 -0.4073 -0.3824
11539TIP3    H256033   1.506   0.470  11.402 -0.1976 -1.0543 -0.2049
11540TIP3   OH256034   1.091   1.992  12.501 -0.3762 -0.0763  0.5072
11540TIP3    H156035   1.124   1.909  12.466 -0.5204 -0.6282  1.6505
11540TIP3    H256036   1.094   1.981  12.596 -2.0393  0.5907  0.6600
11541TIP3   OH256037   5.713   4.849   2.800  0.3850 -0.3892  0.2518
11541TIP3    H156038   5.738   4.863   2.891  0.9455 -1.5983  0.3134
11541TIP3    H256039   5.731   4.756   2.785  0.6241 -0.1317 -1.1951
11542TIP3   OH256040   5.972   0.060   5.025  0.0422 -0.2658 -0.0551
11542TIP3    H156041   5.915   0.137   5.032 -1.2374 -1.1896  0.1245
11542TIP3    H256042   6.055   0.088   5.063 -0.8645  0.5945  1.4147
11543TIP3   OH256043   1.556   6.228  16.871  0.8503  0.2471  0.2263
11543TIP3    H156044   1.494   6.155  16.867 -0.3160  1.0622  2.0574
11543TIP3    H256045   1.526   6.281  16.945  1.8991  2.3747 -0.7808
11544TIP3   OH256046   5.524   5.954  11.951  0.4340  0.8178 -0.0254
11544TIP3    H156047   5.598   5.996  11.996  0.5291  1.5723 -0.8648
11544TIP3    H256048   5.529   5.986  11.861 -0.6217  0.4778 -0.2165
11545TIP3   OH256049   4.442   2.717   4.541  0.0776  0.1574  0.1095
11545TIP3    H156050   4.453   2.770   4.619  1.2338 -0.6837  0.5384
11545TIP3    H256051   4.380   2.648   4.567 -0.3328  0.4654 -0.0339
11546TIP3   OH256052   5.995   4.063   0.661  0.0087  1.1287 -0.1752
11546TIP3    H156053   5.935   4.036   0.731  0.8957 -1.0966 -0.1767
11546TIP3    H256054   5.946   4.129   0.612 -1.9181  0.3911  0.6322
11547TIP3   OH256055   6.197   5.793   2.123  0.0393 -0.5672  0.1571
11547TIP3    H156056   6.250   5.861   2.081 -0.4262  0.2669  0.8651
11547TIP3    H256057   6.151   5.749   2.052  0.1844  0.0122 -0.2981
11548TIP3   OH256058   4.583   6.296   2.496 -0.5459  0.4960 -0.5812
11548TIP3    H156059   4.496   6.263   2.476 -1.4413  1.9010  0.7381
11548TIP3    H256060   4.616   6.238   2.565 -0.6448  0.2615 -0.7313
11549TIP3   OH256061   4.965   1.629  15.165 -0.0552  0.0794 -0.2588
11549TIP3    H156062   4.942   1.578  15.087  0.4582 -1.8248  0.7924
11549TIP3    H256063   4.896   1.610  15.228 -1.7913  3.4368 -0.9041
11550TIP3   OH256064   4.327   4.751   4.699  0.7173  0.0885 -0.1660
11550TIP3    H156065   4.387   4.726   4.628  0.9493  0.3946 -0.0835
11550TIP3    H256066   4.323   4.847   4.693  0.1004  0.0539 -0.2752
11551TIP3   OH256067   2.262   0.716  16.858 -0.2707 -0.2473  0.4765
11551TIP3    H156068   2.307   0.797  16.881 -1.3587  0.5979 -0.2361
11551TIP3    H256069   2.331   0.650  16.853  0.6881  0.7135  0.7106
11552TIP3   OH256070   4.668   4.663  14.893  0.7780 -0.2952  0.0529
11552TIP3    H156071   4.759   4.667  14.864  0.4265 -1.2111 -1.2481
11552TIP3    H256072   4.673   4.645  14.987  1.9299  0.4019  0.1400
11553TIP3   OH256073   2.708   1.965  13.748 -0.2606  0.2078  0.1620
11553TIP3    H156074   2.615   1.970  13.723 -0.5463 -1.6583  0.7403
11553TIP3    H256075   2.755   1.958  13.665 -0.7393 -0.0856 -0.0866
11554TIP3   OH256076   6.271   0.060  15.342  0.1526  0.1442  0.1382
11554TIP3    H156077   6.322   0.047  15.262  0.8789  1.6174  0.3197
11554TIP3    H256078   6.307   0.140  15.380 -3.3640  2.2570 -0.5771
11555TIP3   OH256079   6.133   5.225  10.456 -0.2888  0.1242 -0.5627
11555TIP3    H156080   6.189   5.206  10.531 -0.0096 -2.4505 -1.3454
11555TIP3    H256081   6.194   5.243  10.384 -0.4581 -0.8899 -0.9780
11556TIP3   OH256082   0.564   2.457   3.681  0.1667  0.3462 -0.0750
11556TIP3    H156083   0.551   2.521   3.611  1.2392  0.1716 -0.4539
11556TIP3    H256084   0.486   2.402   3.677  0.6273 -0.2509 -1.8026
11557TIP3   OH256085   5.177   0.379  11.657  0.2152  0.4978 -0.6770
11557TIP3    H156086   5.208   0.292  11.631  0.3151  0.4390 -0.3566
11557TIP3    H256087   5.176   0.429  11.575  0.8567  0.4112 -0.7428
11558TIP3   OH256088   6.755   1.693  12.999 -0.3478  0.2664  0.2436
11558TIP3    H156089   6.768   1.729  12.911 -1.5218  0.3422  0.0961
11558TIP3    H256090   6.834   1.719  13.047 -0.9291  2.6862  0.0179
11559TIP3   OH256091   5.656   3.053   1.266 -0.1241 -0.5333 -0.0062
11559TIP3    H156092   5.604   2.973   1.278 -0.6948  0.1454  2.9235
11559TIP3    H256093   5.592   3.118   1.237 -1.2154  0.3392  3.7311
11560TIP3   OH256094   3.053   1.661  10.914  0.1303  0.1736 -0.0717
11560TIP3    H156095   3.116   1.623  10.852  0.3693 -0.1842  0.3813
11560TIP3    H256096   3.096   1.740  10.946 -0.5439  1.0714 -1.3276
11561TIP3   OH256097   4.279   5.181  12.291  0.0987  0.0817 -0.0149
11561TIP3    H156098   4.346   5.250  12.287 -2.1557  2.4399  0.3208
11561TIP3    H256099   4.220   5.210  12.361  0.5876 -3.7875  2.3298
11562TIP3   OH256100   6.543   6.197  12.832 -0.2765 -0.3578 -0.4102
11562TIP3    H156101   6.547   6.101  12.834  0.3103 -0.3469 -0.8681
11562TIP3    H256102   6.475   6.217  12.769  0.4452 -0.4764 -1.2541
11563TIP3   OH256103   5.784   5.653  12.502 -0.5447  0.2037 -0.0888
11563TIP3    H156104   5.774   5.561  12.476  0.2779  0.0706  0.0425
11563TIP3    H256105   5.844   5.690  12.437 -0.1381  0.4066  0.3923
11564TIP3   OH256106   3.295   5.085   1.744 -0.5562 -0.7884  0.2996
11564TIP3    H156107   3.280   5.135   1.824 -1.7127 -0.3295 -0.1857
11564TIP3    H256108   3.251   5.001   1.759 -0.4284 -0.8587  0.2916
11565TIP3   OH256109   5.843   4.975   0.556  0.6360  0.3842  0.0049
11565TIP3    H156110   5.892   5.025   0.490  0.8920  1.7546  1.2038
11565TIP3    H256111   5.756   5.013   0.555  0.3887 -0.1759 -0.1336
11566TIP3   OH256112   2.260   0.060   2.431 -0.2750  0.0278  0.4084
11566TIP3    H156113   2.267  -0.019   2.378  0.6874 -0.9476  1.9084
11566TIP3    H256114   2.301   0.037   2.515  0.0529  2.1168  0.8942
11567TIP3   OH256115   3.417   0.216  12.756  0.1776 -0.1286  0.2026
11567TIP3    H156116   3.434   0.121  12.756  1.5558  0.0990  0.2623
11567TIP3    H256117   3.499   0.255  12.786 -0.0730  1.1448 -0.6982
11568TIP3   OH256118   5.640   6.755   1.700 -0.0542 -0.0132 -0.4498
11568TIP3    H156119   5.598   6.838   1.721  0.4788 -0.0856  0.9906
11568TIP3    H256120   5.664   6.763   1.608 -0.0128  1.4258 -0.3354
11569TIP3   OH256121   3.458   5.146  14.762 -0.1154  0.5488 -0.6055
11569TIP3    H156122   3.387   5.082  14.763  0.2468  0.1334 -1.0652
11569TIP3    H256123   3.414   5.231  14.760 -0.5970  0.3067 -0.3829
11570TIP3   OH256124   1.777   3.941   2.240  0.0610  0.3574  0.4045
11570TIP3    H156125   1.684   3.925   2.255  0.3080 -3.8383 -1.1169
11570TIP3    H256126   1.819   3.918   2.323 -0.1134  0.3913  0.5021
11571TIP3   OH256127   6.089   2.258   2.780 -0.1556  0.2213  0.6031
11571TIP3    H156128   6.057   2.347   2.770 -1.0290 -0.0398  1.0075
11571TIP3    H256129   6.051   2.210   2.706 -0.9694 -0.1589  1.2573
11572TIP3   OH256130   3.914   3.106   0.941 -0.3440  0.6232  0.1253
11572TIP3    H156131   3.890   3.198   0.956 -0.9470  0.6552 -0.9444
11572TIP3    H256132   4.009   3.107   0.935 -0.3941  1.3187 -0.7262
11573TIP3   OH256133   0.823   2.164   5.154  0.9934 -0.5515  0.0779
11573TIP3    H156134   0.893   2.162   5.219  1.2723  0.7297 -0.1565
11573TIP3    H256135   0.866   2.192   5.074  0.0805  1.1514  0.1374
11574TIP3   OH256136   0.059   1.375  12.898 -0.5835  0.0012  0.3712
11574TIP3    H156137   0.066   1.403  12.807  1.5429  0.2320  0.5565
11574TIP3    H256138  -0.005   1.303  12.897 -0.6879  0.1004 -1.2679
11575TIP3   OH256139   3.977   2.154   1.787  0.0525  0.3316 -0.7013
11575TIP3    H156140   3.989   2.223   1.853 -0.7989 -1.6635  1.7251
11575TIP3    H256141   3.884   2.158   1.765  0.0320  0.0749 -0.6669
11576TIP3   OH256142   4.531   5.624  16.485  0.3653  0.1717 -0.2953
11576TIP3    H156143   4.566   5.653  16.400 -0.8689  0.0524 -0.8606
11576TIP3    H256144   4.440   5.602  16.467  0.2962 -0.5913  0.9120
11577TIP3   OH256145   3.626   4.089  15.747  0.2612  0.1484  0.1513
11577TIP3    H156146   3.696   4.112  15.686  1.8617  0.0707  1.8782
11577TIP3    H256147   3.560   4.046  15.693  1.0872  1.0853 -1.6939
11578TIP3   OH256148   4.987   3.291  15.104 -0.7049  0.1637  0.6173
11578TIP3    H156149   4.957   3.274  15.014 -0.8597 -1.2867  0.9194
11578TIP3    H256150   5.074   3.251  15.108 -1.4756 -1.5001  1.6456
11579TIP3   OH256151   5.532   0.925  12.872 -0.0375  0.1981  0.4788
11579TIP3    H156152   5.532   1.019  12.850  0.5266 -0.0608 -0.6837
11579TIP3    H256153   5.579   0.883  12.799 -1.8809 -1.2137  0.0359
11580TIP3   OH256154   2.685   4.863  11.577  0.3569  0.1940 -0.2934
11580TIP3    H156155   2.750   4.880  11.508  0.7619  0.1279  0.0646
11580TIP3    H256156   2.605   4.842  11.530  0.2978  1.3731 -0.7533
11581TIP3   OH256157   2.629   6.549   2.188  0.3273  0.1458  0.4536
11581TIP3    H156158   2.552   6.597   2.158  0.4115  0.5121  0.8261
11581TIP3    H256159   2.704   6.604   2.163  0.4401  0.0595  0.5981
11582TIP3   OH256160   0.459   0.787   3.926  0.5182 -0.5765  0.4637
11582TIP3    H156161   0.373   0.796   3.966  0.2089 -0.7959 -0.1222
11582TIP3    H256162   0.495   0.875   3.923 -0.2165 -0.2949 -0.4123
11583TIP3   OH256163   0.818   4.295  16.786 -0.1421 -0.4464 -0.3970
11583TIP3    H156164   0.898   4.345  16.805  0.4018 -1.4295 -0.0266
11583TIP3    H256165   0.791   4.325  16.699  0.3893  0.2062 -0.3452
11584TIP3   OH256166   4.574   6.490   3.850 -0.4333  0.2753 -0.2681
11584TIP3    H156167   4.668   6.479   3.865 -0.3765  0.8068 -0.2178
11584TIP3    H256168   4.540   6.519   3.934 -0.3512  1.8504 -0.7552
11585TIP3   OH256169   4.430   4.875   0.155  0.4576 -0.3127  0.1835
11585TIP3    H156170   4.473   4.790   0.151  0.4687 -0.3497  0.9139
11585TIP3    H256171   4.502   4.938   0.164  0.4672 -0.1964 -0.6859
11586TIP3   OH256172   0.452   1.045   6.430 -0.0386  0.1154 -0.7368
11586TIP3    H156173   0.479   0.964   6.387 -0.1837 -0.1742 -0.2925
11586TIP3    H256174   0.361   1.028   6.457  0.1993  0.1146  0.0926
11587TIP3   OH256175   0.255   2.457  11.097 -0.0899  0.0593  0.0326
11587TIP3    H156176   0.183   2.496  11.148  0.9685 -0.1896  1.8197
11587TIP3    H256177   0.300   2.401  11.160  0.9803 -0.7017 -1.3697
11588TIP3   OH256178   1.586   0.341   4.668  0.1524 -0.0380 -0.5595
11588TIP3    H156179   1.663   0.338   4.725 -0.5546 -0.4563  0.4051
11588TIP3    H256180   1.622   0.354   4.580  1.3825 -1.1828 -0.2640
11589TIP3   OH256181   0.551   5.761   2.215  0.2171  0.4068 -0.3088
11589TIP3    H156182   0.589   5.675   2.234  0.7856  0.7316  0.0323
11589TIP3    H256183   0.456   5.746   2.219  0.3138 -0.0568  0.4487
11590TIP3   OH256184   1.735   4.863  12.565  0.0451  0.4102  0.0983
11590TIP3    H156185   1.670   4.793  12.566  1.6822 -1.1817  1.4439
11590TIP3    H256186   1.819   4.818  12.563  1.1595  2.3851 -0.1914
11591TIP3   OH256187   2.160   0.403  14.677 -0.0974 -0.4325 -0.5111
11591TIP3    H156188   2.180   0.312  14.698  0.4454 -0.3502 -0.6429
11591TIP3    H256189   2.195   0.453  14.751  2.1235 -0.1127 -1.6850
11592TIP3   OH256190   1.744   1.652   3.737 -0.3407 -0.0242  0.5218
11592TIP3    H156191   1.774   1.589   3.801 -0.5584 -0.1669  0.4851
11592TIP3    H256192   1.824   1.683   3.694 -0.3198 -1.2253 -0.3486
11593TIP3   OH256193   6.016   2.874  12.344 -0.1055  0.8761 -0.0378
11593TIP3    H156194   6.061   2.911  12.420  1.4313 -0.1648 -0.4041
11593TIP3    H256195   5.949   2.939  12.322  0.4506  1.9314  1.2356
11594TIP3   OH256196   4.873   2.174   5.068  0.1256 -0.2596 -0.3246
11594TIP3    H156197   4.840   2.115   5.000  0.2655 -0.2300 -0.4199
11594TIP3    H256198   4.902   2.252   5.019 -1.6378  0.6258 -0.0661
11595TIP3   OH256199   6.188   2.273   4.712 -0.1717 -0.0809 -0.3413
11595TIP3    H156200   6.275   2.295   4.746  1.6319 -2.9448 -2.6252
11595TIP3    H256201   6.127   2.312   4.775  2.7650 -0.5876  3.1638
11596TIP3   OH256202   0.995   0.917   4.931  0.3835  0.1100  0.4059
11596TIP3    H156203   0.933   0.983   4.901  0.4202  0.7238  1.6260
11596TIP3    H256204   0.952   0.833   4.910  1.0502  0.4293 -2.6310
11597TIP3   OH256205   2.020   0.377  15.936 -0.5632 -0.2499 -0.6588
11597TIP3    H156206   1.993   0.383  15.845  0.4238 -1.7364 -1.0836
11597TIP3    H256207   2.061   0.290  15.944  1.9508  0.9301  0.4752
11598TIP3   OH256208   2.938   2.451  13.510  0.1537 -0.6524 -0.1322
11598TIP3    H156209   2.966   2.543  13.512  3.6201 -1.5788 -0.6792
11598TIP3    H256210   2.868   2.447  13.575 -0.0438  2.3236  0.0211
11599TIP3   OH256211   2.015   5.897  14.709 -0.0849  0.0872  0.2941
11599TIP3    H156212   2.031   5.975  14.763  1.5804 -0.3610  0.5004
11599TIP3    H256213   2.079   5.833  14.741  0.7411 -0.3043 -1.9825
11600TIP3   OH256214   4.794   2.703  17.103  0.2859  0.1372 -0.4821
11600TIP3    H156215   4.826   2.726  17.016  0.9346 -0.6281 -0.4532
11600TIP3    H256216   4.734   2.774  17.126 -1.3288 -0.5570 -2.3072
11601TIP3   OH256217   3.696   4.363   4.277  0.1500  0.1036  0.1290
11601TIP3    H156218   3.735   4.433   4.225 -1.5318 -0.2135 -1.6580
11601TIP3    H256219   3.757   4.290   4.269 -0.7353 -0.4674 -2.8266
11602TIP3   OH256220   1.590   3.813  14.232 -0.3600 -0.3314  0.4443
11602TIP3    H156221   1.521   3.857  14.281  0.5056  0.7955  0.7142
11602TIP3    H256222   1.587   3.853  14.145  0.5001  0.3843  0.7221
11603TIP3   OH256223   2.681   1.460   0.066 -0.0016 -0.3229  0.2008
11603TIP3    H156224   2.618   1.399   0.104  0.3273 -0.4686  0.5213
11603TIP3    H256225   2.755   1.406   0.040 -0.6797 -0.3925 -1.7485
11604TIP3   OH256226   2.390   4.819   5.428 -0.7401  0.3712 -0.0408
11604TIP3    H156227   2.317   4.861   5.383 -0.0565  0.7043 -0.8603
11604TIP3    H256228   2.452   4.890   5.445  0.4685 -0.2644 -1.5165
11605TIP3   OH256229   2.543   1.453  11.127  0.3734 -0.9186  0.4865
11605TIP3    H156230   2.479   1.472  11.059  0.2451 -0.2039  0.7894
11605TIP3    H256231   2.612   1.405  11.083 -0.3380 -1.6508  0.1396
11606TIP3   OH256232   2.016   0.517   1.357  0.0766 -0.4747 -0.0315
11606TIP3    H156233   2.104   0.526   1.320 -0.4422  1.1514 -0.9511
11606TIP3    H256234   2.020   0.436   1.408  2.0473 -0.5345 -0.1982
11607TIP3   OH256235   2.221   6.777  13.029  0.0956 -0.0798  0.1355
11607TIP3    H156236   2.138   6.731  13.020  0.3818 -0.2559 -2.5145
11607TIP3    H256237   2.208   6.858  12.980  0.2447  1.8853  3.0703
11608TIP3   OH256238   5.329   2.957  11.567 -0.5785  0.0076 -0.2756
11608TIP3    H156239   5.371   2.904  11.500 -2.2184 -2.4116  0.4753
11608TIP3    H256240   5.374   2.934  11.648 -0.3281  0.9246 -0.1438
11609TIP3   OH256241   0.731   6.062   0.807  0.4701  0.2455  0.0522
11609TIP3    H156242   0.725   6.147   0.850  1.1574  1.9803 -2.9766
11609TIP3    H256243   0.702   6.079   0.717  1.6021 -2.5104 -0.9391
11610TIP3   OH256244   0.552   3.300   1.688  0.0588  0.0925  0.3535
11610TIP3    H156245   0.554   3.302   1.592  2.5270  1.5933  0.3456
11610TIP3    H256246   0.526   3.389   1.713  0.7085  0.1042  1.0385
11611TIP3   OH256247   5.860   2.546  13.320  0.2328  0.0323  0.0802
11611TIP3    H156248   5.884   2.624  13.269 -0.7220 -0.4120 -1.1073
11611TIP3    H256249   5.922   2.479  13.291 -0.0111 -0.0922 -0.1627
11612TIP3   OH256250   0.429   5.186   2.676 -0.7017  0.4990 -0.0853
11612TIP3    H156251   0.483   5.166   2.753 -1.0113 -3.2314 -0.6818
11612TIP3    H256252   0.491   5.216   2.610 -0.0726  1.0769  0.7521
11613TIP3   OH256253   3.731   5.836  11.767 -0.3152  0.5212 -0.2788
11613TIP3    H156254   3.786   5.760  11.786  0.2445  0.9568 -0.1090
11613TIP3    H256255   3.642   5.801  11.761 -0.0702 -0.1356 -0.1567
11614TIP3   OH256256   6.161   0.179   2.241  0.0974  0.1850 -0.2547
11614TIP3    H156257   6.066   0.169   2.255  0.2548  0.0594  0.7727
11614TIP3    H256258   6.171   0.176   2.145 -1.0798  1.5127 -0.4710
11615TIP3   OH256259   5.074   0.125  17.073 -0.4613  0.4773  0.5940
11615TIP3    H156260   5.131   0.050  17.055 -0.2270  0.7525  0.1625
11615TIP3    H256261   5.032   0.104  17.156  1.2303  0.8605  1.5813
11616TIP3   OH256262   2.105   5.143  16.407 -0.2565 -0.0278 -0.6134
11616TIP3    H156263   2.190   5.138  16.452 -2.0375  0.7339  3.2578
11616TIP3    H256264   2.076   5.052  16.400  1.0168 -0.3461 -2.4869
11617TIP3   OH256265   0.824   4.233  11.919  0.5763 -0.5727 -0.7119
11617TIP3    H156266   0.743   4.227  11.868  0.7341 -0.7559 -0.9398
11617TIP3    H256267   0.874   4.156  11.895  2.1570  0.9992 -2.8996
11618TIP3   OH256268   0.744   5.859   1.799  0.0593 -0.5110 -0.7747
11618TIP3    H156269   0.655   5.849   1.765 -0.0073 -1.5562 -0.3484
11618TIP3    H256270   0.748   5.796   1.872  1.0293 -0.2147 -0.5645
11619TIP3   OH256271   4.485   5.834   1.526  0.7557  0.1605  0.6425
11619TIP3    H156272   4.435   5.782   1.588  1.6094 -1.3958  0.0817
11619TIP3    H256273   4.576   5.824   1.553  1.1065 -0.2488 -0.6053
11620TIP3   OH256274   1.422   1.639   1.223 -0.1192  0.0398  0.0297
11620TIP3    H156275   1.496   1.613   1.169 -0.7407  1.9789 -1.9130
11620TIP3    H256276   1.431   1.734   1.231 -1.9571  0.2138  0.4039
11621TIP3   OH256277   1.295   2.911   1.320 -0.4466 -0.5525 -0.1221
11621TIP3    H156278   1.351   2.966   1.374 -1.4581  0.1832  0.2021
11621TIP3    H256279   1.328   2.822   1.335  0.5479 -0.1510  0.1467
11622TIP3   OH256280   2.049   3.732   3.816  0.3641 -0.7348  0.3588
11622TIP3    H156281   2.063   3.712   3.909 -1.9588  2.8071  1.7055
11622TIP3    H256282   2.112   3.800   3.796  0.6742 -1.2919 -0.6260
11623TIP3   OH256283   1.608   2.389   2.017  0.0859  0.3319 -0.0208
11623TIP3    H156284   1.614   2.296   1.994  0.2861  0.7685 -1.9190
11623TIP3    H256285   1.678   2.402   2.081  0.3757 -0.7236 -0.1032
11624TIP3   OH256286   4.412   5.276  16.651  0.0378  0.6978 -0.2388
11624TIP3    H156287   4.367   5.198  16.683 -2.8612  1.7523 -1.4619
11624TIP3    H256288   4.427   5.329  16.730  0.3730 -0.2588  0.3569
11625TIP3   OH256289   0.428   2.816  14.032  0.0480 -0.4801 -0.2457
11625TIP3    H156290   0.489   2.857  14.093  0.9962  0.2894 -1.6590
11625TIP3    H256291   0.482   2.754  13.982 -0.5110 -0.4212 -0.9332
11626TIP3   OH256292   6.660   2.305  13.058 -0.2480  0.0159 -0.1509
11626TIP3    H156293   6.597   2.234  13.047 -3.0507  2.3468 -0.3222
11626TIP3    H256294   6.670   2.342  12.971 -0.2700  0.9671  0.2386
11627TIP3   OH256295   1.869   3.818  16.207 -1.0076  0.0816 -0.2062
11627TIP3    H156296   1.959   3.792  16.227 -0.9671 -1.2048 -1.8768
11627TIP3    H256297   1.836   3.854  16.289  1.0198  0.6125  0.4459
11628TIP3   OH256298   4.961   5.183   4.858 -0.6003  0.3941 -0.2558
11628TIP3    H156299   4.932   5.141   4.778  0.0952  1.1233 -0.9055
11628TIP3    H256300   4.990   5.111   4.914 -0.1081 -0.0552 -1.0669
11629TIP3   OH256301   0.991   1.672  11.539 -0.3316 -0.3743 -0.2325
11629TIP3    H156302   0.951   1.745  11.587 -1.5388  0.1490 -1.9409
11629TIP3    H256303   1.022   1.712  11.458 -1.0423 -1.7671 -1.2172
11630TIP3   OH256304   2.513   6.291  12.874 -0.3773  0.2661 -0.7481
11630TIP3    H156305   2.547   6.203  12.866  0.1663  0.2770  0.9915
11630TIP3    H256306   2.421   6.284  12.849 -1.2893 -1.5683  2.4843
11631TIP3   OH256307   3.198   1.555  11.826 -0.1736  0.3537 -0.0881
11631TIP3    H156308   3.110   1.532  11.855 -0.3128 -0.0341 -0.8031
11631TIP3    H256309   3.256   1.502  11.882 -0.4329 -0.2565 -0.3844
11632TIP3   OH256310   1.661   1.156   4.195 -0.3356 -0.0023  0.0838
11632TIP3    H156311   1.659   1.232   4.253 -0.9775  0.9768 -1.1762
11632TIP3    H256312   1.687   1.084   4.251  1.1829  1.3069  1.1442
11633TIP3   OH256313   6.192   3.382  11.403 -0.5405 -0.4601  0.0091
11633TIP3    H156314   6.198   3.319  11.474 -1.6670 -0.0720  0.4624
11633TIP3    H256315   6.106   3.366  11.363 -0.9937  0.9893  0.3468
11634TIP3   OH256316   4.083   1.963  12.213  0.0132  0.0590  0.1670
11634TIP3    H156317   4.066   2.057  12.222 -0.9418  0.0026 -0.8672
11634TIP3    H256318   4.166   1.957  12.165  0.1820  0.3599  0.4180
11635TIP3   OH256319   0.438   1.302   6.271  0.5679 -0.9397  0.1710
11635TIP3    H156320   0.438   1.231   6.335 -1.3309 -0.6444  0.5523
11635TIP3    H256321   0.469   1.378   6.320 -1.5438 -0.5524  0.9931
11636TIP3   OH256322   3.690   3.295  12.857 -0.0586 -1.3319  0.0301
11636TIP3    H156323   3.769   3.265  12.902 -0.0879 -0.9307  0.3517
11636TIP3    H256324   3.681   3.387  12.883  0.9524 -0.5330 -2.2292
11637TIP3   OH256325   1.820   3.543   0.001  0.2835  0.3668 -0.2079
11637TIP3    H156326   1.903   3.581   0.030  0.3720 -0.0158  0.0416
11637TIP3    H256327   1.819   3.559  -0.094  2.2279 -2.5381 -0.8374
11638TIP3   OH256328   2.792   6.253   0.573 -0.0802 -0.4041 -0.0332
11638TIP3    H156329   2.778   6.222   0.662 -0.6482 -2.7921 -0.8760
11638TIP3    H256330   2.856   6.192   0.536  0.7629  1.0246 -1.0371
11639TIP3   OH256331   1.446   6.341  11.708  0.1005 -0.7876 -0.6214
11639TIP3    H156332   1.452   6.254  11.670  3.6263  0.1113 -2.5043
11639TIP3    H256333   1.535   6.362  11.737 -0.8548  1.7488  0.9157
11640TIP3   OH256334   5.353   0.646  12.271  0.4540 -0.4483  0.2467
11640TIP3    H156335   5.326   0.729  12.309  1.0909 -0.6595  1.2043
11640TIP3    H256336   5.437   0.627  12.313  0.9730 -0.9160 -0.9497
11641TIP3   OH256337   1.788   2.399  14.138 -0.1453  0.4742 -0.2002
11641TIP3    H156338   1.879   2.384  14.113 -0.6756  0.3974 -2.2280
11641TIP3    H256339   1.758   2.468  14.080 -1.8340 -0.6086 -0.6660
11642TIP3   OH256340   0.285   1.230   2.095  0.1313  0.0383 -0.2597
11642TIP3    H156341   0.217   1.295   2.077 -0.8141 -0.1918  2.0319
11642TIP3    H256342   0.279   1.215   2.190  2.3752 -1.1415 -0.2293
11643TIP3   OH256343   2.150   3.277  14.876  0.4798 -0.3175  0.2695
11643TIP3    H156344   2.114   3.252  14.961  0.7781  1.7353  1.0725
11643TIP3    H256345   2.240   3.244  14.877  0.3590 -0.6398  0.5852
11644TIP3   OH256346   4.328   3.310   1.994  0.3610  0.0652  0.0492
11644TIP3    H156347   4.309   3.243   1.928 -0.4723 -1.6529  1.9276
11644TIP3    H256348   4.391   3.268   2.053  0.2112  1.1270  0.9920
11645TIP3   OH256349   4.405   4.207  16.399 -0.1758  0.6680  0.1856
11645TIP3    H156350   4.369   4.283  16.444 -1.6224  0.6967 -0.9329
11645TIP3    H256351   4.384   4.133  16.455 -1.2954  0.7836 -0.0604
11646TIP3   OH256352   0.062   0.345   3.096  0.2825  0.6757 -0.0393
11646TIP3    H156353   0.140   0.381   3.054  0.2163 -0.3567 -1.0768
11646TIP3    H256354  -0.002   0.416   3.093  0.5452  0.8796 -0.9783
11647TIP3   OH256355   4.126   0.864   2.267 -0.6187  0.2121 -0.9871
11647TIP3    H156356   4.133   0.774   2.237  1.0796 -0.1858  0.4479
11647TIP3    H256357   4.156   0.917   2.193  1.6709 -0.6340 -0.7323
11648TIP3   OH256358   1.545   2.291   0.852 -0.0339 -0.3520  0.1584
11648TIP3    H156359   1.582   2.271   0.938 -1.0648  0.8829  0.9303
11648TIP3    H256360   1.603   2.357   0.815 -0.3491  0.1427  0.5274
11649TIP3   OH256361   3.742   3.701  15.648  0.0538 -0.4270 -0.4493
11649TIP3    H156362   3.667   3.641  15.657  1.5440 -2.3138  0.0183
11649TIP3    H256363   3.796   3.683  15.724  0.1998  2.1343  0.1165
11650TIP3   OH256364   5.123   1.862  13.867 -0.3991  0.6360 -0.0343
11650TIP3    H156365   5.083   1.900  13.946 -0.8296 -0.1069  0.1103
11650TIP3    H256366   5.112   1.768  13.877  2.8384  0.2404  0.7672
11651TIP3   OH256367   4.289   6.423   2.470 -0.5944  0.4296 -0.2201
11651TIP3    H156368   4.210   6.464   2.436 -2.3408 -1.9995  0.6243
11651TIP3    H256369   4.340   6.400   2.392 -1.4667  0.6269 -0.8626
11652TIP3   OH256370   2.721   4.950   5.471 -0.0123  0.2857  0.1866
11652TIP3    H156371   2.723   4.908   5.557 -0.6239 -3.3957 -1.4063
11652TIP3    H256372   2.811   4.943   5.439 -0.2842 -0.7386 -0.4202
11653TIP3   OH256373   4.414   6.750  15.615 -0.2109 -0.5363 -0.0657
11653TIP3    H156374   4.491   6.805  15.601 -1.3331  1.0490 -0.3008
11653TIP3    H256375   4.439   6.693  15.688  1.4329 -0.5924 -0.6165
11654TIP3   OH256376   1.967   2.636   4.463 -0.3439 -0.4025  0.3376
11654TIP3    H156377   1.916   2.666   4.538  0.2990 -0.1363  0.6698
11654TIP3    H256378   1.901   2.607   4.400 -0.9733  0.9791  0.3094
11655TIP3   OH256379   1.382   5.306   2.105  0.1895  0.5784  0.3677
11655TIP3    H156380   1.401   5.383   2.053 -0.0287 -0.0409 -0.6480
11655TIP3    H256381   1.291   5.285   2.086 -0.2226  0.9415  1.8076
11656TIP3   OH256382   2.012   5.647   4.377  0.6174  0.4720 -0.2316
11656TIP3    H156383   2.029   5.626   4.285  1.8192  0.3941 -0.0106
11656TIP3    H256384   1.962   5.729   4.374 -0.3573 -0.1279 -0.9708
11657TIP3   OH256385   6.027   0.077  12.886  0.3249  0.0913 -0.0686
11657TIP3    H156386   6.101   0.017  12.892 -0.3071 -0.9210 -1.8616
11657TIP3    H256387   5.958   0.026  12.843 -0.4689  1.8746 -0.9959
11658TIP3   OH256388   6.416   3.274  11.860  0.1525 -0.5004 -0.4681
11658TIP3    H156389   6.404   3.213  11.933 -0.4087 -0.0618 -0.1932
11658TIP3    H256390   6.492   3.327  11.885 -0.0616 -0.3263 -0.1897
11659TIP3   OH256391   4.479   3.172   2.169 -0.1652  0.3991 -0.1519
11659TIP3    H156392   4.449   3.156   2.258  1.3121  0.5790  0.4080
11659TIP3    H256393   4.567   3.133   2.166  0.3331  1.5349 -1.1199
11660TIP3   OH256394   3.771   4.616  16.769  0.1375 -0.4965 -0.1120
11660TIP3    H156395   3.757   4.574  16.684 -0.6271 -2.0757  0.7677
11660TIP3    H256396   3.687   4.659  16.789  0.5583  0.5379 -0.4835
11661TIP3   OH256397   1.975   0.372  15.060 -0.1205  0.3776  0.7273
11661TIP3    H156398   1.948   0.464  15.065 -2.4615 -0.2859  2.4599
11661TIP3    H256399   1.895   0.326  15.033  0.7560 -1.2261  0.7737
11662TIP3   OH256400   3.216   3.075   1.334  0.0523 -0.0901 -0.0961
11662TIP3    H156401   3.173   2.993   1.357  0.7198 -0.9459 -1.7839
11662TIP3    H256402   3.303   3.050   1.304 -0.3679  1.0150 -2.4404
11663TIP3   OH256403   4.710   3.119   3.020 -0.0016 -0.2260 -0.2053
11663TIP3    H156404   4.642   3.080   3.075  0.6121  1.2109  1.6776
11663TIP3    H256405   4.790   3.074   3.044  0.1468 -0.1496 -0.5459
11664TIP3   OH256406   6.047   0.250  13.890  0.7000  0.4737  0.3098
11664TIP3    H156407   5.963   0.230  13.931  1.9629 -2.5938  1.6948
11664TIP3    H256408   6.084   0.320  13.943  0.2252 -0.1668  1.5382
11665TIP3   OH256409   2.027   5.427  13.278 -0.4282 -0.0643 -0.0024
11665TIP3    H156410   1.932   5.426  13.280 -0.4174 -0.1141  0.7138
11665TIP3    H256411   2.053   5.492  13.343  0.0392 -2.0180  1.9261
11666TIP3   OH256412   4.809   4.735   4.238 -0.1131  0.4909  0.3214
11666TIP3    H156413   4.879   4.718   4.301  0.2483 -0.0200 -0.2056
11666TIP3    H256414   4.854   4.752   4.156 -0.4863  3.0417  0.5465
11667TIP3   OH256415   1.661   1.085  11.806  0.0774 -0.8669 -0.0059
11667TIP3    H156416   1.600   1.158  11.804 -2.4118 -2.7607  1.4763
11667TIP3    H256417   1.673   1.061  11.714  0.7565  1.1715 -0.4918
11668TIP3   OH256418   6.190   4.775  13.580  0.1803 -0.2996  0.3384
11668TIP3    H156419   6.172   4.846  13.641 -1.4682 -0.9856  0.7111
11668TIP3    H256420   6.270   4.734  13.614 -1.2758 -1.3733  2.8141
11669TIP3   OH256421   1.703   4.614  16.987  0.0177  0.4377  0.1183
11669TIP3    H156422   1.655   4.695  17.001 -1.4743 -0.4627  0.4709
11669TIP3    H256423   1.635   4.546  16.984  1.3253 -1.0551  1.8413
11670TIP3   OH256424   4.746   4.075  12.155 -0.1144 -0.0065 -0.4149
11670TIP3    H156425   4.762   4.090  12.062 -0.2105 -0.8390 -0.5787
11670TIP3    H256426   4.736   3.980  12.162  0.0988  0.0286  0.4789
11671TIP3   OH256427   3.609   5.447  15.258  0.3832 -0.3306 -0.3307
11671TIP3    H156428   3.569   5.526  15.295  1.0322  0.0941 -0.5161
11671TIP3    H256429   3.541   5.380  15.264  0.0633  0.0579  0.4874
11672TIP3   OH256430   6.495   4.721  11.633  0.2885 -0.4573 -0.5570
11672TIP3    H156431   6.404   4.748  11.643  0.6496  0.1858  1.4362
11672TIP3    H256432   6.494   4.626  11.644 -0.0694 -0.3765  0.1384
11673TIP3   OH256433   2.520   3.643   3.786 -0.2513  0.0502  0.0124
11673TIP3    H156434   2.549   3.601   3.705  0.4514 -0.0505  0.3086
11673TIP3    H256435   2.483   3.727   3.758  1.1713  0.6055 -0.3235
11674TIP3   OH256436   1.890   5.318   3.560  0.5690  0.3576  0.4553
11674TIP3    H156437   1.867   5.284   3.473  1.4304 -0.9671  0.7138
11674TIP3    H256438   1.953   5.388   3.542 -0.1238  0.8748 -0.0261
11675TIP3   OH256439   3.271   3.619   2.765  0.2080 -0.4814  0.0905
11675TIP3    H156440   3.208   3.552   2.740 -0.4971  0.1172  0.2175
11675TIP3    H256441   3.356   3.583   2.741 -0.3582 -0.2010 -2.7155
11676TIP3   OH256442   5.459   6.395   1.999 -0.1894 -0.3273  0.1331
11676TIP3    H156443   5.534   6.442   1.961  0.9312 -0.8587  1.5962
11676TIP3    H256444   5.391   6.462   2.008  0.3341  0.3202 -0.6005
11677TIP3   OH256445   2.242   2.110  15.719  0.1076  0.0121  0.4858
11677TIP3    H156446   2.163   2.164  15.725 -0.4544 -0.8836  1.4522
11677TIP3    H256447   2.296   2.140  15.792  1.1011  1.2515 -0.7070
11678TIP3   OH256448   5.416   0.473  16.057 -0.1361  0.7762  0.7397
11678TIP3    H156449   5.478   0.491  16.128  1.0683 -2.7967  0.7972
11678TIP3    H256450   5.330   0.492  16.094  0.5785  0.5607  2.6037
11679TIP3   OH256451   0.667   4.388   2.379  0.4006  0.6134  0.1435
11679TIP3    H156452   0.608   4.457   2.409 -0.9165 -0.0920 -0.7307
11679TIP3    H256453   0.689   4.339   2.458 -0.8282  0.4170  0.3879
11680TIP3   OH256454   5.188   3.607   2.447  0.4996  0.7078 -0.4392
11680TIP3    H156455   5.281   3.592   2.431  0.6513  0.2118  0.8000
11680TIP3    H256456   5.186   3.668   2.521 -0.1632  0.7022 -0.4445
11681TIP3   OH256457   4.472   5.905  16.526 -0.4901  0.1788  0.1342
11681TIP3    H156458   4.420   5.825  16.531  0.4819 -0.3767  3.5211
11681TIP3    H256459   4.562   5.875  16.534 -0.0681  1.5464  0.7045
11682TIP3   OH256460   2.043   0.119   4.153  0.0480 -0.0397 -0.1519
11682TIP3    H156461   2.078   0.205   4.130  0.4826 -0.4549 -1.1233
11682TIP3    H256462   1.957   0.116   4.111  1.0276 -0.9707 -2.2315
11683TIP3   OH256463   1.650   2.183  12.407  0.1525 -0.1395  0.2026
11683TIP3    H156464   1.733   2.182  12.454  0.6194 -1.3739 -0.5808
11683TIP3    H256465   1.647   2.268  12.364  1.3539 -0.3535 -0.3238
11684TIP3   OH256466   5.669   1.339   5.228  0.2617  0.1031 -0.0971
11684TIP3    H156467   5.746   1.369   5.276  0.7983  0.5885 -1.2439
11684TIP3    H256468   5.674   1.243   5.234  0.5747  0.1427  0.3957
11685TIP3   OH256469   5.865   6.056  15.154  0.1521 -0.3381 -0.0452
11685TIP3    H156470   5.838   6.009  15.233 -0.3841  0.2038  0.1006
11685TIP3    H256471   5.873   5.987  15.088 -1.9023 -0.5199 -0.1806
11686TIP3   OH256472   2.175   3.645   4.874  0.8441 -0.1201  0.2678
11686TIP3    H156473   2.203   3.736   4.868  0.1526  0.0653 -0.3441
11686TIP3    H256474   2.256   3.595   4.882  1.2873  0.4810 -0.3640
11687TIP3   OH256475   5.279   0.369   3.170 -0.6790 -0.4118 -0.5553
11687TIP3    H156476   5.243   0.310   3.237 -1.8172 -0.9816 -1.6194
11687TIP3    H256477   5.367   0.389   3.200 -1.2312 -0.5004  1.2029
11688TIP3   OH256478   0.437   4.567   1.216 -0.4710 -0.0508 -0.3546
11688TIP3    H156479   0.436   4.605   1.304 -2.2336 -0.8692  0.0210
11688TIP3    H256480   0.425   4.473   1.231 -0.5472 -0.2200 -1.4550
11689TIP3   OH256481   5.642   3.301  15.254 -0.4740  0.1273 -0.2344
11689TIP3    H156482   5.644   3.347  15.338  1.9031  0.5952 -0.4996
11689TIP3    H256483   5.715   3.239  15.258 -0.5471 -0.1020 -1.8238
11690TIP3   OH256484   6.753   3.458  11.604 -0.1009  0.0606  0.3212
11690TIP3    H156485   6.709   3.508  11.535  1.4067  0.3657 -0.4472
11690TIP3    H256486   6.722   3.497  11.686 -1.9803 -0.3628 -0.1406
11691TIP3   OH256487   2.384   1.790  16.860  0.5260 -0.1764 -0.3556
11691TIP3    H156488   2.363   1.884  16.864 -1.1034 -0.5679  1.0142
11691TIP3    H256489   2.370   1.758  16.949  1.4490 -1.6671 -0.7153
11692TIP3   OH256490   3.152   4.355  14.640  0.0674 -0.1062 -0.6073
11692TIP3    H156491   3.207   4.433  14.651  1.8506 -1.1222 -1.7802
11692TIP3    H256492   3.185   4.294  14.705  1.4239 -1.2635 -2.3012
11693TIP3   OH256493   2.568   2.654   1.914  0.0556  0.1289 -0.1368
11693TIP3    H156494   2.646   2.668   1.969 -0.2337 -2.2345  1.0089
11693TIP3    H256495   2.498   2.636   1.976 -0.2196 -2.9593 -1.1622
11694TIP3   OH256496   5.054   3.796   2.944  0.4297 -0.0764  0.5366
11694TIP3    H156497   5.069   3.743   3.022 -0.0679 -1.4138 -0.2527
11694TIP3    H256498   5.142   3.824   2.916  0.5967  0.6215  1.6808
11695TIP3   OH256499   6.445   2.294  17.062 -0.1012  0.0958  0.1886
11695TIP3    H156500   6.359   2.255  17.047 -0.9573  0.6673  3.0202
11695TIP3    H256501   6.444   2.375  17.012 -1.9336  0.9390  1.4816
11696TIP3   OH256502   1.685   6.524   5.048  0.2494  0.2118  0.7061
11696TIP3    H156503   1.612   6.462   5.052  0.9456 -0.5857  1.9649
11696TIP3    H256504   1.724   6.519   5.136  1.5988  0.8845  0.1628
11697TIP3   OH256505   0.285   6.501   0.687  0.0162 -0.9755  0.4657
11697TIP3    H156506   0.230   6.568   0.647  1.5114 -0.3432 -0.5857
11697TIP3    H256507   0.276   6.516   0.781 -2.5138 -1.6558  0.4010
11698TIP3   OH256508   2.053   6.104  16.641  0.1378  0.3442  0.0590
11698TIP3    H156509   2.106   6.175  16.677  0.7606 -0.0439 -0.0721
11698TIP3    H256510   1.963   6.129  16.660  0.3618  1.0582  0.2122
11699TIP3   OH256511   0.537   4.543  14.552 -0.4308  0.1224 -0.2418
11699TIP3    H156512   0.461   4.505  14.508 -0.8527  2.4572 -1.7077
11699TIP3    H256513   0.607   4.478  14.540 -2.3564 -2.5766  2.0887
11700TIP3   OH256514   5.278   2.216   3.709  0.5289 -0.2468  0.0559
11700TIP3    H156515   5.202   2.168   3.743  0.2147 -2.0709 -2.9018
11700TIP3    H256516   5.244   2.301   3.684  0.0956 -0.0446  1.2865
11701TIP3   OH256517   3.306   4.219   3.224 -0.1732 -0.0334  0.5811
11701TIP3    H156518   3.286   4.260   3.308 -1.7626  0.0889  0.1832
11701TIP3    H256519   3.279   4.128   3.235 -0.1535 -0.0764  0.2886
11702TIP3   OH256520   1.810   5.496   4.157  0.3391  0.1374  0.2278
11702TIP3    H156521   1.749   5.472   4.227  1.5446 -0.4251  1.1260
11702TIP3    H256522   1.765   5.567   4.110 -1.6907 -1.3125 -0.1543
11703TIP3   OH256523   6.740   5.008  12.934 -0.0387  0.3498  1.1839
11703TIP3    H156524   6.708   5.076  12.874  0.5356 -1.0827 -0.8312
11703TIP3    H256525   6.805   4.959  12.883 -0.4577 -1.7491  2.5451
11704TIP3   OH256526   5.445   2.189  11.814  0.5222 -0.5187  0.1656
11704TIP3    H156527   5.502   2.193  11.738  0.9279 -0.1047  0.4861
11704TIP3    H256528   5.492   2.236  11.883 -1.0414  1.6116 -0.1165
11705TIP3   OH256529   2.590   4.883   3.553 -0.0136  0.1977  0.2689
11705TIP3    H156530   2.532   4.932   3.612 -0.9286  0.0900 -0.5082
11705TIP3    H256531   2.540   4.877   3.472  0.6402 -0.8744 -0.0631
11706TIP3   OH256532   6.710   3.834  12.195  0.0482 -0.1366 -0.3012
11706TIP3    H156533   6.805   3.829  12.204  0.3816  1.3668 -2.2194
11706TIP3    H256534   6.680   3.880  12.273  0.7543 -1.4195  0.7660
11707TIP3   OH256535   4.828   6.029   5.966 -0.0903  0.1893  0.4866
11707TIP3    H156536   4.753   6.072   6.007 -0.0590  0.8290 -0.0850
11707TIP3    H256537   4.903   6.080   5.995  0.8182 -3.0132  4.6990
11708TIP3   OH256538   4.315   3.565   2.603 -0.2397 -0.0004  0.1368
11708TIP3    H156539   4.302   3.475   2.633 -0.9890  0.1026  0.1192
11708TIP3    H256540   4.227   3.598   2.585  0.1552 -0.2063 -2.6359
11709TIP3   OH256541   2.536   5.793   3.728  0.2803  0.2490 -0.0220
11709TIP3    H156542   2.557   5.707   3.764  1.5273  0.2931 -0.6140
11709TIP3    H256543   2.468   5.776   3.663 -2.2043  0.1915  2.4045
11710TIP3   OH256544   2.476   1.825   3.096 -0.1605 -0.0966  0.0677
11710TIP3    H156545   2.540   1.793   3.159 -0.1010 -0.4960 -0.1965
11710TIP3    H256546   2.424   1.748   3.073  1.1401 -0.4431 -1.9520
11711TIP3   OH256547   2.237   0.476  12.777  0.4838 -0.1459 -0.2024
11711TIP3    H156548   2.244   0.408  12.844 -3.5895  0.4127  1.0215
11711TIP3    H256549   2.222   0.557  12.826 -1.6718  0.4408 -1.7127
11712TIP3   OH256550   5.850   0.729   2.636  0.0166  0.0872  0.0028
11712TIP3    H156551   5.881   0.763   2.552  2.3568 -1.2252  0.2703
11712TIP3    H256552   5.802   0.649   2.614 -1.2901  0.9022 -0.2189
11713TIP3   OH256553   5.770   2.714   2.003  0.1132 -0.6443 -0.1747
11713TIP3    H156554   5.776   2.677   2.091 -2.4782 -0.7991  0.0223
11713TIP3    H256555   5.826   2.658   1.950  1.1341 -1.0066  1.2186
11714TIP3   OH256556   0.229   0.032   2.876 -0.4146  0.5522 -0.7011
11714TIP3    H156557   0.192  -0.044   2.922 -1.0397  1.8491  1.0893
11714TIP3    H256558   0.322   0.013   2.868 -0.6703 -0.6870 -0.9065
11715TIP3   OH256559   5.692   4.708   5.920 -0.0355 -0.1899 -0.6508
11715TIP3    H156560   5.692   4.712   6.015  0.0751  0.0847 -0.6628
11715TIP3    H256561   5.606   4.672   5.898 -0.0549 -0.2703 -0.4476
11716TIP3   OH256562   0.417   4.115  15.742 -0.4063 -0.3276 -0.1222
11716TIP3    H156563   0.493   4.057  15.743 -0.9648 -1.0818 -0.7419
11716TIP3    H256564   0.377   4.103  15.828  0.1945  0.1161  0.2304
11717TIP3   OH256565   4.575   5.886   4.354 -0.2430 -0.1569  0.2827
11717TIP3    H156566   4.630   5.934   4.292  1.0792  0.5292  1.9401
11717TIP3    H256567   4.636   5.834   4.405 -1.3981 -1.3970  0.4570
11718TIP3   OH256568   6.613   0.189   3.198 -0.2212  0.8326  0.2812
11718TIP3    H156569   6.546   0.230   3.142 -0.4261 -0.2393 -0.2867
11718TIP3    H256570   6.696   0.214   3.158 -0.3563  0.4055 -0.2803
11719TIP3   OH256571   6.066   0.113  11.942 -0.1593 -0.3500 -0.4231
11719TIP3    H156572   6.078   0.117  12.037 -0.4965  1.2050 -0.4204
11719TIP3    H256573   5.978   0.078  11.931 -0.8716  1.2509 -0.0834
11720TIP3   OH256574   2.078   1.476   0.414  0.0549  0.3247 -0.1955
11720TIP3    H156575   2.062   1.566   0.387 -1.0342  0.0386 -0.5646
11720TIP3    H256576   2.027   1.466   0.494 -0.3446 -0.1479 -0.5058
11721TIP3   OH256577   3.336   1.335   0.041 -0.1602  0.4678  0.1566
11721TIP3    H156578   3.341   1.324  -0.054 -1.6873  0.8443  0.0127
11721TIP3    H256579   3.423   1.309   0.073 -0.4380 -2.2727 -1.0726
11722TIP3   OH256580   5.812   1.891   0.638  0.1126  0.0089  0.2349
11722TIP3    H156581   5.769   1.816   0.596  3.0760 -1.3671 -0.6527
11722TIP3    H256582   5.807   1.872   0.731 -2.9180  0.9952  0.3705
11723TIP3   OH256583   5.566   3.715  12.642 -0.1934  0.3890 -0.3396
11723TIP3    H156584   5.560   3.631  12.596 -0.0138 -0.3150  0.8637
11723TIP3    H256585   5.657   3.718  12.674 -0.3446  0.7965  0.0646
11724TIP3   OH256586   4.538   2.003   2.049 -0.1933 -0.0105  0.1631
11724TIP3    H156587   4.509   1.912   2.055 -1.1967  0.3577  1.1695
11724TIP3    H256588   4.557   2.029   2.139 -0.7774  1.0455  0.0071
11725TIP3   OH256589   4.759   5.221  10.484  0.8005  0.4098  0.3025
11725TIP3    H156590   4.839   5.240  10.532  2.3619  0.6417 -2.1991
11725TIP3    H256591   4.746   5.127  10.493  0.0039  0.6866  2.5875
11726TIP3   OH256592   0.051   0.919  14.505 -0.2689  0.4597  0.0060
11726TIP3    H156593   0.126   0.971  14.475 -1.7748  3.6735  1.3957
11726TIP3    H256594   0.022   0.873  14.426  0.4288  2.7294 -1.7000
11727TIP3   OH256595   0.014   0.035   3.950 -0.4469  0.0037 -0.0872
11727TIP3    H156596   0.068  -0.019   4.008  3.5400  1.9539 -1.6310
11727TIP3    H256597  -0.018   0.106   4.006  1.6635  0.7465  0.2887
11728TIP3   OH256598   1.240   3.712   3.328  0.4840  0.0314 -0.2505
11728TIP3    H156599   1.307   3.754   3.274  1.7743 -1.5588  0.0172
11728TIP3    H256600   1.270   3.726   3.418  2.7510 -3.9246 -0.1508
11729TIP3   OH256601   0.262   4.847  13.645  0.1057 -0.8744 -0.6689
11729TIP3    H156602   0.257   4.854  13.740 -0.1461 -0.2303 -0.7287
11729TIP3    H256603   0.260   4.937  13.614 -1.2304 -1.1136 -1.3496
11730TIP3   OH256604   2.486   5.332  14.521 -0.2629  0.0454  0.7079
11730TIP3    H156605   2.420   5.394  14.488  0.4653  0.5242  0.1175
11730TIP3    H256606   2.525   5.376  14.596  1.1277  0.8785 -0.4632
11731TIP3   OH256607   3.549   6.566   5.804  0.1663 -0.0775 -0.9271
11731TIP3    H156608   3.583   6.488   5.848 -1.6805 -1.4869 -1.8375
11731TIP3    H256609   3.510   6.618   5.874  1.3961  0.0677 -0.3146
11732TIP3   OH256610   4.109   3.568   0.852 -0.1692  0.4465  0.0554
11732TIP3    H156611   4.037   3.577   0.914 -1.1198  2.5749 -1.2188
11732TIP3    H256612   4.148   3.655   0.847  1.2563 -0.1962 -0.7439
11733TIP3   OH256613   3.028   5.966  15.472 -0.8719 -0.1859  0.1905
11733TIP3    H156614   2.965   5.927  15.533 -1.5103 -0.2630 -0.5020
11733TIP3    H256615   2.980   6.037  15.430  0.0816  0.9542  0.9699
11734TIP3   OH256616   2.891   1.506   3.429 -0.0055 -0.0132  0.0669
11734TIP3    H156617   2.881   1.544   3.342  1.3576  1.2497  0.4113
11734TIP3    H256618   2.979   1.470   3.429 -0.2360 -0.5894  0.7118
11735TIP3   OH256619   5.078   1.864   3.478 -0.2036  0.3641  0.0063
11735TIP3    H156620   5.034   1.879   3.562  0.4261 -1.1120  0.6370
11735TIP3    H256621   5.033   1.788   3.441 -1.5578  1.9686 -1.8135
11736TIP3   OH256622   1.312   5.261  15.696 -0.2402  0.1904  0.1157
11736TIP3    H156623   1.312   5.178  15.744  0.9622  0.1209  0.0332
11736TIP3    H256624   1.272   5.240  15.612 -2.3427  0.3082  1.0210
11737TIP3   OH256625   2.535   0.198   1.225  0.4320  0.1074 -0.3131
11737TIP3    H156626   2.600   0.132   1.250  0.0528 -0.5439 -1.0114
11737TIP3    H256627   2.455   0.148   1.207  0.1525  0.7477 -0.9061
11738TIP3   OH256628   2.144   4.494  16.469 -0.6493 -0.1373  0.0134
11738TIP3    H156629   2.157   4.567  16.409  0.2287  0.9588  1.4542
11738TIP3    H256630   2.056   4.462  16.450 -1.3999  1.8701 -0.0947
11739TIP3   OH256631   0.027   3.052  16.032  0.7701  0.2599 -0.3012
11739TIP3    H156632   0.010   2.959  16.019 -0.2206  0.2236  0.9875
11739TIP3    H256633  -0.027   3.095  15.966 -2.6133  0.0300  2.0501
11740TIP3   OH256634   1.382   4.883  11.557  0.1424 -0.2194  0.4768
11740TIP3    H156635   1.432   4.964  11.566 -0.3183  0.1154  0.0655
11740TIP3    H256636   1.296   4.903  11.593  0.0791 -0.5802  0.5316
11741TIP3   OH256637   0.390   5.767   0.389  0.6799 -0.7753 -0.2073
11741TIP3    H156638   0.463   5.812   0.345 -0.0940  0.3792 -0.3650
11741TIP3    H256639   0.416   5.764   0.481  0.3061  1.0007 -0.0044
11742TIP3   OH256640   6.369   4.941   5.119  0.0157  0.3262 -0.2745
11742TIP3    H156641   6.406   4.852   5.117 -1.4088 -0.2726 -1.5481
11742TIP3    H256642   6.276   4.929   5.098 -0.2580  2.1105 -0.2321
11743TIP3   OH256643   2.846   6.065  12.163  0.1291  0.0377  0.7106
11743TIP3    H156644   2.786   6.106  12.225  0.5736  1.5589  0.1911
11743TIP3    H256645   2.901   6.137  12.131 -0.1420 -0.6444 -1.5020
11744TIP3   OH256646   4.025   0.752   5.766  0.1725  0.1697 -0.5241
11744TIP3    H156647   4.075   0.782   5.690  2.1074  1.2705  1.0756
11744TIP3    H256648   4.043   0.658   5.770  0.8154  0.2677 -0.9112
11745TIP3   OH256649   5.419   3.987   4.928  0.3647  0.4533  0.3182
11745TIP3    H156650   5.411   4.083   4.928 -0.8231  0.3914 -0.8645
11745TIP3    H256651   5.420   3.964   5.020 -0.4870  1.5563  0.6394
11746TIP3   OH256652   1.565   6.708   0.644 -0.4956  0.2344 -0.7674
11746TIP3    H156653   1.623   6.708   0.721 -2.1041 -1.3592  0.5271
11746TIP3    H256654   1.480   6.735   0.678 -1.4760 -1.4314 -1.7632
11747TIP3   OH256655   0.681   5.624  13.077 -0.2534  0.0462  0.0499
11747TIP3    H156656   0.759   5.669  13.109  0.7371 -1.9387  0.5529
11747TIP3    H256657   0.644   5.582  13.154 -2.9075  2.3813  0.1867
11748TIP3   OH256658   2.899   0.120   3.788  0.0262 -0.5067  0.2616
11748TIP3    H156659   2.815   0.076   3.779 -0.1773 -0.3980  1.5048
11748TIP3    H256660   2.877   0.213   3.797  0.4302 -0.1441 -1.8988
11749TIP3   OH256661   5.792   5.937  16.479  0.0406  0.0445  0.1236
11749TIP3    H156662   5.710   5.977  16.451  0.2111  0.9873  0.9110
11749TIP3    H256663   5.827   5.998  16.544  0.1001 -1.5771  1.6944
11750TIP3   OH256664   2.007   3.648  14.794 -0.4209  0.0085  0.6356
11750TIP3    H156665   1.997   3.716  14.728  0.4902  1.5051  1.9587
11750TIP3    H256666   2.083   3.597  14.767 -2.4223 -2.0593 -1.5930
11751TIP3   OH256667   4.147   6.219   3.036  0.0921 -0.8259 -0.3148
11751TIP3    H156668   4.240   6.219   3.056  0.1453  0.6020 -0.5206
11751TIP3    H256669   4.104   6.235   3.120  0.1231  0.3380 -0.5044
11752TIP3   OH256670   2.107   3.605  11.715  0.0666 -0.2992  0.0314
11752TIP3    H156671   2.055   3.552  11.655  0.8691 -0.8791 -0.1613
11752TIP3    H256672   2.173   3.647  11.660 -0.9070  1.4110  0.0783
11753TIP3   OH256673   6.775   5.163  11.682  0.6354 -0.2081  0.0309
11753TIP3    H156674   6.765   5.071  11.658  2.2399 -0.5497  0.5136
11753TIP3    H256675   6.832   5.161  11.759  1.5103  1.2240 -0.5354
11754TIP3   OH256676   2.717   5.421   2.884  0.3612 -0.1479 -0.6301
11754TIP3    H156677   2.683   5.334   2.905  1.2493 -0.3556  0.0442
11754TIP3    H256678   2.771   5.443   2.960 -0.1115  1.1381 -0.6497
11755TIP3   OH256679   5.816   3.473  14.503 -0.1256 -0.4111  0.2234
11755TIP3    H156680   5.758   3.411  14.547  0.0687 -0.4236  0.4660
11755TIP3    H256681   5.865   3.514  14.574 -0.1124 -0.1223  0.0481
11756TIP3   OH256682   6.044   4.408   2.840 -0.3298  0.1759 -0.0233
11756TIP3    H156683   5.991   4.445   2.911  0.2464  0.3134  0.3325
11756TIP3    H256684   6.052   4.315   2.861  0.2769  0.3120  0.3724
11757TIP3   OH256685   2.940   5.473   2.173  0.4132  0.0171 -0.0592
11757TIP3    H156686   2.991   5.420   2.112  0.7886  1.5476 -1.1292
11757TIP3    H256687   2.986   5.465   2.256  1.6175  0.2336 -0.6783
11758TIP3   OH256688   0.076   5.379  11.272 -0.1611  0.1206 -0.3667
11758TIP3    H156689   0.111   5.373  11.362 -0.8530  2.7067  0.1794
11758TIP3    H256690   0.153   5.396  11.218 -0.0246  1.5220  0.2164
11759TIP3   OH256691   0.821   6.756   0.263 -0.0284  0.3596  0.1812
11759TIP3    H156692   0.906   6.729   0.229  0.0141 -0.3844  0.8440
11759TIP3    H256693   0.764   6.760   0.186  0.7127  1.2947 -0.3208
11760TIP3   OH256694   6.589   2.476   2.535 -0.1532  0.5693  0.0656
11760TIP3    H156695   6.571   2.550   2.594  2.0915  0.6109  0.7631
11760TIP3    H256696   6.503   2.435   2.523 -0.7778  0.7469  3.1066
11761TIP3   OH256697   3.711   1.540   6.605  0.0931 -0.3688  0.1096
11761TIP3    H156698   3.710   1.615   6.545  0.7515  0.8987  1.6130
11761TIP3    H256699   3.761   1.473   6.558 -0.4061  0.1689 -1.2233
11762TIP3   OH256700   3.187   2.033  14.271 -0.3188  0.3525  0.3321
11762TIP3    H156701   3.167   1.965  14.207 -2.5549 -0.1856  1.4920
11762TIP3    H256702   3.226   2.104  14.220  0.6651 -1.1596 -1.1332
11763TIP3   OH256703   3.805   5.239   2.562  0.0544 -0.0598 -0.7082
11763TIP3    H156704   3.734   5.203   2.616 -2.6744  1.6865 -2.8308
11763TIP3    H256705   3.799   5.192   2.479  1.8746 -0.3208 -0.7292
11764TIP3   OH256706   5.759   3.164  11.529  0.1061 -0.3217  0.5263
11764TIP3    H156707   5.795   3.087  11.573 -3.0122 -1.3462  1.5939
11764TIP3    H256708   5.688   3.129  11.475  0.6672  1.5219 -1.5486
11765TIP3   OH256709   3.125   6.019  16.316 -0.2909 -0.4310  0.1386
11765TIP3    H156710   3.175   5.975  16.385  0.0634  0.4976  0.4996
11765TIP3    H256711   3.116   6.109  16.348  0.1792  0.1014 -1.1879
11766TIP3   OH256712   0.405   4.740   4.840  0.0108  0.1814  0.0645
11766TIP3    H156713   0.414   4.833   4.821  0.1684 -0.0441 -1.0192
11766TIP3    H256714   0.317   4.718   4.810  0.2252 -0.1592 -0.3256
11767TIP3   OH256715   4.082   4.144   6.004  0.1250  0.5228  0.5748
11767TIP3    H156716   4.022   4.167   5.933  0.6032  0.8244  0.2627
11767TIP3    H256717   4.027   4.141   6.082 -0.5028 -0.2546  0.1292
11768TIP3   OH256718   1.356   0.445   4.560 -0.2599  0.2052  0.5808
11768TIP3    H156719   1.387   0.520   4.509 -1.0074 -0.0806 -0.3245
11768TIP3    H256720   1.434   0.411   4.603  0.5024  0.1870 -0.7524
11769TIP3   OH256721   5.690   4.684   3.555 -0.7499  0.2047 -0.4167
11769TIP3    H156722   5.626   4.724   3.613  0.4537  0.7625  0.5738
11769TIP3    H256723   5.729   4.757   3.507 -1.0904 -0.1660 -1.2773
11770TIP3   OH256724   4.487   2.815  15.195  0.3854 -0.2851  0.2403
11770TIP3    H156725   4.470   2.908  15.210 -1.0701 -0.2270 -1.4111
11770TIP3    H256726   4.565   2.814  15.139 -0.2360  0.0258 -0.6549
11771TIP3   OH256727   3.380   2.138  15.599  0.1888  0.0660  0.9712
11771TIP3    H156728   3.451   2.103  15.546  0.5435 -0.1701  1.5949
11771TIP3    H256729   3.409   2.226  15.624  0.3783 -0.1220  1.4293
11772TIP3   OH256730   4.064   1.305   4.554  0.3281 -0.0292 -0.2229
11772TIP3    H156731   3.975   1.337   4.561  0.1772 -0.7819  2.3848
11772TIP3    H256732   4.106   1.364   4.491 -1.1464  2.3857  0.9053
11773TIP3   OH256733   0.270   4.683   4.542  0.3522  0.2613  0.1042
11773TIP3    H156734   0.247   4.656   4.631  0.2363 -0.5965 -0.1779
11773TIP3    H256735   0.273   4.778   4.546  0.9359  0.2168  1.1714
11774TIP3   OH256736   6.316   6.342  16.563 -0.0551  0.7973 -0.0305
11774TIP3    H156737   6.245   6.278  16.564 -0.0150  0.7613  0.4741
11774TIP3    H256738   6.299   6.399  16.638 -0.0240  1.3096 -0.4082
11775TIP3   OH256739   3.677   3.747   3.134  0.0163  0.5745 -0.3442
11775TIP3    H156740   3.648   3.698   3.057 -1.4133  1.4770 -0.4078
11775TIP3    H256741   3.613   3.817   3.144  1.0789  1.4342  0.7364
11776TIP3   OH256742   4.600   2.152   6.018 -0.1627 -0.1030  0.2770
11776TIP3    H156743   4.510   2.159   6.049 -0.2360 -0.7067  0.2104
11776TIP3    H256744   4.613   2.058   6.001 -0.2889  0.2441 -2.0277
11777TIP3   OH256745   0.274   5.539   0.297  0.0206  0.2000 -0.6899
11777TIP3    H156746   0.336   5.478   0.257 -1.3641 -0.7781 -1.4669
11777TIP3    H256747   0.326   5.616   0.319  1.6029 -0.8210 -0.7389
11778TIP3   OH256748   4.421   4.685  15.095  0.2111 -0.4460  0.0307
11778TIP3    H156749   4.409   4.693  15.189 -2.2974 -1.3060 -0.1550
11778TIP3    H256750   4.416   4.591  15.078  1.4167 -0.3735 -0.9126
11779TIP3   OH256751   0.843   2.566   0.293 -0.1036  0.1622  0.6977
11779TIP3    H156752   0.798   2.484   0.312  1.6848 -1.4545 -1.5020
11779TIP3    H256753   0.789   2.633   0.334 -3.6193 -1.7376 -0.4318
11780TIP3   OH256754   5.823   6.361   3.283  0.6075  0.5886  0.0579
11780TIP3    H156755   5.866   6.369   3.368 -0.9084 -0.1584  0.9500
11780TIP3    H256756   5.887   6.318   3.227  0.7827 -1.2403  1.5569
11781TIP3   OH256757   1.308   1.011   0.215  0.0881  0.0856 -0.0163
11781TIP3    H156758   1.333   0.978   0.129  2.3042  1.0596  0.2043
11781TIP3    H256759   1.280   0.933   0.263  0.3806 -0.7088 -1.1027
11782TIP3   OH256760   2.264   6.569   2.564  0.3054 -0.0287  0.1371
11782TIP3    H156761   2.175   6.542   2.586  0.8034 -2.6059 -0.6947
11782TIP3    H256762   2.258   6.606   2.476  0.4761 -3.5925 -1.5341
11783TIP3   OH256763   2.434   2.033  13.034 -0.4561  0.3974 -0.1178
11783TIP3    H156764   2.353   1.983  13.037 -0.2227 -0.1592 -1.8700
11783TIP3    H256765   2.417   2.103  12.972  0.5431 -0.0455 -0.9326
11784TIP3   OH256766   1.073   3.685   3.572  0.3685  0.4644  0.1956
11784TIP3    H156767   1.013   3.707   3.501  0.0905 -0.3634  0.1658
11784TIP3    H256768   1.107   3.598   3.550  1.4434  0.8380  0.3079
11785TIP3   OH256769   3.215   0.832   3.423  0.5849 -0.2407 -0.4720
11785TIP3    H156770   3.130   0.788   3.417  0.6197 -0.3554 -0.1608
11785TIP3    H256771   3.208   0.887   3.501  1.1507 -1.0387  0.1671
11786TIP3   OH256772   2.398   0.082   0.220  0.0181 -0.2668 -0.4231
11786TIP3    H156773   2.308   0.060   0.246  0.7385 -0.9061  1.7040
11786TIP3    H256774   2.424   0.151   0.281  1.2501 -0.6667 -0.4730
11787TIP3   OH256775   4.452   2.956  15.875 -0.4976  0.4139 -0.9254
11787TIP3    H156776   4.498   2.993  15.799 -0.5678  1.2096 -0.5901
11787TIP3    H256777   4.512   2.969  15.948 -0.8893  0.6469 -0.6441
11788TIP3   OH256778   2.249   4.182  15.667  0.6812  0.4963  0.4289
11788TIP3    H156779   2.205   4.179  15.582 -2.5438 -0.7335  1.9497
11788TIP3    H256780   2.331   4.134  15.654 -0.2121 -0.5643 -1.7307
11789TIP3   OH256781   4.346   1.225  15.467  0.1378 -0.9603  0.1212
11789TIP3    H156782   4.391   1.168  15.530  1.2912  0.9144  1.0858
11789TIP3    H256783   4.254   1.221  15.492  0.2643 -2.0044  0.4682
11790TIP3   OH256784   2.768   0.145   2.040  0.4110  0.2330 -0.3481
11790TIP3    H156785   2.801   0.056   2.051 -0.4207 -0.1844 -1.0822
11790TIP3    H256786   2.829   0.200   2.089 -0.2191 -0.9630  1.9265
11791TIP3   OH256787   3.149   2.077   5.653  0.1482 -0.2509 -0.8319
11791TIP3    H156788   3.095   2.003   5.681  0.4336 -0.2498 -0.2575
11791TIP3    H256789   3.197   2.044   5.577  1.7975 -1.3681  0.6042
11792TIP3   OH256790   4.775   5.531  13.660 -0.1807 -0.1974 -0.1876
11792TIP3    H156791   4.848   5.573  13.615 -0.0677 -0.3971 -0.1948
11792TIP3    H256792   4.746   5.462  13.600  0.1362 -0.6302  0.1484
11793TIP3   OH256793   5.412   1.942  11.579  0.3009  0.1584 -0.2260
11793TIP3    H156794   5.379   2.027  11.549 -1.1416 -0.5615 -0.8157
11793TIP3    H256795   5.335   1.885  11.574  1.4085 -1.3476 -0.5265
11794TIP3   OH256796   3.416   5.560  14.748  0.3212 -0.1549  0.3647
11794TIP3    H156797   3.511   5.574  14.752  0.4465 -0.5739 -0.7731
11794TIP3    H256798   3.383   5.636  14.699 -0.0101  0.3005  1.2859
11795TIP3   OH256799   0.343   0.808  11.016 -0.0444  0.1939 -0.2568
11795TIP3    H156800   0.257   0.849  11.028  0.3184  0.7243  0.6345
11795TIP3    H256801   0.327   0.715  11.030 -0.4645  0.2946 -0.0478
11796TIP3   OH256802   5.633   2.304   5.582 -0.0025  0.3073 -0.5011
11796TIP3    H156803   5.566   2.338   5.522 -0.3679  2.4797  1.0193
11796TIP3    H256804   5.584   2.257   5.649  0.0860  0.8317 -0.0623
11797TIP3   OH256805   5.869   0.574   0.745  0.1579  0.2125 -0.4672
11797TIP3    H156806   5.895   0.522   0.820 -1.2140 -0.3246 -0.3517
11797TIP3    H256807   5.775   0.562   0.737 -0.0562  1.8980 -1.0356
11798TIP3   OH256808   4.144   0.548   0.960  0.1962  0.9845  0.1519
11798TIP3    H156809   4.215   0.513   0.907  0.5978  0.3685  1.0686
11798TIP3    H256810   4.094   0.604   0.900  1.3599  1.3154 -0.5381
11799TIP3   OH256811   5.708   2.998  17.101 -0.4307  0.2041  0.7351
11799TIP3    H156812   5.662   3.073  17.063  1.0627  0.2370 -1.1767
11799TIP3    H256813   5.780   3.037  17.152  0.3448  0.1009 -0.2576
11800TIP3   OH256814   5.415   1.694   3.002  1.2486  0.2354 -0.0006
11800TIP3    H156815   5.320   1.684   3.012  1.2322 -1.4346 -1.4399
11800TIP3    H256816   5.425   1.756   2.930  1.2366  0.0049 -0.2024
11801TIP3   OH256817   6.348   5.295   5.131  0.0347 -0.5135 -0.4732
11801TIP3    H156818   6.430   5.286   5.084  1.8815 -1.9738  2.6843
11801TIP3    H256819   6.342   5.388   5.151 -1.7367  0.5191 -4.7785
11802TIP3   OH256820   3.596   0.655   0.215  0.2708  0.3873  0.0323
11802TIP3    H156821   3.609   0.567   0.251 -1.9898 -0.1100 -0.2109
11802TIP3    H256822   3.646   0.712   0.274 -0.9976 -0.7151  2.3412
11803TIP3   OH256823   3.563   1.145  13.568  0.7521 -0.2690  0.0854
11803TIP3    H156824   3.643   1.197  13.564 -0.1764  1.1964 -0.0934
11803TIP3    H256825   3.564   1.106  13.655  0.2137  2.2165  1.2980
11804TIP3   OH256826   6.317   1.327  15.664  0.1359  0.1837  0.4031
11804TIP3    H156827   6.310   1.372  15.580 -0.5937 -1.3383 -0.3836
11804TIP3    H256828   6.411   1.328  15.683  0.4410 -0.3055 -0.9392
11805TIP3   OH256829   3.439   1.215   3.648 -0.1764  0.3758  0.5175
11805TIP3    H156830   3.462   1.232   3.557 -1.5378  0.0960  0.1008
11805TIP3    H256831   3.511   1.161   3.681 -0.1913 -0.4313 -0.7059
11806TIP3   OH256832   5.916   0.456   3.731  0.2353 -0.7827  0.0034
11806TIP3    H156833   5.870   0.470   3.813  0.6964 -0.4953  0.2147
11806TIP3    H256834   5.857   0.491   3.664  0.9699  1.4527  0.4300
11807TIP3   OH256835   2.564   4.955   1.632  0.3742  0.2501  0.0800
11807TIP3    H156836   2.584   4.952   1.726 -1.0191 -1.5009  0.3752
11807TIP3    H256837   2.543   4.865   1.609  1.7063  0.4410 -2.1948
11808TIP3   OH256838   0.263   0.776   0.115  0.2632  0.1926  0.3844
11808TIP3    H156839   0.219   0.771   0.030  0.4360 -0.3841  0.3236
11808TIP3    H256840   0.226   0.703   0.166 -1.6655  1.9557  1.7002
11809TIP3   OH256841   5.476   0.395   2.028 -0.2576  0.2581  0.1447
11809TIP3    H156842   5.407   0.439   1.978  0.1909  1.5394  0.6143
11809TIP3    H256843   5.488   0.449   2.106  0.5536 -0.5251  0.5830
11810TIP3   OH256844   5.136   1.871  15.728 -0.2574 -0.3017 -0.0367
11810TIP3    H156845   5.085   1.948  15.750 -1.6474 -1.2631  0.2593
11810TIP3    H256846   5.226   1.903  15.720 -0.4741  1.0181  1.9780
11811TIP3   OH256847   4.719   1.612   3.574  0.0668  0.1160 -0.5094
11811TIP3    H156848   4.654   1.681   3.564  0.7416  0.7410 -0.6702
11811TIP3    H256849   4.787   1.634   3.510  0.8774 -0.0111  0.2905
11812TIP3   OH256850   0.820   3.907   4.511 -0.1067  0.1561 -0.1355
11812TIP3    H156851   0.847   3.830   4.561 -0.3097 -0.1205 -0.4408
11812TIP3    H256852   0.746   3.876   4.458  0.2523  0.3785 -0.7766
11813TIP3   OH256853   3.451   5.292  13.842 -0.2921 -0.2150 -0.2738
11813TIP3    H156854   3.360   5.323  13.844 -0.3852 -0.2401 -2.0169
11813TIP3    H256855   3.487   5.332  13.763  0.8997 -1.0582 -0.1784
11814TIP3   OH256856   3.659   2.552   1.062  0.5401 -0.0947 -0.1560
11814TIP3    H156857   3.718   2.615   1.104  0.5414 -0.3004  0.1519
11814TIP3    H256858   3.710   2.472   1.054  0.0635 -0.5192  0.8385
11815TIP3   OH256859   6.247   1.562  14.105 -0.0655 -0.0325 -0.0351
11815TIP3    H156860   6.240   1.621  14.180 -0.5243 -0.7801  0.5231
11815TIP3    H256861   6.161   1.521  14.099  0.5381 -1.3799  0.2176
11816TIP3   OH256862   1.184   5.810   2.592 -0.2878  0.7193 -0.1823
11816TIP3    H156863   1.206   5.731   2.544 -1.8946  1.2210 -1.8661
11816TIP3    H256864   1.132   5.779   2.666  0.8409  0.0739  0.3767
11817TIP3   OH256865   0.621   4.596   5.031 -0.1553  0.3789  0.3287
11817TIP3    H156866   0.584   4.511   5.054 -0.8503  0.8513  1.0525
11817TIP3    H256867   0.558   4.633   4.969  2.0503 -1.1791 -3.1494
11818TIP3   OH256868   5.828   1.249   4.466 -0.4059 -0.0512  0.0968
11818TIP3    H156869   5.826   1.154   4.483  2.6806  0.1462  2.3817
11818TIP3    H256870   5.908   1.263   4.417 -0.8721  1.4069 -0.2795
11819TIP3   OH256871   4.893   1.410  15.796  0.0805 -0.4968  0.1361
11819TIP3    H156872   4.852   1.413  15.882 -1.6777 -0.8002 -0.6623
11819TIP3    H256873   4.962   1.476  15.800  0.3630 -0.8432  1.9193
11820TIP3   OH256874   4.173   2.061   1.187  0.3768  0.6652 -0.1166
11820TIP3    H156875   4.089   2.040   1.228  0.4812 -1.6014 -0.8798
11820TIP3    H256876   4.234   2.068   1.261 -0.0674 -0.0172  0.3354
11821TIP3   OH256877   4.603   1.728   4.833  0.3215  0.5074 -0.1089
11821TIP3    H156878   4.527   1.684   4.794  0.5296 -0.1104  0.1650
11821TIP3    H256879   4.664   1.739   4.760  1.3453 -2.0092  0.2564
11822TIP3   OH256880   1.588   1.105  14.499 -0.7751 -0.0974 -0.3814
11822TIP3    H156881   1.649   1.034  14.518 -1.1170 -1.0590 -2.5655
11822TIP3    H256882   1.524   1.101  14.570 -0.3106 -1.4407 -0.0131
11823TIP3   OH256883   3.642   6.020  14.066  0.1857  0.3035  0.2247
11823TIP3    H156884   3.582   6.094  14.060  0.3691  0.3275 -2.2113
11823TIP3    H256885   3.717   6.046  14.013  0.5824 -1.3215 -0.0563
11824TIP3   OH256886   5.293   6.157   5.118  0.1211 -1.3524  0.3920
11824TIP3    H156887   5.236   6.148   5.194 -0.7358 -2.8957 -0.3741
11824TIP3    H256888   5.274   6.244   5.084  1.3218 -0.1794  2.5213
11825TIP3   OH256889   6.241   4.980  11.482  0.3046  0.0622  0.3356
11825TIP3    H156890   6.204   5.002  11.567  2.5497 -2.6588  2.1998
11825TIP3    H256891   6.185   4.911  11.448  1.9428 -2.1883  1.9313
11826TIP3   OH256892   1.678   0.279  15.641  0.3244 -0.4543  0.1763
11826TIP3    H156893   1.588   0.310  15.631 -0.3359 -1.8657  1.4150
11826TIP3    H256894   1.705   0.256  15.551 -0.5801 -0.1063 -0.1956
11827TIP3   OH256895   3.430   1.964  14.086 -0.7313  0.6736  0.0125
11827TIP3    H156896   3.437   2.024  14.160 -0.1702  1.0903 -0.3747
11827TIP3    H256897   3.519   1.957  14.052 -1.0407  0.7720 -0.8482
11828TIP3   OH256898   1.755   0.925  10.646 -0.5185 -0.0991 -0.4301
11828TIP3    H156899   1.678   0.876  10.618  0.5115 -2.3895  0.4305
11828TIP3    H256900   1.812   0.859  10.686  0.9352  1.8619  0.9600
11829TIP3   OH256901   5.555   5.725   1.751  0.1970  0.2219 -0.2255
11829TIP3    H156902   5.647   5.743   1.733  0.4668 -0.3730  0.4994
11829TIP3    H256903   5.553   5.702   1.844 -0.3329 -1.9195 -0.6995
11830TIP3   OH256904   3.696   0.359   5.315 -0.0970  0.4947  1.0567
11830TIP3    H156905   3.605   0.380   5.291  0.4073  1.2786 -0.2779
11830TIP3    H256906   3.703   0.265   5.302 -0.6502  0.4636  0.9403
11831TIP3   OH256907   3.006   3.823   2.968 -0.5557 -0.2236 -0.4442
11831TIP3    H156908   2.978   3.733   2.988  1.2056 -0.9113 -0.8340
11831TIP3    H256909   2.973   3.839   2.880  0.4535 -1.1460 -1.0318
11832TIP3   OH256910   4.048   2.325  12.777  0.5668  0.7060 -0.2004
11832TIP3    H156911   4.029   2.232  12.763  0.4377  0.8326 -0.9051
11832TIP3    H256912   3.984   2.354  12.842 -1.2073  0.9417 -1.9491
11833TIP3   OH256913   5.217   5.676   0.747  0.4481  0.5792  0.2057
11833TIP3    H156914   5.204   5.616   0.673  0.3657 -2.3289  2.4118
11833TIP3    H256915   5.147   5.741   0.738  1.0086  0.9200 -2.7225
11834TIP3   OH256916   1.484   2.846  14.664  0.2386  0.4494  0.3818
11834TIP3    H156917   1.499   2.931  14.625  0.2871  0.6598  0.8447
11834TIP3    H256918   1.398   2.818  14.632  0.1351  0.7639  0.3867
11835TIP3   OH256919   6.221   0.544   4.557 -0.0006  0.1051 -0.3509
11835TIP3    H156920   6.247   0.553   4.465  0.9882 -1.2236 -0.2338
11835TIP3    H256921   6.206   0.450   4.568 -1.0474  0.3576  0.6208
11836TIP3   OH256922   3.552   3.692   5.234  0.1280  0.3652  0.3888
11836TIP3    H156923   3.634   3.707   5.281 -0.1932  1.8600  0.5199
11836TIP3    H256924   3.577   3.690   5.142  0.4946 -0.6186  0.5000
11837TIP3   OH256925   2.081   2.413  14.175  0.5876 -0.2341  0.1755
11837TIP3    H156926   2.143   2.357  14.221  1.1521 -1.9957 -2.4402
11837TIP3    H256927   2.117   2.501  14.181  0.7295 -0.3993  2.7385
11838TIP3   OH256928   5.016   1.659  13.437 -0.0977  0.1043  0.1682
11838TIP3    H156929   4.975   1.578  13.404  0.9955 -0.6909  0.6976
11838TIP3    H256930   4.949   1.726  13.425 -0.8219 -0.7634 -0.8374
11839TIP3   OH256931   4.109   1.996  13.858  0.5336  0.4131  1.0516
11839TIP3    H156932   4.155   1.967  13.780  2.7443  0.2252  2.3286
11839TIP3    H256933   4.174   2.046  13.907 -0.8487  0.7376  2.6643
11840TIP3   OH256934   3.394   6.170   2.096  0.3500  0.2760  0.4162
11840TIP3    H156935   3.441   6.213   2.167 -0.4413  1.4710  0.2640
11840TIP3    H256936   3.301   6.186   2.116  0.0756 -0.5196 -0.1807
11841TIP3   OH256937   5.882   0.673  11.890  0.2332  0.6573  0.4952
11841TIP3    H156938   5.851   0.754  11.930 -0.0073  1.1296 -0.6030
11841TIP3    H256939   5.977   0.674  11.902  0.1304  0.6322  1.3165
11842TIP3   OH256940   4.236   0.579   2.455 -0.2305  0.1020  0.2097
11842TIP3    H156941   4.213   0.598   2.364 -2.2778  1.8565  0.9914
11842TIP3    H256942   4.153   0.560   2.497  0.8576 -2.3568  1.4353
11843TIP3   OH256943   5.050   1.812  14.690 -0.3886  0.0456  0.0007
11843TIP3    H156944   5.118   1.835  14.626 -0.4626 -0.4876 -0.2749
11843TIP3    H256945   5.055   1.717  14.697 -2.3431 -0.2200 -1.4215
11844TIP3   OH256946   4.611   5.964   4.064 -0.7078 -0.2337  0.2963
11844TIP3    H156947   4.676   5.922   4.007 -1.0756  0.2993 -0.5382
11844TIP3    H256948   4.540   5.901   4.070 -0.2700 -0.6758  0.9296
11845TIP3   OH256949   5.414   1.498  12.453 -0.1842  0.3848 -0.0892
11845TIP3    H156950   5.483   1.512  12.388  1.3924 -1.4466  1.0725
11845TIP3    H256951   5.384   1.586  12.477  1.2620  1.1930 -1.1231
11846TIP3   OH256952   2.322   2.897  12.861 -1.0220 -0.1937  0.3101
11846TIP3    H156953   2.304   2.876  12.952 -1.6176 -0.9133  0.0400
11846TIP3    H256954   2.290   2.822  12.812  0.4023 -0.3677 -0.4147
11847TIP3   OH256955   1.502   1.797  15.400 -0.2605  0.3453 -0.1669
11847TIP3    H156956   1.520   1.740  15.325 -1.4199 -0.6435  0.2715
11847TIP3    H256957   1.466   1.739  15.467 -1.0073  1.5083  0.4866
11848TIP3   OH256958   5.524   0.317   5.486 -0.5045 -0.5246 -0.1540
11848TIP3    H156959   5.520   0.399   5.536  3.8991  0.4515 -1.0732
11848TIP3    H256960   5.542   0.343   5.396  1.2329 -2.4571 -0.4433
11849TIP3   OH256961   4.141   3.525  15.907 -0.4468  0.1406  0.0129
11849TIP3    H156962   4.175   3.437  15.924 -2.8873 -0.7483  0.7334
11849TIP3    H256963   4.143   3.569  15.992 -1.8394 -0.2294  0.2539
11850TIP3   OH256964   0.120   2.009  11.836 -0.3507 -0.4322  0.2083
11850TIP3    H156965   0.121   2.083  11.897  1.6983 -1.5414  1.6657
11850TIP3    H256966   0.047   1.955  11.865 -0.3507 -0.1716  0.7116
11851TIP3   OH256967   5.298   2.361   4.476  0.1636  0.0704 -0.1209
11851TIP3    H156968   5.314   2.455   4.478 -1.9827  0.4543  0.8015
11851TIP3    H256969   5.274   2.343   4.385 -1.5111  0.8307  0.1391
11852TIP3   OH256970   5.036   6.377   2.566  0.1881  0.2411  0.0688
11852TIP3    H156971   4.968   6.412   2.509 -0.0886  1.2304  0.9668
11852TIP3    H256972   5.115   6.379   2.513 -0.1191  0.8587 -0.3849
11853TIP3   OH256973   5.663   5.214   4.992 -0.3858 -0.0872 -0.4161
11853TIP3    H156974   5.680   5.129   4.952  0.1160 -1.1859  1.9284
11853TIP3    H256975   5.715   5.213   5.073 -0.8665  2.2079  0.0050
11854TIP3   OH256976   2.341   2.744  13.140 -0.1785 -0.5362  0.0234
11854TIP3    H156977   2.351   2.657  13.180 -0.3275  0.1155  1.5408
11854TIP3    H256978   2.420   2.791  13.167 -0.0196 -0.2433 -0.9391
11855TIP3   OH256979   1.531   4.581   3.712  0.3476 -0.5481  0.0384
11855TIP3    H156980   1.549   4.673   3.691  1.0816 -0.5763  0.4884
11855TIP3    H256981   1.474   4.584   3.789 -0.2202 -0.4684 -0.3796
11856TIP3   OH256982   3.625   3.052   0.943 -0.1972  0.2661 -0.1420
11856TIP3    H156983   3.563   3.043   0.870  0.1632  0.5557 -0.4854
11856TIP3    H256984   3.711   3.040   0.904 -0.0950 -1.8904  0.6217
11857TIP3   OH256985   3.227   3.756  13.805  0.0897 -0.2141  0.5590
11857TIP3    H156986   3.291   3.738  13.874  0.4676 -1.2811 -0.0452
11857TIP3    H256987   3.144   3.725  13.840  0.3825 -1.3039  0.3207
11858TIP3   OH256988   0.610   4.973   0.132 -0.1935  0.1137  0.3016
11858TIP3    H156989   0.640   4.904   0.073 -0.0610 -0.5706  1.1486
11858TIP3    H256990   0.643   4.948   0.218 -1.4859  0.3832  0.9143
11859TIP3   OH256991   4.377   4.692   4.127 -0.3486  0.3218  0.2215
11859TIP3    H156992   4.337   4.631   4.065 -0.8774  1.8275 -0.9683
11859TIP3    H256993   4.456   4.722   4.083  0.6405 -0.4754  1.3718
11860TIP3   OH256994   2.589   3.576   5.738  0.3511 -0.2802 -0.0529
11860TIP3    H156995   2.670   3.604   5.779  0.5160 -1.6667  0.6025
11860TIP3    H256996   2.597   3.605   5.647  2.1099 -1.4474 -0.3110
11861TIP3   OH256997   4.771   1.464   0.321 -0.1408  0.0293  0.0865
11861TIP3    H156998   4.780   1.369   0.312  0.7467  0.1033  0.1107
11861TIP3    H256999   4.833   1.500   0.258  0.1687  0.5883  0.7026
11862TIP3   OH257000   0.414   1.005   0.256 -0.1311 -0.3267  0.2912
11862TIP3    H157001   0.355   1.068   0.295 -0.6156 -0.0472 -0.8587
11862TIP3    H257002   0.358   0.946   0.205  0.4541 -0.7821  0.1488
11863TIP3   OH257003   6.341   6.104  11.751 -0.0454 -0.9342 -0.1951
11863TIP3    H157004   6.393   6.155  11.688  0.0434 -1.7632 -0.8129
11863TIP3    H257005   6.404   6.050  11.796 -0.3448 -1.9113 -0.9130
11864TIP3   OH257006   2.798   2.889  13.437  0.5893 -0.0052  0.2382
11864TIP3    H157007   2.870   2.830  13.458  2.7819  1.8552 -1.4806
11864TIP3    H257008   2.840   2.964  13.394 -2.2022  2.0014  0.6911
11865TIP3   OH257009   5.760   1.544  14.848  0.0380 -0.2618  0.1805
11865TIP3    H157010   5.667   1.568  14.842 -0.0017 -0.7045 -1.3933
11865TIP3    H257011   5.794   1.559  14.760  1.3123 -0.7519  0.5750
11866TIP3   OH257012   5.711   4.209  16.693  0.0849  0.5724  0.2592
11866TIP3    H157013   5.718   4.258  16.774 -0.9812  1.9935 -0.4557
11866TIP3    H257014   5.649   4.259  16.640  0.1450 -0.7355 -1.1249
11867TIP3   OH257015   4.545   4.927  14.766 -0.5590  0.0226 -0.1731
11867TIP3    H157016   4.612   4.873  14.807 -0.4695 -0.8541 -1.4376
11867TIP3    H257017   4.512   4.874  14.694 -0.6023  1.5726 -1.3374
11868TIP3   OH257018   6.267   4.211   2.516 -0.3580 -0.1069  0.0239
11868TIP3    H157019   6.341   4.176   2.466  1.5127  0.3555  2.2882
11868TIP3    H257020   6.282   4.181   2.605 -2.7069  0.4097  0.6777
11869TIP3   OH257021   2.082   4.134   2.585 -0.0042 -0.6048 -0.0581
11869TIP3    H157022   2.175   4.112   2.575  0.1078 -0.8167  1.2159
11869TIP3    H257023   2.056   4.089   2.666 -1.4266 -1.2049 -0.8133
11870TIP3   OH257024   3.406   1.246  12.898 -0.5466  0.0240 -0.4288
11870TIP3    H157025   3.334   1.293  12.857 -0.2685  1.4585  0.6711
11870TIP3    H257026   3.485   1.291  12.867 -0.3008  0.6506  1.0220
11871TIP3   OH257027   1.896   6.652  13.098  0.0470  1.1557 -0.2164
11871TIP3    H157028   1.911   6.743  13.121  0.6661  0.8920  0.4598
11871TIP3    H257029   1.855   6.614  13.176  0.8123  0.6021 -0.0730
11872TIP3   OH257030   2.087   3.663  14.490  0.0044  0.3140  0.5447
11872TIP3    H157031   2.063   3.754  14.511  0.4046  1.6312 -3.6839
11872TIP3    H257032   2.182   3.665  14.479 -0.0530 -0.4434 -0.1899
11873TIP3   OH257033   5.989   1.350  13.429  0.6357 -0.1324 -0.3511
11873TIP3    H157034   5.905   1.327  13.468 -0.0144 -1.2484 -2.3103
11873TIP3    H257035   6.052   1.342  13.501 -0.8936  0.7555  1.1513
11874TIP3   OH257036   4.300   6.143  13.489  0.4488  0.4262 -0.2144
11874TIP3    H157037   4.247   6.137  13.568 -0.1289  0.5418 -0.5800
11874TIP3    H257038   4.381   6.186  13.516  0.0901  0.8231  0.2356
11875TIP3   OH257039   1.250   6.352   4.428  0.6849  0.6456 -0.2581
11875TIP3    H157040   1.255   6.393   4.515  1.9293 -0.2103  0.0982
11875TIP3    H257041   1.288   6.417   4.369  1.2965  0.6002  0.0791
11876TIP3   OH257042   6.451   0.176   1.233  0.2686 -0.1026 -0.0674
11876TIP3    H157043   6.405   0.094   1.246 -1.8409  1.0945  0.5796
11876TIP3    H257044   6.383   0.237   1.204  1.7151  1.4736 -0.3138
11877TIP3   OH257045   1.988   6.646  15.141 -0.3010  0.3034 -0.0490
11877TIP3    H157046   1.937   6.699  15.081 -0.1622  1.7038  1.0107
11877TIP3    H257047   1.946   6.659  15.226  0.8297  0.2030  0.5532
11878TIP3   OH257048   5.325   4.823  14.558  0.4671  0.6066  0.3451
11878TIP3    H157049   5.324   4.887  14.486 -0.2314  1.0098  0.7126
11878TIP3    H257050   5.343   4.739  14.515 -0.1012  0.8204 -0.3215
11879TIP3   OH257051   1.180   0.587  12.578 -0.2176 -0.1645 -0.1393
11879TIP3    H157052   1.268   0.602  12.613  0.0115 -1.2632 -0.2168
11879TIP3    H257053   1.122   0.636  12.637  0.3222 -0.5708  0.7410
11880TIP3   OH257054   4.826   1.497  11.864 -0.2539  0.7995  0.2011
11880TIP3    H157055   4.870   1.439  11.926  0.6906  0.0034 -1.1524
11880TIP3    H257056   4.835   1.584  11.901  0.3752  0.3536  1.1282
11881TIP3   OH257057   0.275   6.005  12.666  0.0013 -0.0158 -0.1975
11881TIP3    H157058   0.369   6.018  12.654 -0.2410  1.9897 -0.1863
11881TIP3    H257059   0.245   5.968  12.583  1.0678 -2.5750  0.4662
11882TIP3   OH257060   1.550   5.925  16.480  0.6225  0.2248 -0.2756
11882TIP3    H157061   1.644   5.919  16.463  0.4898  0.8483 -1.3139
11882TIP3    H257062   1.514   5.968  16.402 -0.5666 -0.2576 -0.0171
11883TIP3   OH257063   1.302   4.440  11.820 -0.0916 -0.5064 -0.0437
11883TIP3    H157064   1.215   4.479  11.826 -0.5261 -1.2170 -1.3560
11883TIP3    H257065   1.299   4.387  11.741  1.9584  0.4737 -0.8340
11884TIP3   OH257066   1.818   6.267  16.133  0.3272  0.1653  0.4240
11884TIP3    H157067   1.878   6.327  16.177 -0.3896  0.1238  1.5031
11884TIP3    H257068   1.737   6.274  16.183 -0.5036  0.0581 -0.8723
11885TIP3   OH257069   6.670   2.651   4.579  0.0325 -0.2055 -0.0225
11885TIP3    H157070   6.698   2.629   4.668 -0.5949  0.6850  0.4109
11885TIP3    H257071   6.577   2.625   4.576 -0.8073  2.4663  0.5860
11886TIP3   OH257072   3.326   4.247  16.858  0.2515  0.2855 -0.1051
11886TIP3    H157073   3.302   4.159  16.889 -1.7632  0.9059  0.2001
11886TIP3    H257074   3.326   4.301  16.937 -0.6127  0.9862 -0.5740
11887TIP3   OH257075   5.519   5.114   3.636 -0.1950  0.0246  0.3736
11887TIP3    H157076   5.474   5.100   3.553  0.8945 -0.6130 -0.1283
11887TIP3    H257077   5.502   5.206   3.657  0.8758  0.6749 -1.3989
11888TIP3   OH257078   2.636   4.694  11.156 -0.0630  0.3976 -0.0614
11888TIP3    H157079   2.592   4.683  11.240  0.0132 -0.8256 -0.1594
11888TIP3    H257080   2.611   4.616  11.105 -0.5788  1.3874 -1.3961
11889TIP3   OH257081   4.441   5.075   1.938 -0.1475 -0.1670 -0.2103
11889TIP3    H157082   4.387   5.143   1.896  0.6319  0.2537 -0.5497
11889TIP3    H257083   4.384   4.998   1.941 -1.2601  0.6461  0.7208
11890TIP3   OH257084   3.289   6.103  14.304  0.0254  0.4705  0.2519
11890TIP3    H157085   3.304   6.140  14.391 -1.1737 -0.4274  0.8659
11890TIP3    H257086   3.264   6.012  14.320 -1.9317  0.7573 -0.9007
11891TIP3   OH257087   0.481   5.058  15.219  0.1331 -0.3704  0.3852
11891TIP3    H157088   0.471   5.111  15.297 -0.3852 -1.6379  1.2133
11891TIP3    H257089   0.414   4.991  15.227  0.4425 -0.8593 -0.8705
11892TIP3   OH257090   5.802   1.532  11.517  0.1841 -0.3969 -0.7893
11892TIP3    H157091   5.739   1.569  11.579  0.3315 -0.2728 -0.7118
11892TIP3    H257092   5.752   1.520  11.436 -0.0315 -0.6500 -0.6167
11893TIP3   OH257093   1.492   6.718   5.778 -0.1910 -0.0255 -0.8134
11893TIP3    H157094   1.582   6.748   5.763 -0.7819  2.3037 -0.1047
11893TIP3    H257095   1.443   6.751   5.702 -0.9907  1.4572  0.3138
11894TIP3   OH257096   5.930   6.344  12.269 -0.0950  0.0462 -0.0134
11894TIP3    H157097   5.858   6.306  12.319 -0.5892  0.0774 -0.6789
11894TIP3    H257098   6.002   6.282  12.280 -0.5437 -0.5140 -0.1687
11895TIP3   OH257099   3.931   0.429  12.657  0.3319 -0.3116  0.2678
11895TIP3    H157100   3.848   0.385  12.672 -0.1944  0.6035  0.1352
11895TIP3    H257101   3.965   0.390  12.577 -0.6498  0.2533 -0.4455
11896TIP3   OH257102   0.754   1.353  16.871  0.2170 -0.1196 -0.5467
11896TIP3    H157103   0.823   1.313  16.818 -0.8393 -2.8804  0.0160
11896TIP3    H257104   0.763   1.313  16.958 -1.4356  0.2541 -0.1614
11897TIP3   OH257105   6.065   1.231   4.096 -0.5544  0.2187  0.0114
11897TIP3    H157106   6.019   1.147   4.102 -1.3187  0.6049 -0.2346
11897TIP3    H257107   6.150   1.215   4.136 -0.5272 -0.7845 -0.4187
11898TIP3   OH257108   6.720   3.830   3.855  1.0018  0.0610 -0.1331
11898TIP3    H157109   6.744   3.921   3.841  1.1062  0.0126 -0.2645
11898TIP3    H257110   6.698   3.796   3.768  3.4148 -0.7498 -0.4995
11899TIP3   OH257111   5.498   6.098  12.659  0.7126 -0.0399 -0.1749
11899TIP3    H157112   5.592   6.099  12.643  0.8137  0.2479  0.4042
11899TIP3    H257113   5.472   6.007  12.643  0.7241  0.2724 -2.2480
11900TIP3   OH257114   3.691   0.714   0.804 -0.0729 -0.2503  0.4164
11900TIP3    H157115   3.662   0.802   0.827 -1.3189 -0.8548  1.3443
11900TIP3    H257116   3.653   0.659   0.873  1.5185 -1.3926  0.4307
11901TIP3   OH257117   5.729   2.622  12.403 -0.0210 -0.1651  0.0942
11901TIP3    H157118   5.691   2.536  12.387  3.4111 -1.9201  0.5088
11901TIP3    H257119   5.705   2.674  12.327 -0.9407 -1.9672 -0.9032
11902TIP3   OH257120   6.391   4.697  16.804  1.1294  0.1299 -0.3434
11902TIP3    H157121   6.331   4.748  16.859  0.7963  0.7593 -1.2760
11902TIP3    H257122   6.421   4.626  16.862 -0.1781  0.0354  0.2747
11903TIP3   OH257123   2.658   6.161  12.396 -0.0726 -0.1344  0.5171
11903TIP3    H157124   2.582   6.205  12.435  0.0776 -0.2230  0.9181
11903TIP3    H257125   2.667   6.080  12.447  0.3087 -0.1085  0.4926
11904TIP3   OH257126   2.954   1.162   3.458  0.2325 -0.1309 -0.3422
11904TIP3    H157127   2.939   1.069   3.473 -0.8182  0.1398  0.3351
11904TIP3    H257128   3.038   1.165   3.410  0.6607 -1.3577  0.2940
11905TIP3   OH257129   4.810   3.377   4.640 -0.2269  0.1205  0.0021
11905TIP3    H157130   4.859   3.458   4.653  0.6756 -0.5362  0.7443
11905TIP3    H257131   4.720   3.406   4.623  0.0078  1.2563  0.6454
11906TIP3   OH257132   1.847   0.258  11.402 -0.2346 -0.0267  0.5433
11906TIP3    H157133   1.784   0.274  11.332  0.5347 -0.6575 -0.3293
11906TIP3    H257134   1.820   0.174  11.439  0.0618 -0.2881  0.1811
11907TIP3   OH257135   1.011   1.323   4.050 -0.0056  0.1408  0.2508
11907TIP3    H157136   1.033   1.416   4.053  1.0778 -0.0994 -0.0056
11907TIP3    H257137   1.079   1.283   3.996 -0.4988 -0.7918  0.2940
11908TIP3   OH257138   2.418   0.999   6.612  0.0792 -0.0517  0.4185
11908TIP3    H157139   2.470   0.969   6.686 -0.7166  0.0035  1.0066
11908TIP3    H257140   2.330   1.012   6.647  0.1740  2.1455 -0.0006
11909TIP3   OH257141   1.322   2.102   3.741 -0.3135 -0.5024 -0.0728
11909TIP3    H157142   1.312   2.104   3.836 -0.2147 -0.4107 -0.0641
11909TIP3    H257143   1.233   2.093   3.707 -0.3595 -0.4133  0.0243
11910TIP3   OH257144   3.380   3.747  14.019  0.4270 -0.2861  0.5792
11910TIP3    H157145   3.369   3.730  14.112  0.8064 -0.0325  0.6725
11910TIP3    H257146   3.469   3.717  13.999  0.4731 -0.0207  0.3769
11911TIP3   OH257147   0.698   3.324   5.463 -0.0289  0.7267 -0.0707
11911TIP3    H157148   0.679   3.383   5.390  0.2308  0.2906 -0.4918
11911TIP3    H257149   0.736   3.246   5.422 -2.1370 -0.5591  0.2535
11912TIP3   OH257150   2.461   0.760   2.379  0.1198  0.1713 -0.0154
11912TIP3    H157151   2.482   0.718   2.462 -0.9932  0.4905  0.4376
11912TIP3    H257152   2.536   0.819   2.363  1.7467 -1.9471 -0.7135
11913TIP3   OH257153   2.983   2.230   1.412  0.4199 -0.5262 -0.2227
11913TIP3    H157154   2.956   2.208   1.501  0.6089 -3.9664 -0.8577
11913TIP3    H257155   3.074   2.201   1.407  0.8823  0.9772 -1.1663
11914TIP3   OH257156   0.541   0.816   6.263 -0.1353  0.6449  0.4753
11914TIP3    H157157   0.535   0.778   6.350 -0.4622 -0.0025  0.1742
11914TIP3    H257158   0.460   0.790   6.219  0.9931 -0.9927 -0.7807
11915TIP3   OH257159   2.766   3.950   0.845 -0.4149 -0.2969  0.3456
11915TIP3    H157160   2.709   4.020   0.811 -0.0660  0.5673  1.4632
11915TIP3    H257161   2.745   3.874   0.791 -1.3326  0.4767 -0.4401
11916TIP3   OH257162   3.409   2.406   2.532  0.0271 -0.6313 -0.1415
11916TIP3    H157163   3.396   2.445   2.618 -0.7064 -0.1510 -0.4559
11916TIP3    H257164   3.327   2.423   2.486  0.6220 -0.3633 -1.1363
11917TIP3   OH257165   2.252   2.119   4.015 -0.1157 -0.7205 -0.5369
11917TIP3    H157166   2.254   2.201   3.966  1.4552 -0.1825  0.3609
11917TIP3    H257167   2.343   2.088   4.014 -0.1756 -1.0833  1.3800
11918TIP3   OH257168   1.106   1.140   0.370 -0.0445 -0.2629 -0.2919
11918TIP3    H157169   1.163   1.085   0.317 -0.9450 -0.1537 -1.4006
11918TIP3    H257170   1.037   1.168   0.311 -0.3579  0.9597  0.6031
11919TIP3   OH257171   3.743   6.319  11.200  0.0614  0.2999  0.1099
11919TIP3    H157172   3.772   6.371  11.125  0.7418 -0.5285 -0.2282
11919TIP3    H257173   3.748   6.378  11.274  0.1937  0.8971 -0.3669
11920TIP3   OH257174   2.038   1.286  16.065 -0.1014 -0.5599  0.3010
11920TIP3    H157175   2.077   1.290  15.978 -1.1323  0.3401 -0.1521
11920TIP3    H257176   1.947   1.313  16.052 -0.5235 -1.2938  1.5196
11921TIP3   OH257177   5.371   1.112   5.118  0.2583  0.2715  0.2567
11921TIP3    H157178   5.382   1.200   5.154 -1.5226  0.8572 -0.4854
11921TIP3    H257179   5.321   1.065   5.185 -0.5172  0.4567 -0.1805
11922TIP3   OH257180   3.262   5.902  12.841 -0.5229  0.7914 -0.2688
11922TIP3    H157181   3.271   5.852  12.761  0.2790 -2.1931  1.5269
11922TIP3    H257182   3.352   5.923  12.866 -0.8178  2.7757 -0.6913
11923TIP3   OH257183   6.241   4.125   3.672 -0.0721 -0.2272 -0.5390
11923TIP3    H157184   6.236   4.042   3.720  0.4351 -0.6972 -1.2810
11923TIP3    H257185   6.160   4.171   3.694  0.4726 -0.0913  1.3681
11924TIP3   OH257186   4.013   2.019  14.780 -0.7773  0.2306  0.1598
11924TIP3    H157187   4.030   2.028  14.873  0.1946 -1.9604  0.2405
11924TIP3    H257188   4.083   1.962  14.747 -1.5829  0.2338 -1.7403
11925TIP3   OH257189   4.673   0.599   4.958 -0.1670 -0.1629 -0.3042
11925TIP3    H157190   4.639   0.654   4.888  1.1513  0.1888 -0.6817
11925TIP3    H257191   4.671   0.510   4.922  1.3419  0.1178 -1.1525
11926TIP3   OH257192   2.524   2.838   4.338 -0.5215 -0.0731  0.1475
11926TIP3    H157193   2.506   2.746   4.317  0.3411 -0.1520 -0.3280
11926TIP3    H257194   2.600   2.834   4.396 -0.5609  0.3320  0.2267
11927TIP3   OH257195   0.673   0.519  16.140  0.6753  0.8808  0.6278
11927TIP3    H157196   0.605   0.585  16.151  0.4675  0.8946 -0.5507
11927TIP3    H257197   0.723   0.550  16.064  0.6285 -0.2628  0.1158
11928TIP3   OH257198   5.926   1.359   1.291 -0.8499 -0.1453  0.7254
11928TIP3    H157199   5.995   1.407   1.337  1.9436 -1.4986 -1.7355
11928TIP3    H257200   5.872   1.427   1.250 -1.1143  0.9452  2.7656
11929TIP3   OH257201   4.926   0.664   0.772  0.3250 -0.7618 -0.2068
11929TIP3    H157202   4.950   0.697   0.859  0.2418 -1.3728  0.0476
11929TIP3    H257203   4.929   0.742   0.716  0.0865 -0.3075  0.3992
11930TIP3   OH257204   1.146   1.657   2.880  0.6708 -0.1391 -0.2185
11930TIP3    H157205   1.070   1.715   2.872  0.2021 -0.3630  2.0127
11930TIP3    H257206   1.205   1.701   2.941  0.7040 -1.5520  0.8404
11931TIP3   OH257207   2.008   3.841  15.470  0.3829  0.2154  0.5656
11931TIP3    H157208   2.085   3.786  15.487  0.1621 -0.0732  0.6292
11931TIP3    H257209   2.034   3.895  15.395  0.0087 -1.1413 -0.5856
11932TIP3   OH257210   3.854   2.977  15.276  0.2576 -0.3309  0.1653
11932TIP3    H157211   3.789   2.921  15.318  0.0399 -0.8655 -0.8722
11932TIP3    H257212   3.831   2.977  15.183  1.2524  0.1273 -0.0998
11933TIP3   OH257213   6.281   1.627   4.235  0.9357  0.0158  0.2263
11933TIP3    H157214   6.301   1.653   4.325  1.3214  0.8042 -0.0663
11933TIP3    H257215   6.189   1.649   4.223  1.0680  0.5800  0.2151
11934TIP3   OH257216   4.153   3.467   4.581 -0.2357 -0.1642  0.0104
11934TIP3    H157217   4.146   3.431   4.669  1.4726 -2.9157 -0.8617
11934TIP3    H257218   4.237   3.513   4.580 -0.8748  1.0564  0.1475
11935TIP3   OH257219   6.215   3.007   1.954  0.1925 -0.1023 -0.4934
11935TIP3    H157220   6.199   3.004   1.859 -1.3488  1.1514 -0.3226
11935TIP3    H257221   6.130   2.988   1.993  0.8579 -0.8090  0.6717
11936TIP3   OH257222   4.509   3.374   0.453  0.3054 -0.1737  0.1160
11936TIP3    H157223   4.511   3.333   0.539  0.5441  0.2818  0.3342
11936TIP3    H257224   4.522   3.467   0.471  0.7831 -0.1271 -0.4464
11937TIP3   OH257225   4.741   2.263   4.017  0.0974  0.8875  0.2150
11937TIP3    H157226   4.765   2.328   4.083 -1.7072  1.6054  0.2094
11937TIP3    H257227   4.650   2.284   3.994  0.8767  1.1739 -3.0883
11938TIP3   OH257228   3.902   4.572   0.608 -0.0499  0.1209  0.2156
11938TIP3    H157229   3.830   4.524   0.649 -0.6942  1.0905  0.2378
11938TIP3    H257230   3.981   4.538   0.652 -0.6299  0.3211  1.4660
11939TIP3   OH257231   2.143   2.426  15.541  0.0842  0.1592 -0.2559
11939TIP3    H157232   2.237   2.436  15.527 -0.3158 -0.1173 -4.2262
11939TIP3    H257233   2.111   2.516  15.551  0.6339  0.2981  0.3571
11940TIP3   OH257234   5.722   5.305  15.076  0.3513  0.4164 -0.1182
11940TIP3    H157235   5.664   5.379  15.058 -1.0664 -0.8457 -0.9880
11940TIP3    H257236   5.699   5.277  15.164 -0.6150 -0.2387 -0.5525
11941TIP3   OH257237   5.916   0.961   4.807  0.0893 -0.2260 -0.1674
11941TIP3    H157238   5.864   1.040   4.825 -0.9602 -1.1058  0.8150
11941TIP3    H257239   6.006   0.987   4.826 -0.3378  0.5135  0.9822
11942TIP3   OH257240   1.971   0.090   5.376  0.4430 -0.1641  0.5215
11942TIP3    H157241   1.962  -0.005   5.369 -1.0782 -0.2787  2.8663
11942TIP3    H257242   1.962   0.121   5.286 -0.7538 -2.1428 -0.1143
11943TIP3   OH257243   6.591   2.352   1.740 -0.2984  0.0572 -0.2375
11943TIP3    H157244   6.621   2.414   1.806  3.8092 -0.5573 -1.2316
11943TIP3    H257245   6.557   2.278   1.790 -0.7498  1.1103  1.0580
11944TIP3   OH257246   3.127   4.622  13.412  0.5707  0.0742 -0.0192
11944TIP3    H157247   3.162   4.556  13.352  2.1317  0.5790  0.2912
11944TIP3    H257248   3.125   4.578  13.497  0.3124  0.0118 -0.0554
11945TIP3   OH257249   6.545   1.957   2.036 -0.2220 -0.1117 -0.2489
11945TIP3    H157250   6.608   1.900   2.078 -0.5896  0.9067  1.8218
11945TIP3    H257251   6.463   1.907   2.036 -0.0080 -0.4644 -0.6118
11946TIP3   OH257252   6.213   4.157  12.550 -0.4183 -0.0780 -0.0344
11946TIP3    H157253   6.286   4.219  12.550 -0.2554 -0.2668 -0.3209
11946TIP3    H257254   6.255   4.071  12.546 -0.5970 -0.2859  1.7734
11947TIP3   OH257255   6.088   2.507   2.645  0.1144 -0.6925 -0.1412
11947TIP3    H157256   6.022   2.568   2.677  0.6532 -0.6042  0.8605
11947TIP3    H257257   6.090   2.521   2.550  1.0717  1.7633  0.1481
11948TIP3   OH257258   3.142   5.194   5.088  0.3774  0.0907  0.1214
11948TIP3    H157259   3.072   5.219   5.028  1.2588  1.1454 -0.5043
11948TIP3    H257260   3.176   5.277   5.122  1.5222 -0.3761  0.1788
11949TIP3   OH257261   6.515   2.703  14.146  0.7397 -0.3303 -0.0865
11949TIP3    H157262   6.473   2.648  14.079 -0.1965  0.8844 -0.5424
11949TIP3    H257263   6.445   2.762  14.175  0.9917 -1.1145  2.3427
11950TIP3   OH257264   0.583   3.781   4.767  0.9861 -0.1651  0.4673
11950TIP3    H157265   0.583   3.868   4.806  1.7309 -0.5071  1.2442
11950TIP3    H257266   0.674   3.768   4.738  0.3293  0.3939 -2.1436
11951TIP3   OH257267   3.533   6.272  10.441 -0.1840 -0.4656 -0.1598
11951TIP3    H157268   3.516   6.191  10.393 -1.9832 -0.1413 -0.1527
11951TIP3    H257269   3.620   6.260  10.478  0.4540 -1.5203 -1.8757
11952TIP3   OH257270   5.299   0.733   3.523  0.0658 -0.3943  0.4210
11952TIP3    H157271   5.250   0.779   3.455  0.6476 -0.0886  0.2036
11952TIP3    H257272   5.330   0.653   3.479  1.8690  0.5923 -0.1997
11953TIP3   OH257273   6.478   0.028   3.373 -0.1474  0.3886 -0.0186
11953TIP3    H157274   6.398   0.047   3.323  0.4934 -0.0745 -1.2409
11953TIP3    H257275   6.542   0.092   3.341 -0.0999  0.9931  1.2111
11954TIP3   OH257276   5.700   4.025   1.670 -0.1389 -0.1361  0.2587
11954TIP3    H157277   5.619   4.048   1.624 -0.0093 -1.0565 -0.4725
11954TIP3    H257278   5.752   3.979   1.604  0.7133 -0.1166  0.9032
11955TIP3   OH257279   5.372   4.086  14.008 -0.7676  0.3435  0.5592
11955TIP3    H157280   5.314   4.160  13.993 -0.9435 -0.0645 -0.9886
11955TIP3    H257281   5.450   4.105  13.955 -0.4184 -0.1252  0.8945
11956TIP3   OH257282   5.654   0.719  15.684 -0.1180 -0.0262  0.0588
11956TIP3    H157283   5.656   0.734  15.590  1.3897 -1.3115 -0.1743
11956TIP3    H257284   5.693   0.632  15.695 -0.2775  0.0832  1.8713
11957TIP3   OH257285   0.483   5.765  15.338 -0.1672 -0.3840 -0.5219
11957TIP3    H157286   0.451   5.686  15.381  1.0442 -1.3609 -1.3325
11957TIP3    H257287   0.487   5.831  15.408 -0.5375 -1.2308  0.3142
11958TIP3   OH257288   1.714   4.197   0.929  0.0230 -0.4301  0.4770
11958TIP3    H157289   1.714   4.247   0.848 -0.5226  1.4548  1.5606
11958TIP3    H257290   1.805   4.167   0.939  0.0416 -0.8627 -0.9063
11959TIP3   OH257291   1.874   3.673  10.770 -0.1227 -0.5436 -0.0476
11959TIP3    H157292   1.968   3.652  10.773 -0.3112 -1.3441  1.3557
11959TIP3    H257293   1.871   3.763  10.739  1.0916 -0.5906 -0.3915
11960TIP3   OH257294   4.407   4.300   4.464 -0.4792  0.1597 -0.2896
11960TIP3    H157295   4.469   4.298   4.391 -1.3071  1.3165 -1.0746
11960TIP3    H257296   4.396   4.394   4.483 -0.5005 -0.1156  1.1407
11961TIP3   OH257297   4.403   1.348  17.048  0.3673 -0.5865  0.0802
11961TIP3    H157298   4.488   1.312  17.075  0.5590  0.5546  1.0818
11961TIP3    H257299   4.343   1.320  17.117  0.7997  2.0964  1.6827
11962TIP3   OH257300   4.679   1.358  11.511  0.0739  0.5891 -0.1377
11962TIP3    H157301   4.654   1.355  11.604 -0.4160 -1.1324 -0.3011
11962TIP3    H257302   4.615   1.416  11.471  0.3451  1.4333  0.5891
11963TIP3   OH257303   2.911   4.240  14.936 -0.2925 -0.3142  0.3488
11963TIP3    H157304   2.918   4.286  14.852  2.0815  1.5027  1.3892
11963TIP3    H257305   2.872   4.304  14.995  0.3284 -0.6790  1.1738
11964TIP3   OH257306   0.067   1.691   6.379  0.2464  0.0082 -0.3583
11964TIP3    H157307  -0.002   1.742   6.421 -0.1576  0.0957 -1.1118
11964TIP3    H257308   0.146   1.743   6.391 -0.4033  1.6177 -2.4203
11965TIP3   OH257309   1.884   0.703   3.575 -0.2567 -0.0119 -0.1956
11965TIP3    H157310   1.919   0.763   3.641  1.0637 -0.3942 -0.5214
11965TIP3    H257311   1.864   0.623   3.623  2.2425 -0.8790 -0.4575
11966TIP3   OH257312   2.997   2.776   1.051  0.1155  0.1165 -0.5311
11966TIP3    H157313   3.030   2.698   1.006 -2.7556 -2.7754  1.8819
11966TIP3    H257314   2.957   2.829   0.982 -1.5117 -2.6706 -1.9089
11967TIP3   OH257315   1.355   5.970   4.625  0.9925  0.1281 -0.1698
11967TIP3    H157316   1.383   5.905   4.560  1.1782 -0.3071  0.3387
11967TIP3    H257317   1.435   6.020   4.644  1.1586 -0.3613  0.4244
11968TIP3   OH257318   4.301   1.831  14.411 -0.1967  0.4288  0.2042
11968TIP3    H157319   4.363   1.793  14.473 -0.8670  0.0447  0.6545
11968TIP3    H257320   4.285   1.919  14.445  1.5579  1.2614 -0.9846
11969TIP3   OH257321   2.054   1.042   4.529 -0.2154 -0.0078 -0.0858
11969TIP3    H157322   1.998   0.964   4.528  1.0332 -0.9403 -0.1808
11969TIP3    H257323   2.005   1.108   4.480 -1.0284 -0.9241 -0.5354
11970TIP3   OH257324   6.013   6.067   2.918  0.0397 -0.1972  0.3270
11970TIP3    H157325   5.945   6.004   2.941 -0.5760  0.4891  0.4161
11970TIP3    H257326   5.987   6.102   2.833  1.6943 -1.8662 -0.9586
11971TIP3   OH257327   6.554   6.101   3.034 -0.1174 -0.5671 -0.1694
11971TIP3    H157328   6.522   6.176   3.084 -0.6318 -1.1703  0.4159
11971TIP3    H257329   6.593   6.140   2.956 -0.1718  0.3253  0.2353
11972TIP3   OH257330   3.248   0.942  15.284 -0.1158 -0.0772 -0.2850
11972TIP3    H157331   3.204   1.019  15.249 -0.9013 -1.1745 -1.8056
11972TIP3    H257332   3.329   0.936  15.234  0.3330  0.1875  0.3883
11973TIP3   OH257333   0.416   0.905  14.995  0.5337  0.0722  0.1219
11973TIP3    H157334   0.356   0.938  14.928  1.3213  1.6122  0.1487
11973TIP3    H257335   0.425   0.976  15.058  0.9501 -0.8224  1.1120
11974TIP3   OH257336   5.735   5.931   4.889 -0.1932 -0.7637 -0.6546
11974TIP3    H157337   5.656   5.930   4.835 -0.7110  1.5519 -0.0488
11974TIP3    H257338   5.704   5.912   4.977  0.2741 -2.0022 -0.7430
11975TIP3   OH257339   4.811   1.899  11.364  0.3867  0.7679  0.2152
11975TIP3    H157340   4.742   1.929  11.305 -0.1682 -0.6188  0.1179
11975TIP3    H257341   4.859   1.979  11.388 -0.4827  1.5864 -0.6860
11976TIP3   OH257342   1.682   5.627  16.463  0.1046 -0.5320  0.0973
11976TIP3    H157343   1.594   5.588  16.464  0.4886 -1.4425  1.2637
11976TIP3    H257344   1.740   5.556  16.491  1.2952 -0.0876 -1.1601
11977TIP3   OH257345   3.840   2.304  15.481  0.3574 -0.0912 -0.4105
11977TIP3    H157346   3.902   2.376  15.468 -1.6381  1.9155  0.7350
11977TIP3    H257347   3.835   2.293  15.576 -0.9852 -0.2522 -0.4870
11978TIP3   OH257348   1.288   5.678   1.501  0.6189  0.5627 -0.4419
11978TIP3    H157349   1.196   5.654   1.506  1.1113 -1.3899  1.2165
11978TIP3    H257350   1.304   5.699   1.409 -0.8642 -1.9181 -1.3628
11979TIP3   OH257351   0.969   6.533   3.815  0.2832 -0.0252  0.4317
11979TIP3    H157352   0.981   6.467   3.747 -0.8400  0.6591 -0.4698
11979TIP3    H257353   1.002   6.492   3.895  1.1190 -1.0491 -0.4143
11980TIP3   OH257354   4.522   4.496   1.250  0.1001  0.1869 -0.0982
11980TIP3    H157355   4.505   4.561   1.318  0.2104  0.6062 -0.4714
11980TIP3    H257356   4.474   4.527   1.174 -0.8100 -0.7831  0.0509
11981TIP3   OH257357   2.002   2.015   5.861  0.0443 -0.1502 -0.0442
11981TIP3    H157358   2.032   2.035   5.950  0.7766  0.5117 -0.4275
11981TIP3    H257359   1.909   1.998   5.871 -0.3215  1.9050  0.5760
11982TIP3   OH257360   2.658   1.008   6.305  0.0371  0.4613  0.0988
11982TIP3    H157361   2.684   0.969   6.222 -1.2757 -1.0670  0.3661
11982TIP3    H257362   2.739   1.015   6.355  0.4461 -1.1057 -0.3023
11983TIP3   OH257363   4.692   4.171   5.129  0.1598 -0.1727 -0.3665
11983TIP3    H157364   4.709   4.145   5.039 -1.6583 -0.2364 -0.7144
11983TIP3    H257365   4.772   4.147   5.176  0.6546 -1.2873 -1.7145
11984TIP3   OH257366   0.823   2.368  11.145 -0.9011 -0.1755  0.2308
11984TIP3    H157367   0.798   2.343  11.056 -0.8881 -0.4459  0.3026
11984TIP3    H257368   0.800   2.292  11.199  3.4950 -2.1292 -0.2101
11985TIP3   OH257369   1.876   3.578  15.448  0.1716  0.1450  0.5717
11985TIP3    H157370   1.960   3.539  15.423  0.3161  1.1701 -0.6339
11985TIP3    H257371   1.901   3.657  15.496 -0.1119 -0.0211  0.9925
11986TIP3   OH257372   4.712   2.027   6.549 -0.2392  0.2766 -0.0667
11986TIP3    H157373   4.748   1.942   6.522  1.5364  0.8417  0.3433
11986TIP3    H257374   4.702   2.075   6.467 -1.2164 -0.3013 -0.2978
11987TIP3   OH257375   1.246   6.515   2.218  0.2319  0.1006 -0.4037
11987TIP3    H157376   1.244   6.578   2.290  1.5408  0.1461 -0.3913
11987TIP3    H257377   1.270   6.566   2.141  2.0699 -0.4597 -0.2559
11988TIP3   OH257378   2.850   0.500  13.261 -0.2482 -0.3604  0.2078
11988TIP3    H157379   2.943   0.506  13.283 -0.0453  1.5496 -0.9717
11988TIP3    H257380   2.841   0.546  13.178 -2.3618  0.1404  0.6425
11989TIP3   OH257381   1.393   1.630   2.115  0.6167 -0.7335 -0.5356
11989TIP3    H157382   1.443   1.675   2.046  1.4773 -2.9468 -1.4494
11989TIP3    H257383   1.451   1.559   2.144 -0.5660 -1.1025  1.0377
11990TIP3   OH257384   3.692   4.575   5.628  0.0549  0.0750 -0.4931
11990TIP3    H157385   3.758   4.506   5.622  0.2087 -0.0737  2.0637
11990TIP3    H257386   3.742   4.654   5.648 -0.1148  1.0641 -3.4088
11991TIP3   OH257387   0.667   2.850   4.699  0.4300 -0.8954 -0.4317
11991TIP3    H157388   0.655   2.899   4.617 -0.7336  1.1787  0.9065
11991TIP3    H257389   0.582   2.811   4.717  0.0527  0.4476  0.8523
11992TIP3   OH257390   1.973   1.228   5.951 -0.0568  0.2083 -0.0771
11992TIP3    H157391   1.913   1.221   5.876 -0.0698  0.2676 -0.0721
11992TIP3    H257392   1.987   1.322   5.962  0.1748  0.1883 -0.1898
11993TIP3   OH257393   6.466   3.966  15.378  0.7305 -0.4075  0.2473
11993TIP3    H157394   6.402   4.016  15.327 -0.9809 -2.0971  0.6032
11993TIP3    H257395   6.457   3.999  15.467  0.7242 -0.2713  0.1957
11994TIP3   OH257396   0.935   1.809   0.796 -0.1181 -0.3596 -0.0283
11994TIP3    H157397   0.905   1.900   0.787 -1.2577 -0.6346  0.7558
11994TIP3    H257398   0.997   1.797   0.725  0.1659  1.0852 -0.0487
11995TIP3   OH257399   1.142   0.604  14.601 -0.0734  0.0378  0.4800
11995TIP3    H157400   1.094   0.570  14.525  3.3341  0.4705 -2.1011
11995TIP3    H257401   1.214   0.542  14.613  0.9952  1.4374  1.6257
11996TIP3   OH257402   5.587   0.653   3.288  0.0023 -0.2270  0.3941
11996TIP3    H157403   5.532   0.613   3.220 -1.6867  0.2477  1.4046
11996TIP3    H257404   5.567   0.747   3.281  1.4422  0.0809  0.1752
11997TIP3   OH257405   2.230   4.846  11.789 -0.3533  0.0525 -0.0288
11997TIP3    H157406   2.190   4.759  11.801 -1.3322  0.6188  0.9265
11997TIP3    H257407   2.239   4.880  11.878 -0.3856  1.1100 -0.4284
11998TIP3   OH257408   6.255   6.329   1.956  0.0558 -0.2618  0.4757
11998TIP3    H157409   6.293   6.328   1.868 -2.3345 -2.0939 -0.6575
11998TIP3    H257410   6.316   6.278   2.009  1.6965  1.1420  0.0254
11999TIP3   OH257411   3.324   1.562  13.741  0.8667  1.0074 -0.2789
11999TIP3    H157412   3.270   1.615  13.682  0.9538  2.6716  1.0890
11999TIP3    H257413   3.283   1.571  13.827  1.6327 -0.1310  0.2350
12000TIP3   OH257414   2.023   2.084  12.023 -0.4272 -0.2887 -0.1496
12000TIP3    H157415   2.007   1.996  11.989  2.1889 -0.8933 -0.0436
12000TIP3    H257416   1.997   2.143  11.951 -1.0888 -1.2022 -0.6711
12001TIP3   OH257417   5.882   0.899   6.672  0.0874 -0.9086  0.0482
12001TIP3    H157418   5.956   0.839   6.679  0.6753 -0.0792  1.2497
12001TIP3    H257419   5.826   0.877   6.747  1.0458  0.9712  1.3986
12002TIP3   OH257420   1.085   3.750  12.632 -0.2336 -0.4396  0.1447
12002TIP3    H157421   1.048   3.838  12.634 -0.7399 -0.6459  0.0897
12002TIP3    H257422   1.016   3.694  12.669 -0.2880 -0.9340 -0.6710
12003TIP3   OH257423   5.393   3.216   2.178 -0.2230 -0.2203 -0.0929
12003TIP3    H157424   5.399   3.311   2.168  0.3944 -0.1792  0.6439
12003TIP3    H257425   5.350   3.204   2.262 -0.5540 -0.6021 -0.3110
12004TIP3   OH257426   2.601   5.583  12.407  0.2665  0.1153  0.7346
12004TIP3    H157427   2.579   5.540  12.490  0.9965 -0.0162  0.8687
12004TIP3    H257428   2.646   5.516  12.356 -0.4222  0.1131  0.1106
12005TIP3   OH257429   0.414   0.267  13.317  0.0305  0.0537  0.5554
12005TIP3    H157430   0.486   0.330  13.323 -0.1707  0.2230  1.2376
12005TIP3    H257431   0.362   0.298  13.243 -0.0591  0.6762  0.8796
12006TIP3   OH257432   4.708   0.796   4.575 -0.0647 -0.0246  0.5002
12006TIP3    H157433   4.617   0.801   4.602 -0.1645 -2.7687  1.0260
12006TIP3    H257434   4.756   0.848   4.639 -1.0724 -0.2203  1.4386
12007TIP3   OH257435   2.496   1.400  13.352 -0.4192  0.0353 -0.2681
12007TIP3    H157436   2.578   1.450  13.352 -0.4969  0.1720  0.5985
12007TIP3    H257437   2.432   1.460  13.312 -0.4356  0.5093  0.4610
12008TIP3   OH257438   5.597   2.686   3.786 -0.0937 -0.3079  0.0095
12008TIP3    H157439   5.623   2.597   3.763 -1.8467 -1.3953  1.9284
12008TIP3    H257440   5.679   2.733   3.796  0.9965 -2.3518  1.3683
12009TIP3   OH257441   0.940   0.046  14.158  0.0673 -0.3918 -0.2185
12009TIP3    H157442   0.930   0.111  14.089  2.0553  2.3179  1.8130
12009TIP3    H257443   1.021   0.000  14.137  1.0145  0.8675  0.5516
12010TIP3   OH257444   5.513   4.777  15.265 -0.0861 -0.1789  0.0680
12010TIP3    H157445   5.488   4.695  15.223 -0.3065 -0.4426  0.7051
12010TIP3    H257446   5.503   4.760  15.359  0.6324  0.3192  0.2444
12011TIP3   OH257447   6.621   6.723   2.856 -0.2649  0.1064  0.0152
12011TIP3    H157448   6.681   6.715   2.782 -0.8723 -0.8443 -0.4048
12011TIP3    H257449   6.541   6.678   2.827 -1.0372  0.9966  0.7040
12012TIP3   OH257450   6.582   5.306  11.985  0.0765 -0.1865 -0.2143
12012TIP3    H157451   6.595   5.353  11.902  1.5185 -0.8968 -0.4283
12012TIP3    H257452   6.521   5.236  11.964  0.5267 -0.4370 -0.7126
12013TIP3   OH257453   5.758   5.808  15.805  0.2170 -0.1930 -0.1452
12013TIP3    H157454   5.798   5.894  15.795 -1.2264  0.6914  1.1454
12013TIP3    H257455   5.733   5.804  15.898 -0.3166 -1.7505 -0.3212
12014TIP3   OH257456   3.523   4.348  11.259 -1.2120  0.4010  0.0907
12014TIP3    H157457   3.436   4.377  11.288 -1.4123  0.5590 -0.6397
12014TIP3    H257458   3.523   4.364  11.164  0.4528  2.6108  0.3805
12015TIP3   OH257459   0.771   2.562   2.893 -0.1087  0.0827  0.3753
12015TIP3    H157460   0.761   2.603   2.808  0.0282 -0.8520 -0.1089
12015TIP3    H257461   0.738   2.473   2.880  2.0847 -0.8359  0.6439
12016TIP3   OH257462   0.509   2.546  11.031 -0.0264 -0.1529  0.2814
12016TIP3    H157463   0.545   2.480  11.091 -0.1960 -1.0406 -0.5743
12016TIP3    H257464   0.414   2.531  11.034 -0.0131 -0.4236 -0.4507
12017TIP3   OH257465   0.750   4.483  12.200 -0.1074 -0.1569 -0.0351
12017TIP3    H157466   0.787   4.396  12.215 -1.6360 -0.8141  0.1509
12017TIP3    H257467   0.766   4.530  12.283 -2.4762 -1.5136  1.2882
12018TIP3   OH257468   6.546   6.329   1.218  0.3756  0.2137 -0.0118
12018TIP3    H157469   6.459   6.312   1.253  1.2996 -0.5797  2.0465
12018TIP3    H257470   6.603   6.266   1.262  2.0037  0.7100 -1.3018
12019TIP3   OH257471   2.617   4.452  13.362 -0.2156 -0.5823  0.0437
12019TIP3    H157472   2.616   4.524  13.426 -2.0224 -0.3930 -0.1401
12019TIP3    H257473   2.608   4.373  13.415 -0.2492 -0.5307  0.1153
12020TIP3   OH257474   0.675   5.858  14.090  0.3532  0.6644 -0.0879
12020TIP3    H157475   0.680   5.916  14.014 -1.4907  3.6226  1.8248
12020TIP3    H257476   0.581   5.850  14.107  0.7120  0.1919  1.9091
12021TIP3   OH257477   5.500   6.199  14.910  0.1096 -0.4460  0.2940
12021TIP3    H157478   5.507   6.242  14.995  0.1218  1.4808 -0.6171
12021TIP3    H257479   5.411   6.218  14.880  1.3309  2.7709 -1.9385
12022TIP3   OH257480   3.644   6.750   4.995 -0.1128 -0.4251 -0.1092
12022TIP3    H157481   3.599   6.806   4.932  2.3328  0.1824 -1.4247
12022TIP3    H257482   3.721   6.718   4.948  0.5642 -1.8435  1.8496
12023TIP3   OH257483   2.428   0.023   5.220  0.5769 -0.3977  0.0787
12023TIP3    H157484   2.518   0.052   5.207  0.6574 -0.8076 -0.2813
12023TIP3    H257485   2.381   0.055   5.142  0.2216  0.5501  0.6549
12024TIP3   OH257486   4.234   1.832  11.989 -0.3253 -0.3445 -0.0689
12024TIP3    H157487   4.219   1.745  12.026  0.5458  0.1170  1.4607
12024TIP3    H257488   4.296   1.818  11.917 -1.5265 -1.1754 -0.9848
12025TIP3   OH257489   3.253   3.353  14.259 -0.2270 -0.6636  0.4268
12025TIP3    H157490   3.273   3.399  14.341 -1.5448 -1.8526  1.4891
12025TIP3    H257491   3.160   3.372  14.244 -0.0416 -0.6231 -0.6814
12026TIP3   OH257492   0.565   4.116   1.776  0.5293  0.5240 -0.2402
12026TIP3    H157493   0.496   4.174   1.744 -0.4387  0.0249  0.8828
12026TIP3    H257494   0.519   4.045   1.819  1.7261  1.3351  2.6145
12027TIP3   OH257495   5.564   6.648   4.357 -0.0234  0.2486 -0.0077
12027TIP3    H157496   5.472   6.676   4.351 -0.2579 -0.5022 -0.0320
12027TIP3    H257497   5.559   6.557   4.385  0.5916 -0.7464 -2.8502
12028TIP3   OH257498   4.039   5.347  13.113 -0.1549 -0.2333  0.5195
12028TIP3    H157499   3.956   5.348  13.160 -1.0404  0.6050 -1.0101
12028TIP3    H257500   4.017   5.316  13.025  1.6169 -2.7018  0.8298
12029TIP3   OH257501   3.463   5.256   1.285 -0.5008 -0.0125  0.4411
12029TIP3    H157502   3.508   5.334   1.315 -1.2655  0.1594  1.1689
12029TIP3    H257503   3.450   5.203   1.364  1.0156 -1.4288 -0.1819
12030TIP3   OH257504   4.834   3.873   1.509  0.0975  0.0664  0.3707
12030TIP3    H157505   4.900   3.853   1.442 -0.5204  0.0542 -0.2477
12030TIP3    H257506   4.769   3.927   1.464 -1.6310 -1.9673  0.2277
12031TIP3   OH257507   0.435   2.787  10.736  0.2559 -0.2807  0.4329
12031TIP3    H157508   0.515   2.740  10.759  0.4505  0.9850  2.5688
12031TIP3    H257509   0.462   2.847  10.667  0.2175 -2.4651 -1.6318
12032TIP3   OH257510   6.638   1.051   2.391 -0.3458  0.4572  0.3756
12032TIP3    H157511   6.710   0.992   2.366 -0.4087  0.3346  0.4852
12032TIP3    H257512   6.635   1.115   2.320 -1.2985 -0.5616 -0.5491
12033TIP3   OH257513   6.205   3.330  13.244 -0.1707  0.2064 -0.0686
12033TIP3    H157514   6.258   3.409  13.258  0.4458 -0.0595 -0.8225
12033TIP3    H257515   6.268   3.264  13.214 -0.3792 -1.0703  2.0755
12034TIP3   OH257516   2.824   3.448  13.855  0.8382 -0.2145  0.3081
12034TIP3    H157517   2.901   3.413  13.811  1.0866 -0.4371  0.9132
12034TIP3    H257518   2.797   3.522  13.800  2.2755  0.7183  0.7813
12035TIP3   OH257519   3.378   2.539   3.707 -0.0219  0.4546 -0.1951
12035TIP3    H157520   3.395   2.506   3.618 -1.7788 -0.0629 -0.3803
12035TIP3    H257521   3.372   2.634   3.697 -1.1858  0.3278 -0.8275
12036TIP3   OH257522   2.752   2.128   4.499  0.0633 -0.4982 -0.0053
12036TIP3    H157523   2.813   2.144   4.427 -2.3748  3.9899 -1.4392
12036TIP3    H257524   2.689   2.065   4.464  0.1379 -0.0173 -1.0513
12037TIP3   OH257525   2.014   6.400   2.249 -0.1737  0.4129  0.1554
12037TIP3    H157526   1.936   6.450   2.225 -1.8405 -1.3419  1.5486
12037TIP3    H257527   2.016   6.328   2.186  2.3716  2.2136 -2.0200
12038TIP3   OH257528   2.453   1.786  16.245  0.1180  0.4814 -0.1258
12038TIP3    H157529   2.493   1.799  16.159  1.8283  0.1540  0.5880
12038TIP3    H257530   2.423   1.695  16.244 -0.4463  0.6691 -0.5986
12039TIP3   OH257531   3.065   2.720  14.240  0.0382  0.4017  0.4429
12039TIP3    H157532   3.087   2.806  14.276  1.0143  0.3278  0.0525
12039TIP3    H257533   2.978   2.733  14.201  0.4100  1.3802 -0.1159
12040TIP3   OH257534   3.195   2.578  11.740 -0.0030  0.6938 -0.3309
12040TIP3    H157535   3.260   2.549  11.804  0.6475  0.3052 -1.1445
12040TIP3    H257536   3.117   2.527  11.761  0.6568 -0.5385 -0.7578
12041TIP3   OH257537   5.696   1.556   0.757  0.3099 -0.7361  0.3121
12041TIP3    H157538   5.629   1.609   0.714  0.3812 -1.9017 -1.3421
12041TIP3    H257539   5.676   1.563   0.850 -1.6037 -0.3781 -0.0871
12042TIP3   OH257540   6.595   3.789  11.658  0.0036 -0.3881 -0.0845
12042TIP3    H157541   6.591   3.800  11.753 -0.9934 -0.8393 -0.0593
12042TIP3    H257542   6.505   3.802  11.628  0.3609  0.1006 -1.0173
12043TIP3   OH257543   3.833   3.800   1.786  0.3955  0.7682  0.5379
12043TIP3    H157544   3.848   3.781   1.693  0.4758  1.2859  0.4403
12043TIP3    H257545   3.879   3.731   1.832  2.0137  1.5769  0.2170
12044TIP3   OH257546   2.823   4.901   4.210 -0.2035  0.0234  0.7615
12044TIP3    H157547   2.881   4.965   4.167 -1.1747 -0.2053 -0.9853
12044TIP3    H257548   2.883   4.835   4.246  0.6751 -0.1658 -0.9284
12045TIP3   OH257549   4.653   2.533   1.335  0.2381  0.1301  0.2916
12045TIP3    H157550   4.604   2.564   1.259 -1.3098  1.3595  1.7292
12045TIP3    H257551   4.633   2.439   1.340  0.6370 -0.0394 -0.9777
12046TIP3   OH257552   1.716   1.040  12.102 -0.0232  0.2002  0.0723
12046TIP3    H157553   1.742   1.112  12.045 -2.2225  0.2504 -0.9576
12046TIP3    H257554   1.744   1.068  12.190  2.8547  0.3940 -0.8033
12047TIP3   OH257555   6.301   5.747  10.419 -0.5268  0.0090 -0.1643
12047TIP3    H157556   6.229   5.752  10.482  0.2055 -0.9385  0.7885
12047TIP3    H257557   6.371   5.800  10.458 -0.7798  1.2042 -1.2430
12048TIP3   OH257558   5.366   5.782  13.388  0.4748  0.0265 -0.0367
12048TIP3    H157559   5.418   5.795  13.467  0.7564 -1.0492 -0.0268
12048TIP3    H257560   5.431   5.766  13.319  0.1900 -0.4197 -0.2060
12049TIP3   OH257561   3.503   2.225   3.047 -0.1869 -0.0960  0.4003
12049TIP3    H157562   3.560   2.279   2.993  0.7262 -0.8368  0.5833
12049TIP3    H257563   3.542   2.230   3.135 -2.2254  1.9231  1.2826
12050TIP3   OH257564   5.265   5.273   1.542  0.1234  0.2780 -0.1083
12050TIP3    H157565   5.206   5.251   1.470 -1.3912  2.2283  0.4483
12050TIP3    H257566   5.235   5.359   1.571  2.0221  0.4417  1.5116
12051TIP3   OH257567   2.766   4.130  13.718 -0.8605  0.3139 -0.2609
12051TIP3    H157568   2.797   4.220  13.719  0.3337 -0.0798 -0.1724
12051TIP3    H257569   2.829   4.084  13.662 -0.8076 -0.6786  0.5810
12052TIP3   OH257570   5.673   3.086   5.554 -0.0954  0.0495 -0.2756
12052TIP3    H157571   5.660   2.993   5.534 -2.2430 -0.1979  1.8199
12052TIP3    H257572   5.594   3.129   5.519  0.7636  1.0923 -1.0153
12053TIP3   OH257573   5.553   6.048   5.544  0.4916  0.0650 -0.1071
12053TIP3    H157574   5.460   6.067   5.526  0.7343 -0.0278 -1.6600
12053TIP3    H257575   5.600   6.094   5.474  1.4248 -2.1372 -1.0019
12054TIP3   OH257576   6.451   5.565  16.506  0.5713  0.0427 -0.2075
12054TIP3    H157577   6.424   5.476  16.528 -0.3881  0.3401 -0.1702
12054TIP3    H257578   6.534   5.553  16.459  0.3754 -0.8789 -0.3386
12055TIP3   OH257579   5.887   0.885  12.936  0.2000 -0.1871  0.2014
12055TIP3    H157580   5.826   0.948  12.898  0.6696 -0.2929 -0.7647
12055TIP3    H257581   5.912   0.923  13.020  0.6048  1.0082 -0.4304
12056TIP3   OH257582   2.875   2.653  14.861 -0.2761  0.7189  0.3752
12056TIP3    H157583   2.835   2.600  14.929 -0.3878  1.1599  0.6554
12056TIP3    H257584   2.887   2.593  14.788  0.4257  0.0935  1.0013
12057TIP3   OH257585   2.182   0.453  11.319 -0.4574  0.2566  0.3110
12057TIP3    H157586   2.135   0.375  11.291 -0.1817 -0.4867  1.8233
12057TIP3    H257587   2.120   0.525  11.306 -1.9450 -0.6519  1.9758
12058TIP3   OH257588   0.593   0.823   0.593 -0.2221  0.1447 -0.1227
12058TIP3    H157589   0.660   0.765   0.630  1.2294  0.7787 -1.6132
12058TIP3    H257590   0.527   0.764   0.557  0.4053 -0.5411 -0.1610
12059TIP3   OH257591   2.546   0.434  13.507 -0.4607 -0.0094 -0.5634
12059TIP3    H157592   2.576   0.380  13.434  0.3104 -0.5317  0.1142
12059TIP3    H257593   2.515   0.514  13.467  0.2590 -0.1572 -1.4499
12060TIP3   OH257594   5.058   4.300   4.667 -0.1931 -0.0085  0.1117
12060TIP3    H157595   5.132   4.239   4.660  1.3559  1.3809  2.6554
12060TIP3    H257596   4.981   4.248   4.645  1.2808 -2.1806 -0.2165
12061TIP3   OH257597   0.168   0.404   3.748 -0.6971 -0.1804  0.1790
12061TIP3    H157598   0.147   0.485   3.702  0.0249  0.3413  0.7554
12061TIP3    H257599   0.096   0.392   3.810 -1.2251 -0.4270 -0.4667
12062TIP3   OH257600   1.793   0.141   1.441  0.0806 -0.5092  0.0192
12062TIP3    H157601   1.774   0.233   1.422  0.1889 -0.7826 -1.5413
12062TIP3    H257602   1.859   0.144   1.511 -1.8956  0.5045  1.9786
12063TIP3   OH257603   1.288   2.014   5.494  0.6011  0.1292 -0.2780
12063TIP3    H157604   1.378   2.016   5.462  0.2980  2.0976 -1.1443
12063TIP3    H257605   1.241   1.957   5.433  1.3688 -1.6330  0.6778
12064TIP3   OH257606   1.406   0.310  14.875 -0.2376  0.5973  0.0642
12064TIP3    H157607   1.473   0.331  14.810 -0.5594  1.9346  0.1385
12064TIP3    H257608   1.405   0.386  14.933 -1.5470  0.4243  0.2835
12065TIP3   OH257609   5.810   4.695   0.497  0.1452  0.2056  0.3353
12065TIP3    H157610   5.900   4.669   0.514 -0.3043 -0.1596  2.6010
12065TIP3    H257611   5.805   4.786   0.526 -0.3525  0.0015  0.9357
12066TIP3   OH257612   3.032   0.145  16.238 -0.5699 -0.1869 -0.4629
12066TIP3    H157613   3.006   0.085  16.308  0.9034  0.0918  0.3760
12066TIP3    H257614   3.079   0.091  16.175 -0.5490 -0.1674 -0.4638
12067TIP3   OH257615   3.048   5.287  16.495  0.4556 -0.0698 -0.5727
12067TIP3    H157616   3.077   5.213  16.548  1.3470 -0.1500 -1.1492
12067TIP3    H257617   3.079   5.365  16.542 -3.9281  0.2966  2.2344
12068TIP3   OH257618   0.283   5.066   1.279 -0.0547  0.0171 -0.5375
12068TIP3    H157619   0.279   5.149   1.325 -1.8616  0.2270 -1.0165
12068TIP3    H257620   0.194   5.032   1.281  0.3688 -1.2663 -1.5191
12069TIP3   OH257621   5.176   5.594   1.408 -0.9898 -0.2298 -0.3208
12069TIP3    H157622   5.115   5.597   1.335 -1.1557  0.4375 -0.1600
12069TIP3    H257623   5.127   5.627   1.483 -0.8904 -1.1155  0.1509
12070TIP3   OH257624   0.907   6.500   1.212 -0.1430  0.5656  0.5764
12070TIP3    H157625   0.996   6.465   1.206 -0.9569 -1.5735  0.1445
12070TIP3    H257626   0.904   6.542   1.298  1.3859  1.0474  0.4297
12071TIP3   OH257627   3.642   6.723   5.621  0.1804  0.3414 -0.3942
12071TIP3    H157628   3.735   6.708   5.603  0.4955  2.3609 -0.7963
12071TIP3    H257629   3.619   6.659   5.688  1.6301 -0.7618 -0.9019
12072TIP3   OH257630   3.131   4.588  15.649 -0.2451 -0.5541 -0.2318
12072TIP3    H157631   3.045   4.631  15.646 -0.4061 -0.6760  1.5189
12072TIP3    H257632   3.132   4.531  15.572 -0.9487  0.8430 -1.3273
12073TIP3   OH257633   0.143   4.536  12.521  0.4214 -0.1920  0.2615
12073TIP3    H157634   0.198   4.606  12.556  0.2886 -0.2524  0.6012
12073TIP3    H257635   0.183   4.513  12.437 -1.9298  3.3078 -2.1294
12074TIP3   OH257636   2.702   3.197  16.188  0.0750  0.0255 -0.6938
12074TIP3    H157637   2.652   3.261  16.238 -0.0589  0.1090 -0.9358
12074TIP3    H257638   2.638   3.134  16.158 -0.2796  1.3792 -2.9843
12075TIP3   OH257639   6.235   6.144   4.950  0.8833  0.1010  0.4260
12075TIP3    H157640   6.275   6.230   4.940 -0.9470  0.8429 -1.1867
12075TIP3    H257641   6.246   6.102   4.864  2.1087 -1.4997  1.2957
12076TIP3   OH257642   0.974   6.714   2.667  0.6517 -0.1515 -0.1580
12076TIP3    H157643   0.939   6.649   2.728 -1.1292  2.2344  1.5343
12076TIP3    H257644   0.906   6.725   2.601  0.6748  0.4007 -0.0958
12077TIP3   OH257645   1.134   2.076  14.868 -0.0771 -0.0833 -0.0640
12077TIP3    H157646   1.228   2.059  14.878 -0.3258 -1.5735 -0.0791
12077TIP3    H257647   1.092   1.995  14.897 -1.3998  0.8459  0.7252
12078TIP3   OH257648   1.320   0.779   3.854 -1.0889  0.4520  0.0606
12078TIP3    H157649   1.226   0.771   3.842 -1.2868  0.7988  1.2182
12078TIP3    H257650   1.338   0.872   3.844 -0.8414  0.3635 -0.3320
12079TIP3   OH257651   3.595   5.614   1.649 -0.3281  0.3657  0.3362
12079TIP3    H157652   3.558   5.701   1.639 -0.2629  0.4788  1.0370
12079TIP3    H257653   3.635   5.614   1.736  0.9949  0.1252 -0.2424
12080TIP3   OH257654   3.600   4.519  11.738  0.7638 -0.2644  0.6009
12080TIP3    H157655   3.647   4.587  11.688 -0.1465 -0.0066  0.0621
12080TIP3    H257656   3.669   4.474  11.788  1.6084 -0.0300 -0.3079
12081TIP3   OH257657   3.135   5.270  15.062  0.4518  0.6268 -0.0290
12081TIP3    H157658   3.175   5.278  14.976 -0.7955 -0.3759 -0.7369
12081TIP3    H257659   3.164   5.349  15.109  1.3742  1.0547 -1.2469
12082TIP3   OH257660   3.864   0.678   4.296 -0.4236 -0.0897  0.0580
12082TIP3    H157661   3.913   0.760   4.290  0.1537 -0.4462 -0.1917
12082TIP3    H257662   3.786   0.693   4.241  0.3816 -0.1906 -1.1525
12083TIP3   OH257663   6.435   6.054  13.115  0.5643 -0.1610  0.3624
12083TIP3    H157664   6.446   5.961  13.136  0.5199 -0.5330 -1.1352
12083TIP3    H257665   6.486   6.066  13.034  0.0408  0.9673  0.1904
12084TIP3   OH257666   4.279   5.341   3.607  0.0034  0.2501  0.0924
12084TIP3    H157667   4.346   5.274   3.620  1.4245  1.8712  1.6382
12084TIP3    H257668   4.212   5.320   3.673  0.2088  0.0998  0.2531
12085TIP3   OH257669   0.064   0.586  16.942  0.1176 -0.1909  0.3301
12085TIP3    H157670   0.070   0.493  16.921 -0.4520  0.1060 -1.2877
12085TIP3    H257671   0.111   0.630  16.872 -2.8677  0.9278 -1.1398
12086TIP3   OH257672   3.475   0.214   0.991 -0.2020 -0.2476  0.1183
12086TIP3    H157673   3.539   0.208   1.062  0.3624 -0.4137 -0.3933
12086TIP3    H257674   3.528   0.232   0.913 -0.8365  0.1546 -0.2230
12087TIP3   OH257675   6.183   6.447  13.326 -0.3285 -0.3964  0.2252
12087TIP3    H157676   6.122   6.405  13.265 -1.4767  3.8353 -1.9367
12087TIP3    H257677   6.269   6.428  13.290 -0.9558  1.4124 -2.5115
12088TIP3   OH257678   3.088   3.304   5.153 -0.5875  0.0820  0.2848
12088TIP3    H157679   3.039   3.279   5.074  0.7486  0.3329 -0.6508
12088TIP3    H257680   3.159   3.240   5.159 -0.4857  0.2610  1.1077
12089TIP3   OH257681   5.437   1.238   3.550 -0.3700  0.0495  0.2871
12089TIP3    H157682   5.505   1.178   3.520 -1.0446  0.2564 -1.7744
12089TIP3    H257683   5.422   1.212   3.641  0.9771 -1.3830  0.1491
12090TIP3   OH257684   3.030   4.936  11.682 -0.0884 -0.2310  0.1676
12090TIP3    H157685   3.028   5.029  11.659 -1.1254 -0.1788  0.4352
12090TIP3    H257686   3.070   4.893  11.607  0.8131  0.4804  0.2256
12091TIP3   OH257687   6.609   2.717  11.538 -0.1181 -0.4835 -0.1364
12091TIP3    H157688   6.686   2.667  11.566 -0.8153 -2.3070 -1.2491
12091TIP3    H257689   6.535   2.662  11.564 -1.0202  0.8851  0.2564
12092TIP3   OH257690   3.119   4.105   0.844 -0.3564 -0.4860 -0.1824
12092TIP3    H157691   3.168   4.080   0.765  0.1860  0.1700 -0.0571
12092TIP3    H257692   3.136   4.198   0.855 -0.3333 -0.5944  0.7855
12093TIP3   OH257693   5.858   5.237   5.191  0.2027 -0.4725  0.0478
12093TIP3    H157694   5.830   5.284   5.270  0.1518 -1.8006  0.8381
12093TIP3    H257695   5.909   5.163   5.223  1.5455 -0.1703 -1.2404
12094TIP3   OH257696   2.188   3.767   6.375  0.6889 -0.3667 -0.4484
12094TIP3    H157697   2.247   3.842   6.372  0.6786 -0.3671 -0.7791
12094TIP3    H257698   2.128   3.781   6.301  0.0948 -0.2187  0.0566
12095TIP3   OH257699   2.720   3.905  12.251 -0.0251 -0.3868 -0.0045
12095TIP3    H157700   2.659   3.933  12.182 -2.0451 -0.9294  1.4714
12095TIP3    H257701   2.720   3.978  12.313 -1.3856 -1.4511  1.3474
12096TIP3   OH257702   3.394   4.977   0.326 -0.4988 -0.0050  0.0672
12096TIP3    H157703   3.472   4.958   0.377  0.4984 -0.9678 -1.7112
12096TIP3    H257704   3.370   5.067   0.351  1.1096  0.2630  0.7348
12097TIP3   OH257705   2.306   0.982  16.957  0.1589  0.2357  0.1513
12097TIP3    H157706   2.380   0.938  16.999  0.2765 -0.3723 -0.6773
12097TIP3    H257707   2.229   0.947  17.002  0.2973 -0.2328  0.0326
12098TIP3   OH257708   0.573   4.616  11.739 -0.0876  0.0509 -0.2660
12098TIP3    H157709   0.572   4.543  11.676 -0.1130  0.6619 -0.9928
12098TIP3    H257710   0.658   4.608  11.783 -0.7134 -1.3029  0.7395
12099TIP3   OH257711   1.059   3.955  12.418 -0.1420  0.4740  0.3587
12099TIP3    H157712   1.063   3.863  12.393  0.8200  0.3414  0.9614
12099TIP3    H257713   0.968   3.980  12.404 -0.5531 -0.7379  0.7653
12100TIP3   OH257714   1.673   2.036   0.450 -0.1067 -0.7778  0.7503
12100TIP3    H157715   1.639   2.051   0.538 -1.0122 -1.9392  0.6129
12100TIP3    H257716   1.619   1.966   0.414  0.0488 -0.1241 -0.8569
12101TIP3   OH257717   1.848   3.819   2.793 -0.0296 -0.0860 -0.3343
12101TIP3    H157718   1.943   3.810   2.800 -0.0823  0.2028  0.8734
12101TIP3    H257719   1.816   3.731   2.774  0.4682 -0.2011 -0.6379
12102TIP3   OH257720   3.262   1.737   0.454  0.0270  0.0153 -0.0419
12102TIP3    H157721   3.294   1.769   0.370 -0.7036 -0.0549 -0.3562
12102TIP3    H257722   3.294   1.800   0.518  0.3165  0.2458 -0.4133
12103TIP3   OH257723   4.890   5.094  10.737 -0.0921  0.6328  0.1987
12103TIP3    H157724   4.962   5.076  10.676 -0.6161  0.7049 -0.4479
12103TIP3    H257725   4.898   5.025  10.803  0.9978  1.0518  0.5304
12104TIP3   OH257726   0.974   4.898   4.557 -0.4350  0.4927 -0.3248
12104TIP3    H157727   0.944   4.982   4.522 -0.3122  1.2068  1.2102
12104TIP3    H257728   0.917   4.833   4.517 -2.1159  1.5447  0.2730
12105TIP3   OH257729   2.297   1.792  15.470 -0.5466  0.5353 -0.8009
12105TIP3    H157730   2.302   1.888  15.465  2.0990  0.7884  2.8807
12105TIP3    H257731   2.251   1.774  15.552  1.8271 -1.1914  0.2564
12106TIP3   OH257732   6.437   0.917  13.635 -0.3898 -0.6100 -0.3803
12106TIP3    H157733   6.526   0.910  13.668 -0.6533 -1.2887  0.2109
12106TIP3    H257734   6.382   0.913  13.713 -0.9262  0.3275 -0.6903
12107TIP3   OH257735   4.119   3.990   3.829 -0.1243 -0.0753  0.2590
12107TIP3    H157736   4.054   3.932   3.869 -1.0764  0.0289 -1.0792
12107TIP3    H257737   4.068   4.051   3.776  1.0707 -0.2120 -1.1294
12108TIP3   OH257738   0.920   5.965   0.111  0.4518 -0.1055  0.8258
12108TIP3    H157739   0.915   5.881   0.066  0.5632  0.5272 -0.3811
12108TIP3    H257740   0.830   5.996   0.113  0.5460  0.1945  0.4109
12109TIP3   OH257741   3.946   4.723  11.700  0.2442  0.2661  0.2383
12109TIP3    H157742   3.939   4.789  11.631  1.5959 -0.6037 -0.7888
12109TIP3    H257743   3.961   4.773  11.780 -0.8095  1.2712 -0.1769
12110TIP3   OH257744   0.998   5.884  11.891 -0.1475  0.2680 -0.2600
12110TIP3    H157745   1.005   5.946  11.819  0.8259  0.9385  0.3896
12110TIP3    H257746   0.944   5.813  11.857  0.2919  0.5751 -1.6324
12111TIP3   OH257747   3.038   0.986  16.676 -0.0455  0.0771 -0.6424
12111TIP3    H157748   3.036   0.904  16.627  0.5766  0.1655 -0.8192
12111TIP3    H257749   3.131   1.003  16.692 -0.1709  0.6906 -0.5142
12112TIP3   OH257750   3.883   2.827   4.342 -0.0772 -0.7935  0.1544
12112TIP3    H157751   3.935   2.748   4.351  1.9769  0.3917 -0.6016
12112TIP3    H257752   3.897   2.875   4.424  2.2903  0.7424 -1.0481
12113TIP3   OH257753   3.089   2.584  10.760 -0.2529 -0.1541  0.6576
12113TIP3    H157754   3.117   2.511  10.815  0.6352 -0.7348 -0.4980
12113TIP3    H257755   3.074   2.544  10.674 -0.7994  0.8546  0.2658
12114TIP3   OH257756   5.262   6.757   2.510  0.1023 -0.6903 -0.1598
12114TIP3    H157757   5.230   6.843   2.537  1.9563 -0.1102  0.3567
12114TIP3    H257758   5.189   6.719   2.461 -1.1277  0.7507  0.4520
12115TIP3   OH257759   1.201   1.276  16.912  0.2193  0.3395 -0.6674
12115TIP3    H157760   1.254   1.240  16.841 -0.4954  0.1510 -1.1150
12115TIP3    H257761   1.236   1.364  16.926 -0.3391  0.7900 -1.9974
12116TIP3   OH257762   0.387   3.493  15.402  0.0918 -0.0956  0.2123
12116TIP3    H157763   0.362   3.418  15.349 -2.1376 -0.6986  1.9537
12116TIP3    H257764   0.481   3.505  15.385 -0.1165 -1.4034 -2.3178
12117TIP3   OH257765   3.762   1.874  16.615 -0.1409 -0.2589  0.2619
12117TIP3    H157766   3.702   1.923  16.671 -0.5705 -2.1595  1.5539
12117TIP3    H257767   3.769   1.788  16.656  1.2464 -1.0325 -1.4436
12118TIP3   OH257768   6.194   0.012   4.450 -0.8266  0.6322 -0.1298
12118TIP3    H157769   6.168   0.040   4.538  0.6761 -0.8332  0.8448
12118TIP3    H257770   6.126   0.047   4.393 -1.7044  1.8640  1.5718
12119TIP3   OH257771   3.708   6.106   2.843  0.4411 -0.0060 -0.3274
12119TIP3    H157772   3.789   6.119   2.892 -0.5526  0.2787  1.2821
12119TIP3    H257773   3.643   6.084   2.909 -0.4447 -1.9786 -1.7710
12120TIP3   OH257774   3.064   3.255   2.248 -0.1286 -0.7026  0.2359
12120TIP3    H157775   3.067   3.216   2.335 -0.2762 -1.6404 -0.1763
12120TIP3    H257776   3.024   3.189   2.193  0.6425 -0.4070 -0.6983
12121TIP3   OH257777   3.481   1.464   6.761 -0.5564 -0.1167 -0.4354
12121TIP3    H157778   3.533   1.500   6.689  0.2759 -2.4025 -1.0546
12121TIP3    H257779   3.442   1.384   6.725 -1.0157 -0.7340  1.3336
12122TIP3   OH257780   0.969   4.600  14.819 -0.0302  0.0908 -0.5300
12122TIP3    H157781   0.874   4.593  14.825  0.0874 -1.4083  0.3106
12122TIP3    H257782   0.985   4.641  14.734 -1.4179  0.2563 -0.7378
12123TIP3   OH257783   3.758   6.365   3.380  0.8820  0.2499 -0.6320
12123TIP3    H157784   3.707   6.299   3.333  0.3517 -0.1874  0.4978
12123TIP3    H257785   3.713   6.448   3.363  1.0549  0.1978 -1.3706
12124TIP3   OH257786   5.491   4.973  13.074  0.5317 -0.2701  0.2154
12124TIP3    H157787   5.532   5.010  12.996 -2.4481  1.8388 -0.5346
12124TIP3    H257788   5.402   4.949  13.046 -0.3518 -0.2997  2.7233
12125TIP3   OH257789   4.497   5.708   5.088  0.3619  0.2037  0.4451
12125TIP3    H157790   4.572   5.680   5.035  0.4408 -2.1944  1.6943
12125TIP3    H257791   4.515   5.800   5.108  1.8244  0.3159 -1.1386
12126TIP3   OH257792   0.914   5.644  15.513  0.1894 -0.2320  0.2127
12126TIP3    H157793   0.922   5.720  15.570  0.2062 -1.1779  1.5123
12126TIP3    H257794   0.951   5.572  15.564 -3.7610 -2.0590  0.8574
12127TIP3   OH257795   5.369   0.815   2.577 -0.3581  0.1547  0.3222
12127TIP3    H157796   5.289   0.776   2.542 -0.1255  0.0102 -0.0548
12127TIP3    H257797   5.405   0.865   2.504  0.7162 -1.0444 -0.0057
12128TIP3   OH257798   6.653   6.267   2.783 -0.0889 -0.6998 -0.4896
12128TIP3    H157799   6.709   6.296   2.711  1.4174  0.2315  0.9669
12128TIP3    H257800   6.578   6.326   2.780  0.9809  0.7553 -0.0720
12129TIP3   OH257801   3.171   3.140  17.077 -0.2182 -0.2607 -0.9951
12129TIP3    H157802   3.211   3.220  17.042 -1.2522  0.4197 -0.6681
12129TIP3    H257803   3.077   3.159  17.077 -0.2765  0.2067  3.1216
12130TIP3   OH257804   4.671   2.267   2.498  0.0350  0.5827 -0.4742
12130TIP3    H157805   4.645   2.358   2.485 -0.0995  0.8530  1.3945
12130TIP3    H257806   4.689   2.234   2.410 -2.5427  1.6146 -1.4765
12131TIP3   OH257807   3.199   6.024  11.777  0.4822  0.1972  0.1012
12131TIP3    H157808   3.265   5.964  11.813 -1.2133 -0.3529  2.5346
12131TIP3    H257809   3.116   5.991  11.810 -0.7134  2.8123 -0.0237
12132TIP3   OH257810   5.117   3.979  13.189 -0.4464  0.2944 -0.1903
12132TIP3    H157811   5.123   3.944  13.100 -0.7870  0.0935 -0.1345
12132TIP3    H257812   5.155   4.067  13.182 -1.7966  0.8559 -0.8600
12133TIP3   OH257813   4.755   4.650  10.869 -0.1327  0.3116 -0.1322
12133TIP3    H157814   4.801   4.599  10.935  0.4976  1.8013  0.6236
12133TIP3    H257815   4.677   4.598  10.848  0.7706 -1.2173  0.1543
12134TIP3   OH257816   1.277   0.560   0.170  0.3395  0.2587 -0.2822
12134TIP3    H157817   1.192   0.553   0.213  1.2431 -0.2941  1.5662
12134TIP3    H257818   1.278   0.646   0.130 -0.2424  1.2433  1.6997
12135TIP3   OH257819   0.235   2.600   4.401  0.9045  0.3607 -0.1377
12135TIP3    H157820   0.220   2.683   4.446  0.8477 -0.4335  1.3695
12135TIP3    H257821   0.297   2.553   4.457  0.5882 -0.7988 -0.7295
12136TIP3   OH257822   3.080   1.203  16.288  0.0571  0.7305  0.3387
12136TIP3    H157823   3.100   1.248  16.206  2.6933  0.4402  0.7183
12136TIP3    H257824   3.133   1.249  16.353  1.1312 -1.4712  1.1311
12137TIP3   OH257825   0.586   6.473   5.228  0.1451 -0.2222  0.7809
12137TIP3    H157826   0.542   6.433   5.153  0.7334  0.7769 -0.1268
12137TIP3    H257827   0.615   6.399   5.282 -1.4780 -0.9276  0.7462
12138TIP3   OH257828   3.395   3.941  11.948  0.4567 -0.3788  0.5750
12138TIP3    H157829   3.417   4.015  12.005  2.6385 -0.5409  0.0265
12138TIP3    H257830   3.437   3.866  11.990 -0.3347 -1.0191  0.2409
12139TIP3   OH257831   2.313   6.349  16.669 -0.6841 -0.0980  0.1148
12139TIP3    H157832   2.317   6.444  16.662  1.5678 -0.1132  0.5337
12139TIP3    H257833   2.220   6.328  16.663 -1.5689  2.3511  3.2596
12140TIP3   OH257834   0.553   3.463   1.445  0.2974 -0.3087 -0.3111
12140TIP3    H157835   0.625   3.522   1.463 -0.9723  0.9228  0.9601
12140TIP3    H257836   0.497   3.511   1.384 -0.6512 -0.2440  0.5804
12141TIP3   OH257837   5.252   4.268  15.019 -0.3459  0.6237 -0.8109
12141TIP3    H157838   5.263   4.287  15.112  1.1515  0.1709 -0.8762
12141TIP3    H257839   5.157   4.265  15.007 -0.5691  0.6124  0.7133
12142TIP3   OH257840   3.941   0.937   4.188  0.2330 -0.1879 -0.4623
12142TIP3    H157841   3.852   0.926   4.155 -0.3019 -1.4227  1.2492
12142TIP3    H257842   3.946   1.029   4.214  0.6164  0.8060 -3.5574
12143TIP3   OH257843   2.251   6.586   0.838  0.0406  0.4873  0.6458
12143TIP3    H157844   2.255   6.574   0.932  2.0376 -0.3519  0.4869
12143TIP3    H257845   2.330   6.635   0.816 -0.2800  0.4740 -0.6223
12144TIP3   OH257846   2.167   0.108   4.615 -0.2841  0.4909  0.0239
12144TIP3    H157847   2.259   0.101   4.642 -0.4874  0.5696  0.7600
12144TIP3    H257848   2.129   0.023   4.638 -0.4401  0.5197 -0.1255
12145TIP3   OH257849   4.370   1.082   1.727 -0.1520  0.4808  0.3158
12145TIP3    H157850   4.449   1.104   1.677 -0.6525 -0.8227 -1.1476
12145TIP3    H257851   4.369   0.986   1.728 -0.4648  0.4594  2.4230
12146TIP3   OH257852   5.991   1.479  14.175 -0.2580  0.2059 -0.0005
12146TIP3    H157853   5.926   1.539  14.138 -1.4409  0.7318  2.6991
12146TIP3    H257854   5.949   1.394  14.176  0.1589 -0.0244 -0.7041
12147TIP3   OH257855   0.270   2.258   1.442  0.6984 -0.3444 -0.6928
12147TIP3    H157856   0.319   2.323   1.493 -1.3585  0.8273 -0.0845
12147TIP3    H257857   0.290   2.279   1.351  0.1665  1.1215 -0.5026
12148TIP3   OH257858   3.384   0.062  15.866  0.1396 -0.4563  0.5805
12148TIP3    H157859   3.431   0.006  15.928 -2.0245  0.6528  3.4616
12148TIP3    H257860   3.439   0.139  15.857  1.3578 -1.3908 -0.4779
12149TIP3   OH257861   0.114   3.548   3.254 -0.8120 -0.2374 -0.5426
12149TIP3    H157862   0.092   3.529   3.163  2.2967 -1.6247 -1.1410
12149TIP3    H257863   0.133   3.642   3.255 -0.5078 -0.2835 -1.4322
12150TIP3   OH257864   1.700   4.889   3.459  0.1811 -0.4685 -0.3733
12150TIP3    H157865   1.778   4.892   3.515 -0.8783 -0.4642  1.1650
12150TIP3    H257866   1.627   4.880   3.520 -0.9704 -1.5707 -1.8305
12151TIP3   OH257867   3.517   6.738  16.111 -0.0833  0.6329 -0.0207
12151TIP3    H157868   3.600   6.725  16.064  0.2712 -0.1598  0.7981
12151TIP3    H257869   3.539   6.793  16.185  0.0302 -0.7537  1.0151
12152TIP3   OH257870   4.597   4.718   3.949 -0.2387  0.0469 -0.4867
12152TIP3    H157871   4.684   4.679   3.942 -0.4480 -0.2319 -1.5969
12152TIP3    H257872   4.548   4.682   3.876 -1.5971 -0.5556  0.6613
12153TIP3   OH257873   5.544   3.837   0.410  0.1234  0.0884  0.8176
12153TIP3    H157874   5.466   3.862   0.460  0.0861 -0.9964  1.3131
12153TIP3    H257875   5.602   3.913   0.416  0.1942 -0.0719  2.6472
12154TIP3   OH257876   1.187   0.768  15.562  0.3521 -0.5867 -0.6880
12154TIP3    H157877   1.258   0.718  15.603  1.1479  0.4145 -0.7812
12154TIP3    H257878   1.155   0.711  15.492  0.0616 -1.6543  0.2866
12155TIP3   OH257879   3.799   4.566   4.121 -0.1333 -0.1894  0.4736
12155TIP3    H157880   3.803   4.651   4.164 -1.6600  1.6783 -2.6695
12155TIP3    H257881   3.873   4.566   4.061 -0.8642 -0.4633 -0.4623
12156TIP3   OH257882   0.902   1.236  12.769  0.3554  0.0177 -0.8010
12156TIP3    H157883   0.923   1.150  12.807  2.4665  0.5904 -0.5286
12156TIP3    H257884   0.811   1.228  12.742 -0.5423 -1.2836  2.0921
12157TIP3   OH257885   0.547   0.562   2.379 -0.5375 -0.3908  0.6744
12157TIP3    H157886   0.487   0.557   2.454 -0.4655  1.3566  0.8870
12157TIP3    H257887   0.634   0.547   2.416 -0.7574 -2.8266  0.3825
12158TIP3   OH257888   4.513   5.864   3.774  0.0749 -0.3191 -0.2429
12158TIP3    H157889   4.500   5.824   3.687 -3.7585 -0.1789  0.1027
12158TIP3    H257890   4.551   5.950   3.755 -1.3323 -0.0031 -1.8977
12159TIP3   OH257891   4.427   2.941   2.694  0.0021 -0.4013  0.4444
12159TIP3    H157892   4.384   2.967   2.775  1.0606  0.4914  0.7450
12159TIP3    H257893   4.513   2.983   2.697 -0.3064  0.5028 -1.5977
12160TIP3   OH257894   4.100   6.028   3.372 -0.1592  0.3207 -0.2815
12160TIP3    H157895   4.102   5.996   3.462 -0.0344  0.5054 -0.2196
12160TIP3    H257896   4.025   6.087   3.369 -2.0542 -1.9475 -1.0576
12161TIP3   OH257897   6.024   4.979  12.930 -0.2158 -0.0300 -0.1474
12161TIP3    H157898   5.943   4.987  12.980  0.8641  2.3482  1.3903
12161TIP3    H257899   5.999   5.005  12.841 -0.8828  2.3210  0.6568
12162TIP3   OH257900   5.981   1.833  16.888 -0.1261 -0.0625  0.9192
12162TIP3    H157901   5.916   1.791  16.944  0.4479 -0.5503  1.2253
12162TIP3    H257902   5.957   1.806  16.799 -0.6024  0.1280  0.9827
12163TIP3   OH257903   0.308   0.831   1.345 -0.6487 -0.1453 -0.0327
12163TIP3    H157904   0.317   0.756   1.287 -0.0556 -1.6495  1.8950
12163TIP3    H257905   0.380   0.823   1.407 -0.7349  1.8895  0.4193
12164TIP3   OH257906   0.558   5.261  15.991 -0.4314 -0.5216  0.0861
12164TIP3    H157907   0.490   5.196  16.010  0.0309 -0.8043  0.8164
12164TIP3    H257908   0.622   5.250  16.061 -0.2185  0.5534  0.0869
12165TIP3   OH257909   6.770   6.106   1.966  0.2390 -0.5409 -0.4689
12165TIP3    H157910   6.693   6.136   2.013 -0.5495  0.1739 -2.1493
12165TIP3    H257911   6.833   6.177   1.974 -0.3052  0.0609 -1.4092
12166TIP3   OH257912   4.047   3.739  13.157  0.7279  0.1909  0.2106
12166TIP3    H157913   4.064   3.645  13.149 -0.5443  0.0169 -0.7581
12166TIP3    H257914   3.961   3.743  13.198  0.7097  0.9316  0.0969
12167TIP3   OH257915   0.523   3.810  15.324  0.3842 -0.1395 -0.4826
12167TIP3    H157916   0.593   3.745  15.317  0.5473 -0.0979  0.5422
12167TIP3    H257917   0.526   3.858  15.241  2.3670  0.6286 -0.0484
12168TIP3   OH257918   3.651   2.008  11.332 -0.7041 -0.3158  0.1826
12168TIP3    H157919   3.639   2.008  11.427  0.2277 -0.5771  0.3152
12168TIP3    H257920   3.744   1.987  11.320 -0.9419 -0.8953 -0.8011
12169TIP3   OH257921   1.093   0.736   2.886 -0.2239  0.6117  0.3891
12169TIP3    H157922   1.042   0.775   2.815 -1.2479 -1.8204 -0.3289
12169TIP3    H257923   1.182   0.731   2.852 -0.5827  0.0613 -0.5187
12170TIP3   OH257924   3.909   1.957  11.403  0.1842  0.0233  0.0125
12170TIP3    H157925   3.950   1.934  11.486  0.8379 -0.8702 -0.5426
12170TIP3    H257926   3.974   2.010  11.357  0.8758 -1.5899 -0.9690
12171TIP3   OH257927   1.453   4.822  12.505 -0.1266 -0.1992 -0.2586
12171TIP3    H157928   1.434   4.916  12.509  0.7107 -0.0287  0.1148
12171TIP3    H257929   1.383   4.780  12.554  0.2794  0.3658  0.8279
12172TIP3   OH257930   1.334   3.315  17.176 -0.4710  0.6331  0.5214
12172TIP3    H157931   1.384   3.234  17.184  0.0665  0.9553  0.4639
12172TIP3    H257932   1.325   3.329  17.082 -2.9828 -0.8152  0.4466
12173TIP3   OH257933   6.289   4.136  12.826  0.1339  0.5169  0.5707
12173TIP3    H157934   6.303   4.048  12.791  0.4068  1.4635 -1.8551
12173TIP3    H257935   6.199   4.157  12.804  0.6995  1.6244 -0.7902
12174TIP3   OH257936   0.842   1.532  12.623 -0.8061  0.2332 -0.7853
12174TIP3    H157937   0.820   1.486  12.543 -1.6925  0.3856 -0.6361
12174TIP3    H257938   0.848   1.464  12.690 -3.1625  0.3957 -0.3399
12175TIP3   OH257939   4.996   4.126   2.766  0.9461 -0.7931  0.0978
12175TIP3    H157940   5.064   4.113   2.832  2.2534 -1.5675 -1.3117
12175TIP3    H257941   5.043   4.120   2.683 -0.5525  0.6382 -0.9081
12176TIP3   OH257942   5.392   2.707   3.247 -0.5816 -0.0862  0.1093
12176TIP3    H157943   5.466   2.760   3.217  0.8430 -1.4382  1.0605
12176TIP3    H257944   5.333   2.770   3.289  1.2417  0.7638  1.5805
12177TIP3   OH257945   4.409   1.787   2.733 -0.3672 -0.4800  0.6654
12177TIP3    H157946   4.500   1.802   2.707 -0.6198  0.5387  0.3281
12177TIP3    H257947   4.388   1.701   2.696  0.5857 -0.9316  1.1289
12178TIP3   OH257948   0.810   5.075   4.867 -1.0013 -0.4409  0.0386
12178TIP3    H157949   0.821   5.006   4.932 -2.1189 -2.4150 -1.7583
12178TIP3    H257950   0.895   5.079   4.822 -0.0157  1.3543  1.8807
12179TIP3   OH257951   5.261   6.332   3.573 -0.0356 -0.1091  0.2981
12179TIP3    H157952   5.265   6.409   3.630 -3.0697  0.8070 -0.5342
12179TIP3    H257953   5.277   6.258   3.631  0.6582  0.9987  1.5728
12180TIP3   OH257954   5.975   6.159   0.287  0.4614 -0.5106  0.5288
12180TIP3    H157955   6.054   6.207   0.310 -0.1383  1.8184 -1.8022
12180TIP3    H257956   5.911   6.185   0.353  1.3476 -1.7957  1.9594
12181TIP3   OH257957   6.758   0.116  11.408 -0.2293 -0.1779  0.0767
12181TIP3    H157958   6.845   0.124  11.369  0.6806  0.4645  2.1120
12181TIP3    H257959   6.698   0.119  11.334  1.1400  4.5170 -1.1638
12182TIP3   OH257960   6.128   1.373  11.984 -0.1057 -0.7956  0.1226
12182TIP3    H157961   6.156   1.375  11.893  0.2747 -1.5462  0.2132
12182TIP3    H257962   6.042   1.331  11.982 -0.0225 -0.9649  0.1290
12183TIP3   OH257963   4.516   0.273   5.638 -0.2269 -0.2840 -0.1050
12183TIP3    H157964   4.588   0.289   5.577  0.5763  1.1739  1.1618
12183TIP3    H257965   4.460   0.350   5.629 -0.3466 -0.2774  0.6499
12184TIP3   OH257966   4.993   2.308   1.547 -0.2045  0.1053 -0.1940
12184TIP3    H157967   4.948   2.244   1.492 -0.1551 -1.8213  1.8574
12184TIP3    H257968   4.924   2.365   1.580 -1.2149 -2.4436  2.4332
12185TIP3   OH257969   0.834   0.797   1.492 -0.2518  0.3992 -0.4479
12185TIP3    H157970   0.832   0.879   1.442 -0.4784  0.4376 -0.3756
12185TIP3    H257971   0.805   0.821   1.579 -0.7163  0.1653 -0.5345
12186TIP3   OH257972   4.924   4.939  15.615  0.1273  0.2980 -0.2034
12186TIP3    H157973   5.019   4.932  15.604  0.3798 -1.6029  2.3158
12186TIP3    H257974   4.889   4.856  15.584 -0.8110  1.1151 -1.4432
12187TIP3   OH257975   4.199   4.023  14.492 -0.0212  0.3360 -0.1212
12187TIP3    H157976   4.160   4.099  14.535  1.4276  1.5509 -0.8361
12187TIP3    H257977   4.125   3.973  14.459 -1.0095  1.8858 -0.3553
12188TIP3   OH257978   3.388   6.110  11.058  0.0962  0.0555 -0.6017
12188TIP3    H157979   3.306   6.083  11.018  0.3038  0.9816 -1.7152
12188TIP3    H257980   3.425   6.174  10.996  2.7006 -1.9030 -1.2467
12189TIP3   OH257981   1.424   3.402  13.287  0.8855  0.3166  0.0195
12189TIP3    H157982   1.511   3.370  13.261  1.5747  1.4890  0.7849
12189TIP3    H257983   1.367   3.326  13.277  1.8700 -0.3179 -1.0969
12190TIP3   OH257984   3.990   1.126   5.775  0.7535 -0.6022  0.1994
12190TIP3    H157985   4.027   1.042   5.747 -0.0977 -0.2391 -2.3555
12190TIP3    H257986   3.936   1.154   5.700 -0.4972  1.3300  1.7197
12191TIP3   OH257987   5.648   2.363  12.303  0.4339 -0.0696  0.1218
12191TIP3    H157988   5.731   2.346  12.259 -0.7041 -3.0863 -1.1292
12191TIP3    H257989   5.640   2.293  12.367 -1.4772 -0.2824 -0.3000
12192TIP3   OH257990   0.079   4.854  11.837  0.2951  0.4484 -0.2941
12192TIP3    H157991   0.172   4.876  11.840  0.6496 -1.0543  0.8223
12192TIP3    H257992   0.059   4.820  11.925 -0.6966 -1.5310 -1.2264
12193TIP3   OH257993   0.232   1.572   4.004  0.4846 -0.5041 -0.0048
12193TIP3    H157994   0.208   1.579   4.097 -2.2831 -3.4273 -0.3302
12193TIP3    H257995   0.317   1.527   4.005 -0.0184 -1.4999  1.1351
12194TIP3   OH257996   2.563   5.581  13.011 -0.0834 -0.2438 -0.2912
12194TIP3    H157997   2.542   5.667  13.049 -2.4020 -0.0890 -1.7910
12194TIP3    H257998   2.577   5.598  12.918 -0.6084 -1.5106 -0.6159
12195TIP3   OH257999   5.839   6.018   4.470 -0.1453  0.4841 -0.0748
12195TIP3    H158000   5.854   5.948   4.533  1.2566 -3.3605 -4.0989
12195TIP3    H258001   5.923   6.063   4.463  0.3887 -0.5465 -0.6295
12196TIP3   OH258002   5.935   3.995   0.251 -0.0441  0.0201 -0.1122
12196TIP3    H158003   5.866   4.060   0.242 -0.5092 -0.0396  2.2601
12196TIP3    H258004   6.011   4.034   0.207 -1.4607  0.1651 -2.5920
12197TIP3   OH258005   4.102   4.586   0.892  0.3707 -0.1268 -0.0599
12197TIP3    H158006   4.112   4.498   0.856 -0.8597 -0.0852 -0.5202
12197TIP3    H258007   4.118   4.644   0.818 -2.3395 -0.0434 -0.6740
12198TIP3   OH258008   3.847   3.979  11.421  0.3042 -0.1241 -0.1273
12198TIP3    H158009   3.902   4.008  11.494 -0.5023  0.8243  0.1062
12198TIP3    H258010   3.903   3.989  11.343  0.2290  1.5955  0.0048
12199TIP3   OH258011   0.449   2.658  14.786 -0.9867  0.2869  0.0568
12199TIP3    H158012   0.438   2.630  14.877  0.7870  1.3464  0.6567
12199TIP3    H258013   0.387   2.729  14.775 -0.3329  1.0046  0.8614
12200TIP3   OH258014   1.297   4.999   3.419 -0.3699 -0.0473  0.1722
12200TIP3    H158015   1.349   5.040   3.488  0.3164 -0.1671 -0.2637
12200TIP3    H258016   1.212   4.981   3.460 -0.1439  0.3517  0.8288
12201TIP3   OH258017   2.785   2.489  16.729 -0.3406  0.0005  0.1301
12201TIP3    H158018   2.871   2.531  16.732 -0.4816  0.3242 -0.2813
12201TIP3    H258019   2.794   2.413  16.786  0.9447 -1.2946 -1.6856
12202TIP3   OH258020   1.271   2.086  12.287  0.2752  0.1905  0.6897
12202TIP3    H158021   1.232   2.087  12.375 -2.2364 -0.4088 -0.3379
12202TIP3    H258022   1.287   2.178  12.267 -1.4640  0.5384  0.8183
12203TIP3   OH258023   3.424   1.409   1.413 -0.5164  0.0795  0.5472
12203TIP3    H158024   3.451   1.419   1.322  0.7844  1.3975  1.0137
12203TIP3    H258025   3.440   1.317   1.433  1.4151  0.2548  0.0587
12204TIP3   OH258026   2.481   4.938   2.302 -0.3936 -0.0213 -0.0904
12204TIP3    H158027   2.452   4.847   2.300  0.9843 -0.4799 -0.8926
12204TIP3    H258028   2.459   4.969   2.390 -0.4490 -1.2708  0.3515
12205TIP3   OH258029   0.477   4.200   4.723 -0.2843  0.1784  0.7251
12205TIP3    H158030   0.382   4.213   4.721 -0.1829  1.1155 -2.1589
12205TIP3    H258031   0.512   4.285   4.750 -0.2257  0.1007  0.8956
12206TIP3   OH258032   5.230   2.825   4.714  0.0570  0.1538  0.5881
12206TIP3    H158033   5.185   2.909   4.723  1.5630  0.9455  0.9570
12206TIP3    H258034   5.314   2.847   4.675  1.1983 -0.9504  2.3021
12207TIP3   OH258035   1.164   5.411   2.762 -0.6379  0.2574  0.6188
12207TIP3    H158036   1.197   5.366   2.840  1.3868  0.4634 -0.0564
12207TIP3    H258037   1.069   5.405   2.769 -0.5093 -3.0007  1.2355
12208TIP3   OH258038   6.728   4.737  12.108  0.1410  0.3846  0.3802
12208TIP3    H158039   6.741   4.830  12.089 -0.9249  0.9884  2.3262
12208TIP3    H258040   6.688   4.735  12.195  0.0809 -1.9067  0.3775
12209TIP3   OH258041   4.314   0.177   2.619 -0.1007  0.2846 -0.1202
12209TIP3    H158042   4.351   0.262   2.595 -0.9769  1.1985  1.5264
12209TIP3    H258043   4.363   0.113   2.567  1.0382  1.7434 -0.9114
12210TIP3   OH258044   1.018   1.238   4.577  0.6728 -0.7311 -0.9213
12210TIP3    H158045   0.990   1.243   4.669 -0.4640 -2.3180 -1.1430
12210TIP3    H258046   1.076   1.162   4.574  2.9508  0.9031 -1.0362
12211TIP3   OH258047   6.058   0.483   2.513 -0.4404 -0.1308  0.3644
12211TIP3    H158048   6.020   0.450   2.595 -0.8491 -1.2840 -0.2565
12211TIP3    H258049   6.134   0.426   2.499 -0.3973  0.0383 -0.0742
12212TIP3   OH258050   3.768   6.577   5.304 -0.0683  0.5621 -0.4127
12212TIP3    H158051   3.688   6.556   5.352  1.2129 -1.7534  0.9071
12212TIP3    H258052   3.799   6.493   5.272  1.7746  1.4163 -0.9812
12213TIP3   OH258053   1.059   1.416  13.157 -0.0926  0.1563 -0.4469
12213TIP3    H158054   0.997   1.343  13.159 -0.1103  0.1744  0.4448
12213TIP3    H258055   1.129   1.390  13.218  0.0984  0.7107 -0.4165
12214TIP3   OH258056   6.634   4.319  12.434 -0.1560  0.2790 -0.0340
12214TIP3    H158057   6.682   4.401  12.445 -0.2683  0.7007 -2.2434
12214TIP3    H258058   6.701   4.251  12.439  0.9599  0.8890 -3.6915
12215TIP3   OH258059   3.835   1.894   0.754 -0.3005 -0.3535  0.4086
12215TIP3    H158060   3.929   1.879   0.743 -0.3063  0.6513 -1.3055
12215TIP3    H258061   3.830   1.963   0.820  0.1632 -0.4090  0.5093
12216TIP3   OH258062   2.782   3.845   3.845 -0.9253 -0.5336 -0.4082
12216TIP3    H158063   2.732   3.921   3.817  1.2721  0.6457 -1.3937
12216TIP3    H258064   2.828   3.815   3.767  2.6973  0.7417  0.9825
12217TIP3   OH258065   3.416   1.111  16.069  0.4824 -0.3500 -0.4837
12217TIP3    H158066   3.406   1.200  16.035 -5.0856 -0.2713  0.4151
12217TIP3    H258067   3.455   1.123  16.156 -0.0760  1.2590 -0.4166
12218TIP3   OH258068   6.719   4.276  13.550 -0.2037 -0.2700 -0.0822
12218TIP3    H158069   6.650   4.214  13.574  0.3640 -0.1428  2.1147
12218TIP3    H258070   6.796   4.222  13.537 -0.4262 -0.2999 -1.4045
12219TIP3   OH258071   6.139   0.519  15.192  0.1178  0.1571 -0.5622
12219TIP3    H158072   6.201   0.534  15.121 -0.7860 -1.6533 -1.8060
12219TIP3    H258073   6.155   0.429  15.220 -0.9539  0.1479  0.0840
12220TIP3   OH258074   2.782   1.906  15.358  0.6211 -0.4545 -0.1576
12220TIP3    H158075   2.864   1.922  15.310  0.6664  0.4867  0.2119
12220TIP3    H258076   2.743   1.830  15.314  1.5922 -0.8013 -0.4636
12221TIP3   OH258077   0.646   1.320   4.856 -0.7293 -0.3754 -0.0800
12221TIP3    H158078   0.620   1.410   4.838 -0.3351  0.0501  1.3277
12221TIP3    H258079   0.595   1.296   4.934  1.7535 -0.0596  1.7869
12222TIP3   OH258080   4.159   2.321   3.829  0.4320  0.3766  0.4733
12222TIP3    H158081   4.072   2.334   3.791  0.4882 -0.9621 -0.1680
12222TIP3    H258082   4.142   2.302   3.921  0.0366  0.1168  0.3503
12223TIP3   OH258083   5.845   1.818   1.320 -0.3683 -0.2491 -0.5950
12223TIP3    H158084   5.866   1.831   1.413  0.9549 -4.5122 -0.0857
12223TIP3    H258085   5.750   1.815   1.317 -0.4640  0.8156  0.4191
12224TIP3   OH258086   6.082   3.022  16.546 -0.3210 -0.2778 -0.4109
12224TIP3    H158087   6.169   3.012  16.584 -0.5724 -0.9798 -0.0041
12224TIP3    H258088   6.025   2.968  16.601 -0.7053 -1.3142 -1.7651
12225TIP3   OH258089   5.446   0.079   0.347  0.5205  0.1402 -0.5414
12225TIP3    H158090   5.367   0.066   0.295  0.1641 -1.0018  0.2293
12225TIP3    H258091   5.510   0.018   0.309  1.3400  1.6318 -1.6839
12226TIP3   OH258092   4.587   2.609  15.540  0.4794  0.3729  0.4335
12226TIP3    H158093   4.591   2.671  15.613 -0.2372  0.7334  0.1800
12226TIP3    H258094   4.527   2.650  15.477  0.3221 -0.3841  0.0767
12227TIP3   OH258095   6.148   4.535  14.666 -0.3992  0.1154 -0.1867
12227TIP3    H158096   6.111   4.506  14.749 -0.0833  1.2542  0.3812
12227TIP3    H258097   6.078   4.585  14.624 -0.4076 -0.0663 -0.3899
12228TIP3   OH258098   2.470   1.286  16.416  0.1264  0.5832  0.1558
12228TIP3    H158099   2.509   1.226  16.479 -1.7337 -2.1096 -1.0548
12228TIP3    H258100   2.411   1.341  16.468  0.0376 -0.3049  1.0265
12229TIP3   OH258101   2.644   2.499  10.808  0.3705 -0.3229 -0.6828
12229TIP3    H158102   2.613   2.570  10.752 -0.9518 -0.7626 -0.5462
12229TIP3    H258103   2.640   2.534  10.897  1.4527  0.0179 -0.7531
12230TIP3   OH258104   4.291   1.183  12.043  0.0919 -0.6190  0.5272
12230TIP3    H158105   4.207   1.227  12.028  0.8980  0.3626 -1.5197
12230TIP3    H258106   4.345   1.250  12.086  1.1083  0.2757 -1.9861
12231TIP3   OH258107   1.616   6.197   2.872 -0.2432 -0.2147 -0.7249
12231TIP3    H158108   1.539   6.166   2.919  1.2086 -1.3041  1.0912
12231TIP3    H258109   1.618   6.144   2.792 -2.4657  1.3066 -1.8965
12232TIP3   OH258110   0.001   0.352  15.246 -0.6256 -0.0428  0.2842
12232TIP3    H158111  -0.045   0.399  15.315 -0.5236  1.0511 -0.3712
12232TIP3    H258112  -0.065   0.337  15.178 -1.4036 -3.3523  1.5849
12233TIP3   OH258113   0.079   0.154  14.263  0.2100 -0.6977  0.1001
12233TIP3    H158114   0.167   0.190  14.255  0.0089  0.0552  1.1052
12233TIP3    H258115   0.092   0.068  14.303  0.4754 -0.4789  0.4925
12234TIP3   OH258116   0.559   6.415  15.148 -0.0799  0.1051  0.2742
12234TIP3    H158117   0.614   6.443  15.222  0.4079 -0.6689  0.2166
12234TIP3    H258118   0.556   6.491  15.090  0.0177  0.5245  0.8093
12235TIP3   OH258119   4.184   1.829  13.620  0.1255  0.7282  0.0688
12235TIP3    H158120   4.157   1.738  13.622  1.4197  0.2348 -1.8815
12235TIP3    H258121   4.280   1.826  13.620  0.1898  2.0702 -0.2958
12236TIP3   OH258122   6.221   5.914  13.415  0.1138 -0.6578 -0.1022
12236TIP3    H158123   6.242   5.956  13.499  0.7824 -2.4625  0.6793
12236TIP3    H258124   6.303   5.872  13.388 -1.1077 -3.6361  0.4943
12237TIP3   OH258125   5.704   1.028   5.138 -0.2895 -0.8618 -0.3228
12237TIP3    H158126   5.771   0.965   5.164  1.0779  1.4368  2.2477
12237TIP3    H258127   5.626   1.001   5.188  0.9553  0.6833  2.6761
12238TIP3   OH258128   5.435   1.995  13.114  0.2811  0.4612  0.1961
12238TIP3    H158129   5.525   1.965  13.126  0.2726  0.8897  1.4899
12238TIP3    H258130   5.385   1.950  13.182 -0.1499  1.5584  0.6421
12239TIP3   OH258131   6.059   0.434  14.479 -0.1201  0.0671  0.4246
12239TIP3    H158132   6.027   0.480  14.402  2.0312  3.5899  1.3477
12239TIP3    H258133   6.139   0.391  14.450  1.1048  2.0181  0.7017
12240TIP3   OH258134   6.190   6.702  11.788 -0.1568  0.7410  0.5834
12240TIP3    H158135   6.278   6.708  11.824  0.2096  1.7268 -0.4163
12240TIP3    H258136   6.139   6.766  11.837 -0.4239 -0.1004  1.4227
12241TIP3   OH258137   0.294   4.353  14.840  0.1574 -0.5882 -0.0786
12241TIP3    H158138   0.388   4.337  14.842  0.5038  0.6176 -2.5642
12241TIP3    H258139   0.267   4.322  14.754 -1.8328 -1.2849  0.7437
12242TIP3   OH258140   3.225   4.110   0.035 -0.1459  0.2916  0.6758
12242TIP3    H158141   3.138   4.085   0.067 -0.6088  0.0641 -0.6867
12242TIP3    H258142   3.273   4.138   0.113 -1.1201 -0.5284  1.5903
12243TIP3   OH258143   2.192   0.366  17.173  0.1215  0.1861  0.4815
12243TIP3    H158144   2.262   0.367  17.239 -0.2607  0.4093  0.8819
12243TIP3    H258145   2.114   0.394  17.220 -0.2614 -0.1535  0.0561
12244TIP3   OH258146   2.928   4.092   0.250  0.0921  0.2935 -0.1223
12244TIP3    H158147   2.961   4.041   0.176 -0.6151 -0.6295  0.1757
12244TIP3    H258148   2.992   4.078   0.320 -0.2695 -0.4775  0.0637
12245TIP3   OH258149   6.713   0.068  11.673  0.0775  0.3765  0.0957
12245TIP3    H158150   6.800   0.035  11.694  0.5538  2.4866  1.8565
12245TIP3    H258151   6.719   0.098  11.583  0.7748 -0.6773 -0.2214
12246TIP3   OH258152   3.650   1.462   5.713  0.3214 -0.5219  0.5973
12246TIP3    H158153   3.666   1.499   5.799  1.8543  1.9344 -0.6594
12246TIP3    H258154   3.567   1.501   5.684  0.0230 -1.0211  0.7518
12247TIP3   OH258155   2.098   4.350   5.660 -0.3606  0.5585  0.0882
12247TIP3    H158156   2.078   4.401   5.737 -1.9177 -0.8678  0.6946
12247TIP3    H258157   2.052   4.394   5.588 -2.1004 -0.1908  0.6903
12248TIP3   OH258158   1.958   1.863   1.185 -0.4051  0.3236  0.2198
12248TIP3    H158159   2.013   1.928   1.229 -0.3079  0.2916  0.1464
12248TIP3    H258160   1.909   1.914   1.120 -0.5230  0.3651  0.3419
12249TIP3   OH258161   5.591   5.021   5.909  0.5862 -0.6054 -0.3296
12249TIP3    H158162   5.627   5.103   5.945 -1.0923  0.0174  0.0390
12249TIP3    H258163   5.516   5.001   5.966  0.3258 -1.8274 -1.0656
12250TIP3   OH258164   4.878   0.539  15.191  0.7552  0.3001 -0.7975
12250TIP3    H158165   4.911   0.450  15.186  0.7850  0.2349  0.3577
12250TIP3    H258166   4.841   0.546  15.279  1.4566  1.6634 -0.5877
12251TIP3   OH258167   2.427   0.432  16.085 -0.5316 -0.4205  0.6919
12251TIP3    H158168   2.438   0.406  15.993  1.2668 -1.0928  1.0452
12251TIP3    H258169   2.449   0.525  16.086 -0.6881 -0.3775  0.4273
12252TIP3   OH258170   3.622   3.976   0.248  0.1958 -0.0636  0.0037
12252TIP3    H158171   3.612   3.933   0.162  0.6784 -0.2630  0.0415
12252TIP3    H258172   3.535   3.970   0.288 -0.1218  0.3414 -0.6159
12253TIP3   OH258173   3.033   3.280  12.905 -0.5950  0.0872  0.1918
12253TIP3    H158174   3.062   3.225  12.978 -0.6637 -1.2812 -0.7815
12253TIP3    H258175   3.032   3.222  12.829 -0.8818  1.3871 -0.8455
12254TIP3   OH258176   5.606   3.645   5.103  0.1451  0.2957  0.0936
12254TIP3    H158177   5.555   3.569   5.076  1.4338 -0.7796  0.5742
12254TIP3    H258178   5.541   3.710   5.128 -0.9938 -1.1413  1.0409
12255TIP3   OH258179   4.928   1.985   2.774  0.0526 -0.2782 -0.4470
12255TIP3    H158180   4.938   2.072   2.736 -0.4611 -0.5315 -1.1864
12255TIP3    H258181   5.003   1.975   2.832  0.0795  0.6832 -0.3073
12256TIP3   OH258182   2.537   3.581  14.051 -0.4220 -0.2197  0.9918
12256TIP3    H158183   2.521   3.534  14.134  2.6914 -1.3462  1.1008
12256TIP3    H258184   2.511   3.518  13.983 -1.1790 -0.0357  1.1025
12257TIP3   OH258185   1.226   1.389  12.905  0.7716 -0.4926  0.4638
12257TIP3    H158186   1.281   1.460  12.870  0.4816 -1.0815 -1.2651
12257TIP3    H258187   1.185   1.427  12.982  1.4324  0.8884  0.1694
12258TIP3   OH258188   4.393   4.512   1.576 -0.4771 -0.0476 -0.3373
12258TIP3    H158189   4.479   4.521   1.616 -0.1221  0.5900 -1.2187
12258TIP3    H258190   4.402   4.552   1.489 -1.3621 -0.9269 -0.8617
12259TIP3   OH258191   1.478   5.687  15.764 -0.0464 -0.4933  0.1680
12259TIP3    H158192   1.536   5.669  15.837  0.2568 -1.9015 -0.3828
12259TIP3    H258193   1.536   5.711  15.692 -0.4163  2.6247  0.7748
12260TIP3   OH258194   1.032   0.098   3.003 -0.2867 -0.6341 -0.7427
12260TIP3    H158195   1.034   0.040   3.080  0.6863  0.3193 -0.0191
12260TIP3    H258196   1.032   0.038   2.928  0.7010 -1.5846 -0.0192
12261TIP3   OH258197   1.830   4.303   5.692 -0.1458 -0.4126  0.1839
12261TIP3    H158198   1.762   4.246   5.728 -0.9928  0.1316 -0.4893
12261TIP3    H258199   1.896   4.244   5.658  0.3933 -0.9401  2.0755
12262TIP3   OH258200   0.550   3.713  16.917 -0.6078 -0.1333 -0.0619
12262TIP3    H158201   0.538   3.636  16.860 -1.6460 -0.2906  0.3319
12262TIP3    H258202   0.484   3.701  16.986  0.4899  0.1450  1.0818
12263TIP3   OH258203   5.041   5.638   1.199  0.4734  0.1554  0.2106
12263TIP3    H158204   5.053   5.732   1.184  2.6037 -0.2811 -1.3998
12263TIP3    H258205   5.084   5.596   1.124  0.4666 -2.1239  1.3813
12264TIP3   OH258206   0.501   4.265  16.578 -0.1572 -0.1578  0.2982
12264TIP3    H158207   0.449   4.344  16.596 -0.5670 -0.8330  2.4523
12264TIP3    H258208   0.587   4.298  16.551 -0.2570  1.0611  1.3591
12265TIP3   OH258209   1.158   2.674  15.259 -0.0687 -0.4004 -0.1051
12265TIP3    H158210   1.104   2.614  15.311 -1.2150  0.4510 -0.2621
12265TIP3    H258211   1.095   2.736  15.222  1.1276  1.2199  0.4793
12266TIP3   OH258212   6.040   4.388   2.540 -0.6164  0.2023 -0.3040
12266TIP3    H158213   6.077   4.322   2.482  0.0909  1.2482 -1.0942
12266TIP3    H258214   6.047   4.350   2.628  0.4589 -0.4564 -0.6602
12267TIP3   OH258215   0.105   1.095   6.323 -0.0265 -0.2628  0.5063
12267TIP3    H158216   0.045   1.160   6.360  1.3223 -0.1310  2.6129
12267TIP3    H258217   0.099   1.109   6.229 -2.6304  0.3136  0.6706
12268TIP3   OH258218   1.565   5.650   1.507 -0.5305  0.1889 -0.2097
12268TIP3    H158219   1.471   5.654   1.525 -0.3598 -0.1216  0.8624
12268TIP3    H258220   1.606   5.665   1.592  0.3576 -1.8595 -0.2059
12269TIP3   OH258221   1.596   6.462   5.721 -0.1398 -0.3503 -0.7926
12269TIP3    H158222   1.677   6.512   5.707  0.0937 -0.1860  0.9338
12269TIP3    H258223   1.531   6.528   5.744 -0.6525 -0.5450 -1.6219
12270TIP3   OH258224   4.458   1.066   5.565  0.0816  0.2765 -0.7059
12270TIP3    H158225   4.511   1.017   5.501  1.3847  1.1862 -0.3666
12270TIP3    H258226   4.442   1.150   5.523  1.3121  1.0443  0.2943
12271TIP3   OH258227   2.652   3.692   2.687  0.4689 -0.2990 -0.3177
12271TIP3    H158228   2.715   3.684   2.758  0.8814  1.1617 -0.4797
12271TIP3    H258229   2.645   3.604   2.650  0.2603 -1.0826  1.4909
12272TIP3   OH258230   4.712   1.924   0.725 -0.2607 -0.0000  0.1730
12272TIP3    H158231   4.740   1.958   0.640  0.6292 -1.3768 -0.1269
12272TIP3    H258232   4.620   1.949   0.733 -0.0222  1.1920 -0.6400
12273TIP3   OH258233   3.761   4.072   1.536 -0.1533 -0.5075 -0.3636
12273TIP3    H158234   3.792   4.061   1.446  0.1487  2.1141 -0.6469
12273TIP3    H258235   3.735   4.164   1.541 -1.6530 -0.9867  1.8046
12274TIP3   OH258236   1.520   4.948  15.225  0.4555  0.1371 -0.6579
12274TIP3    H158237   1.428   4.920  15.221  0.2804 -0.1374  2.3540
12274TIP3    H258238   1.514   5.044  15.232  0.4609  0.1857 -1.2832
12275TIP3   OH258239   6.282   6.664  15.968  0.5700 -0.3418  0.1783
12275TIP3    H158240   6.249   6.745  15.927 -2.0787 -1.7750 -0.7667
12275TIP3    H258241   6.286   6.684  16.061  1.0062  1.1979 -0.1438
12276TIP3   OH258242   3.662   3.036  11.922  0.0748 -0.4222  0.5292
12276TIP3    H158243   3.589   3.008  11.866  2.7941 -2.0651 -2.5659
12276TIP3    H258244   3.682   3.125  11.891  0.6806 -0.7866 -0.1517
12277TIP3   OH258245   4.834   2.388   4.570  0.1331  0.4081 -0.0487
12277TIP3    H158246   4.896   2.449   4.530 -0.9518  1.1446 -0.6835
12277TIP3    H258247   4.763   2.444   4.601 -1.5835 -0.5979 -1.9281
12278TIP3   OH258248   4.159   1.084   5.388  0.1310  0.8563  0.3435
12278TIP3    H158249   4.136   1.160   5.442 -0.8789  0.4459  0.5331
12278TIP3    H258250   4.188   1.018   5.451 -2.9350 -0.3159  0.6981
12279TIP3   OH258251   5.077   3.164  12.874 -0.1521  0.2680 -1.0874
12279TIP3    H158252   5.033   3.133  12.953  0.3017  1.7540 -0.2222
12279TIP3    H258253   5.169   3.139  12.887 -0.3324 -0.9719 -1.9459
12280TIP3   OH258254   2.096   6.151  17.045 -0.2668 -0.4408  0.0055
12280TIP3    H158255   2.070   6.084  16.982  3.6413 -0.2385 -2.1655
12280TIP3    H258256   2.180   6.120  17.080 -0.7137  1.0521  2.6985
12281TIP3   OH258257   0.410   3.473  11.901  0.6446 -0.0801  0.2048
12281TIP3    H158258   0.334   3.442  11.851  1.1572 -1.2800  0.1524
12281TIP3    H258259   0.482   3.418  11.873  0.9883 -0.6844  2.1390
12282TIP3   OH258260   1.781   2.134  14.848 -0.1787  0.0800  0.3782
12282TIP3    H158261   1.739   2.185  14.779 -1.0361 -0.3925  0.5481
12282TIP3    H258262   1.875   2.143  14.830 -0.3884  0.0380 -0.7952
12283TIP3   OH258263   3.972   0.397  16.901 -0.1606  1.0132  0.1539
12283TIP3    H158264   3.999   0.477  16.946 -0.9517  0.9684  0.7488
12283TIP3    H258265   4.053   0.354  16.876  0.3307  0.8614  1.8830
12284TIP3   OH258266   2.123   3.792   3.183  0.3386  0.1370 -0.0889
12284TIP3    H158267   2.155   3.880   3.199  1.6296 -0.2771 -0.2721
12284TIP3    H258268   2.189   3.752   3.126 -0.1419 -0.9972  0.1132
12285TIP3   OH258269   1.692   1.802  12.775  0.5440 -0.2009  0.4246
12285TIP3    H158270   1.647   1.794  12.859  1.7708  0.8023  1.2010
12285TIP3    H258271   1.621   1.807  12.711 -0.4030 -1.8726  1.2830
12286TIP3   OH258272   3.874   6.491   1.939  0.3387 -0.4595  0.1842
12286TIP3    H158273   3.967   6.492   1.962  0.1166 -0.5895  1.1279
12286TIP3    H258274   3.843   6.406   1.970  0.0891 -0.7986 -0.9366
12287TIP3   OH258275   5.307   0.034   1.620 -0.3521 -0.1435 -1.5869
12287TIP3    H158276   5.310  -0.053   1.661 -3.6698 -0.7407 -2.2613
12287TIP3    H258277   5.335   0.020   1.530  1.2772 -0.0276 -1.1133
12288TIP3   OH258278   1.999   1.424   2.228  0.0091 -0.2232  0.8931
12288TIP3    H158279   1.965   1.334   2.229 -0.4416 -0.0561  1.9784
12288TIP3    H258280   1.981   1.457   2.316  1.2428  0.5402  0.8766
12289TIP3   OH258281   5.218   2.090  13.668 -0.0702  0.7662 -0.4052
12289TIP3    H158282   5.293   2.034  13.647  0.1062  0.8922 -0.1202
12289TIP3    H258283   5.160   2.081  13.592 -0.6695 -0.8404  0.1930
12290TIP3   OH258284   5.035   6.485  11.415  0.3860 -0.3262 -0.2705
12290TIP3    H158285   5.020   6.532  11.497 -0.0174  0.5155 -0.8201
12290TIP3    H258286   5.028   6.393  11.439  1.3183 -0.1223  0.8465
12291TIP3   OH258287   6.190   0.838   5.069 -0.7726  0.2227  0.2293
12291TIP3    H158288   6.101   0.804   5.079 -0.9488  0.9137  1.1916
12291TIP3    H258289   6.180   0.915   5.013 -0.4326 -0.9949 -1.5949
12292TIP3   OH258290   0.373   5.066  13.481 -0.2623 -0.0818  0.0777
12292TIP3    H158291   0.456   5.032  13.447 -0.8505 -0.1682 -1.3477
12292TIP3    H258292   0.361   5.149  13.435 -0.7473  0.1554  0.6253
12293TIP3   OH258293   2.138   6.494   4.161  0.0348  0.2222 -0.3809
12293TIP3    H158294   2.061   6.515   4.214 -1.5275 -1.2188 -1.9884
12293TIP3    H258295   2.168   6.579   4.128 -0.7599  0.8098  0.3537
12294TIP3   OH258296   3.434   0.399  14.691  0.3754 -0.4655 -0.0309
12294TIP3    H158297   3.408   0.442  14.609  1.2590  0.9057  0.3647
12294TIP3    H258298   3.441   0.307  14.668 -0.5522 -0.2729 -1.1991
12295TIP3   OH258299   4.790   2.271  12.238  0.5935  0.6797 -0.3375
12295TIP3    H158300   4.806   2.325  12.160 -1.3122 -0.8033 -1.8393
12295TIP3    H258301   4.784   2.182  12.204  0.7702 -0.1494  1.6948
12296TIP3   OH258302   6.599   0.691   4.847  0.6247  0.5714  0.6008
12296TIP3    H158303   6.627   0.744   4.922  0.0264  0.5216  0.8717
12296TIP3    H258304   6.519   0.648   4.878 -0.0321  1.1025 -0.3033
12297TIP3   OH258305   0.878   0.774   2.737  1.0568 -0.7077  0.2321
12297TIP3    H158306   0.866   0.863   2.704 -0.4913 -0.2326  1.9358
12297TIP3    H258307   0.826   0.770   2.817  1.2102 -3.1072  0.3030
12298TIP3   OH258308   4.226   5.674   5.019 -0.1439  0.2533  0.3009
12298TIP3    H158309   4.193   5.762   5.000  1.7337  0.6592 -1.3518
12298TIP3    H258310   4.312   5.688   5.058 -1.1800 -0.8159  3.2735
12299TIP3   OH258311   4.577   5.303  16.952 -1.1171 -0.1096  0.0316
12299TIP3    H158312   4.547   5.307  17.043 -0.4833 -1.1818  0.3069
12299TIP3    H258313   4.670   5.325  16.956 -0.6139 -2.0527 -0.0657
12300TIP3   OH258314   6.141   4.880   3.950  0.1199  0.2913 -0.3708
12300TIP3    H158315   6.057   4.911   3.916 -0.5052  0.0942  0.9384
12300TIP3    H258316   6.181   4.958   3.989 -0.4004 -0.0267  0.8397
12301TIP3   OH258317   2.347   6.028   4.778 -0.0522  0.5726 -0.3124
12301TIP3    H158318   2.285   6.073   4.836 -0.9723  1.2653 -1.7600
12301TIP3    H258319   2.427   6.079   4.784 -0.4721  1.2666 -0.4277
12302TIP3   OH258320   3.863   1.860   2.655 -0.0464  0.0938  0.3091
12302TIP3    H158321   3.829   1.826   2.738  0.0493 -0.6403  0.0562
12302TIP3    H258322   3.958   1.844   2.660 -0.0162  0.2208  0.1358
12303TIP3   OH258323   0.745   3.920   0.080 -0.0417 -0.2982  0.0587
12303TIP3    H158324   0.694   3.922  -0.001 -0.5733 -1.9017  0.3251
12303TIP3    H258325   0.716   3.841   0.125  0.3322  0.4827  1.7704
12304TIP3   OH258326   1.196   2.418  11.371 -0.0219 -0.5613  0.0633
12304TIP3    H158327   1.134   2.372  11.427  0.1715 -0.5566  0.2820
12304TIP3    H258328   1.281   2.383  11.395  0.1676  0.1956  0.5221
12305TIP3   OH258329   2.869   0.439  14.843 -0.1735 -0.7227 -0.3532
12305TIP3    H158330   2.800   0.485  14.796  0.3920  0.2555 -0.2420
12305TIP3    H258331   2.939   0.504  14.854  0.2107 -1.2926  0.7368
12306TIP3   OH258332   6.145   4.337  11.714  0.6916  0.4985 -0.2090
12306TIP3    H158333   6.126   4.430  11.704  0.6606  0.3986 -1.1592
12306TIP3    H258334   6.180   4.310  11.629  0.0387 -0.5118 -0.1716
12307TIP3   OH258335   0.588   0.292  11.588  0.5398 -0.1884 -0.2735
12307TIP3    H158336   0.504   0.252  11.612 -0.1548  0.5569 -1.3163
12307TIP3    H258337   0.647   0.272  11.660 -0.0407 -2.2414 -0.3251
12308TIP3   OH258338   2.855   6.556   1.167  0.2170  0.1195  0.0773
12308TIP3    H158339   2.927   6.616   1.145 -0.0224 -0.0408 -1.2692
12308TIP3    H258340   2.794   6.565   1.093  0.7009 -2.5845 -0.7572
12309TIP3   OH258341   4.573   1.971  16.837  0.6825 -0.3432 -0.0491
12309TIP3    H158342   4.615   2.004  16.916  0.0967 -0.3696  0.2779
12309TIP3    H258343   4.645   1.956  16.776  1.0884  0.2097  0.2819
12310TIP3   OH258344   0.539   0.463  15.564  0.3687 -0.3489 -0.1230
12310TIP3    H158345   0.545   0.552  15.598  0.8509 -0.4243  0.0031
12310TIP3    H258346   0.554   0.407  15.640  0.3246 -0.5317 -0.2485
12311TIP3   OH258347   0.100   1.498   1.633 -0.1808  0.5459  0.1875
12311TIP3    H158348   0.129   1.572   1.580 -2.8268  0.6022 -1.3733
12311TIP3    H258349   0.155   1.425   1.605 -0.1454  1.0658 -1.1480
12312TIP3   OH258350   2.566   2.857  13.261 -0.1340 -0.0035 -0.1146
12312TIP3    H158351   2.596   2.921  13.197  0.2347  0.2992  0.3523
12312TIP3    H258352   2.621   2.873  13.338  0.3417 -1.2455 -0.1785
12313TIP3   OH258353   0.219   6.565  15.615  0.4752  0.2336  0.3479
12313TIP3    H158354   0.150   6.548  15.679  1.2248  0.0783  1.1246
12313TIP3    H258355   0.173   6.569  15.531 -0.9530  3.4384  1.1540
12314TIP3   OH258356   4.773   0.845  10.722  0.1365 -0.3484 -0.0984
12314TIP3    H158357   4.772   0.749  10.727 -1.4557 -0.4612 -1.6438
12314TIP3    H258358   4.865   0.869  10.727  0.4694 -1.8081  2.2947
12315TIP3   OH258359   2.545   6.582  16.065 -0.2125 -0.0589 -0.2332
12315TIP3    H158360   2.475   6.611  16.123  2.3859  2.4563  1.9282
12315TIP3    H258361   2.561   6.656  16.006  1.8422  0.2532  0.6289
12316TIP3   OH258362   3.988   6.705  13.600  0.4396 -0.1561 -0.2018
12316TIP3    H158363   4.076   6.695  13.637 -0.2830 -0.8194  1.4341
12316TIP3    H258364   4.002   6.707  13.506  2.2920  0.7006  0.0432
12317TIP3   OH258365   0.507   3.753   6.169 -0.1839 -0.0665 -0.4383
12317TIP3    H158366   0.509   3.658   6.181  1.7266 -0.1954 -1.3441
12317TIP3    H258367   0.443   3.767   6.099  1.0830 -0.9546 -1.8506
12318TIP3   OH258368   2.152   5.379  14.126  0.4856 -0.8427  0.7072
12318TIP3    H158369   2.215   5.310  14.148  1.1901 -0.3408  0.2782
12318TIP3    H258370   2.112   5.402  14.210  1.0718 -0.9779  1.0306
12319TIP3   OH258371   6.222   0.323  15.030 -0.3098 -0.0535 -0.4419
12319TIP3    H158372   6.291   0.331  14.963 -0.5200 -1.4535 -0.8746
12319TIP3    H258373   6.159   0.262  14.991 -1.8895  1.3033 -0.1056
12320TIP3   OH258374   4.403   6.270  10.431 -0.3781 -0.3913 -0.5080
12320TIP3    H158375   4.327   6.328  10.439 -0.6630 -0.8572  0.3197
12320TIP3    H258376   4.463   6.300  10.500  0.4061  0.2678 -1.4461
12321TIP3   OH258377   4.427   1.489   0.653 -0.0205  0.1536 -0.2953
12321TIP3    H158378   4.482   1.439   0.713 -0.2541  2.4635  2.0388
12321TIP3    H258379   4.383   1.423   0.600  1.2134 -1.9773  1.1785
12322TIP3   OH258380   5.178   4.081  15.711 -0.4223  0.1870 -0.9499
12322TIP3    H158381   5.206   4.103  15.800 -1.2240  0.6534 -0.7998
12322TIP3    H258382   5.257   4.051  15.668  0.7022  2.9569 -1.0236
12323TIP3   OH258383   0.055   2.196   2.571  0.3746  0.4499  0.1538
12323TIP3    H158384   0.100   2.129   2.521  0.1655 -0.0330  0.6061
12323TIP3    H258385  -0.013   2.149   2.619 -0.7089  1.1745 -0.6092
12324TIP3   OH258386   3.271   1.056  16.937  0.2756  0.1038 -0.1754
12324TIP3    H158387   3.244   1.062  16.845 -1.0049  0.4842  0.2063
12324TIP3    H258388   3.356   1.101  16.940  0.3212  0.1143 -1.1616
12325TIP3   OH258389   2.227   5.468   5.338 -0.0329  0.6100  0.0984
12325TIP3    H158390   2.223   5.555   5.377 -0.4516  0.1051  1.2315
12325TIP3    H258391   2.135   5.445   5.322  0.0901  0.4834 -0.4283
12326TIP3   OH258392   1.567   2.835  17.147 -0.1127  0.1643  0.4153
12326TIP3    H158393   1.592   2.811  17.237  0.2028  0.8693  0.5249
12326TIP3    H258394   1.637   2.894  17.119 -1.4478  1.8946  0.5816
12327TIP3   OH258395   1.220   0.107   6.676 -0.2279  0.1817  0.4626
12327TIP3    H158396   1.213   0.153   6.592 -0.1971  0.7408  0.7676
12327TIP3    H258397   1.239   0.016   6.651  2.7494  0.8472 -0.1161
12328TIP3   OH258398   4.630   3.860  12.257  0.1880 -0.2785  0.3213
12328TIP3    H158399   4.626   3.793  12.326 -2.7625  0.0521  0.5725
12328TIP3    H258400   4.577   3.932  12.290  1.2902  1.2215 -1.0154
12329TIP3   OH258401   3.823   1.237   4.821  0.0346 -0.1649  0.9792
12329TIP3    H158402   3.798   1.207   4.734  0.6857 -0.2900  0.8272
12329TIP3    H258403   3.917   1.218   4.827 -0.5263 -3.0559  2.8446
12330TIP3   OH258404   1.778   3.416  11.307  0.0551  0.0365 -0.0019
12330TIP3    H158405   1.771   3.511  11.310 -0.2523 -0.0244  1.4139
12330TIP3    H258406   1.751   3.386  11.393  0.5123 -1.3197 -0.2983
12331TIP3   OH258407   6.560   0.038  16.067 -0.1001  0.1850 -0.0542
12331TIP3    H158408   6.519   0.071  16.147 -1.3816 -0.3313 -0.4843
12331TIP3    H258409   6.531  -0.053  16.061  0.0171  0.2089 -1.0910
12332TIP3   OH258410   1.648   1.891   5.152 -0.4350  0.3236  0.3007
12332TIP3    H158411   1.602   1.813   5.120  0.4082 -0.3563  0.7303
12332TIP3    H258412   1.719   1.904   5.089 -1.0983  1.2967 -0.2841
12333TIP3   OH258413   4.314   2.593  14.810  0.3880  0.6578 -0.2823
12333TIP3    H158414   4.308   2.583  14.905 -0.8424 -0.8064 -0.4818
12333TIP3    H258415   4.365   2.673  14.798 -0.3831  1.5017  1.6236
12334TIP3   OH258416   6.239   4.135  16.308  0.1392  0.3497  0.5634
12334TIP3    H158417   6.182   4.182  16.369  0.9784  0.0863  1.5855
12334TIP3    H258418   6.259   4.053  16.353 -2.2758 -1.6279 -1.6648
12335TIP3   OH258419   4.442   1.268   0.523 -0.1524  0.0539 -0.0508
12335TIP3    H158420   4.413   1.224   0.443  1.2911 -0.7057 -0.1850
12335TIP3    H258421   4.453   1.196   0.586  1.9524  0.1982 -0.1786
12336TIP3   OH258422   5.806   1.215  13.616  0.0133  0.0022 -0.4011
12336TIP3    H158423   5.783   1.178  13.702 -1.6563  0.8231 -0.4599
12336TIP3    H258424   5.779   1.147  13.554  0.1170 -0.0930 -0.3430
12337TIP3   OH258425   3.926   3.120  11.714  0.3362 -0.6306 -0.2133
12337TIP3    H158426   3.953   3.085  11.629  0.0772 -0.4135 -0.3902
12337TIP3    H258427   3.874   3.198  11.692  0.9724 -0.0860  0.1748
12338TIP3   OH258428   5.678   4.032  12.321  0.2247 -0.1063  0.0821
12338TIP3    H158429   5.725   4.042  12.403 -0.4359  1.6476  0.3089
12338TIP3    H258430   5.597   3.987  12.345 -0.7008  1.7869  0.7564
12339TIP3   OH258431   4.217   4.185   2.014 -0.0852  0.1901 -0.6831
12339TIP3    H158432   4.291   4.223   1.967  2.1114 -1.0871  1.5467
12339TIP3    H258433   4.217   4.093   1.989  0.0603 -0.1416  0.5037
12340TIP3   OH258434   1.588   0.511  15.965  0.2704  0.0700 -0.4255
12340TIP3    H158435   1.504   0.475  15.994 -0.3380  1.2432 -0.6630
12340TIP3    H258436   1.633   0.535  16.046  0.8355 -1.5273 -0.2509
12341TIP3   OH258437   0.054   0.172  16.684 -0.2536 -0.0693 -0.2936
12341TIP3    H158438   0.127   0.175  16.623  0.0859  1.9020  0.1191
12341TIP3    H258439  -0.012   0.229  16.645 -1.1221 -0.9260 -0.1085
12342TIP3   OH258440   5.650   5.120   2.008  0.0536  0.0430  0.5743
12342TIP3    H158441   5.692   5.054   2.062  0.8254  0.7126  0.8272
12342TIP3    H258442   5.579   5.074   1.963  0.8157 -1.0318  0.4411
12343TIP3   OH258443   4.384   3.662  14.013 -0.6950  0.1723 -0.4887
12343TIP3    H158444   4.468   3.626  14.038 -0.8725 -0.4095 -0.7216
12343TIP3    H258445   4.389   3.674  13.918 -0.4746  1.1979 -0.3637
12344TIP3   OH258446   3.885   2.627   5.561 -0.2560 -0.1052  0.0363
12344TIP3    H158447   3.960   2.655   5.614 -0.1923 -1.9389  0.9937
12344TIP3    H258448   3.922   2.565   5.498 -0.6439  0.6185 -0.9307
12345TIP3   OH258449   3.020   5.149   4.338  0.5040 -0.3110  0.4945
12345TIP3    H158450   3.110   5.130   4.314  0.7818  1.9852 -0.5345
12345TIP3    H258451   2.973   5.153   4.254  0.0283  1.0361  0.7966
12346TIP3   OH258452   6.079   3.757  13.114  0.4122  0.6550 -0.0368
12346TIP3    H158453   6.104   3.846  13.135  2.1287  0.2975 -0.3896
12346TIP3    H258454   6.160   3.706  13.124  0.1429 -0.3877 -2.4308
12347TIP3   OH258455   0.837   0.824  11.880 -0.3877  0.4062 -0.1320
12347TIP3    H158456   0.768   0.873  11.835  0.4425  0.9266 -0.8619
12347TIP3    H258457   0.897   0.796  11.811 -0.3058 -0.7888  0.3894
12348TIP3   OH258458   5.295   6.641  11.476  0.1221  0.6498  0.1348
12348TIP3    H158459   5.369   6.693  11.444 -1.1973  1.9054 -1.0320
12348TIP3    H258460   5.267   6.591  11.399 -1.2997  1.5153  0.0577
12349TIP3   OH258461   2.323   5.362   5.840 -0.0281  0.4694  0.0289
12349TIP3    H158462   2.389   5.412   5.887  0.6091 -0.8236  0.5782
12349TIP3    H258463   2.283   5.307   5.908 -0.8505  0.3906 -0.5076
12350TIP3   OH258464   0.935   5.809  15.815 -0.4931  0.0637  0.2174
12350TIP3    H158465   0.857   5.822  15.762 -1.1567 -0.3738  1.0615
12350TIP3    H258466   0.915   5.734  15.870 -0.2562  1.1438  1.8572
12351TIP3   OH258467   0.679   4.434  13.316 -0.5977  0.6023 -0.1879
12351TIP3    H158468   0.622   4.422  13.240  0.2948 -0.6114 -0.7050
12351TIP3    H258469   0.655   4.362  13.375  0.6260 -0.1439 -0.5727
12352TIP3   OH258470   2.032   4.914  15.931 -0.0423 -0.4073  0.2756
12352TIP3    H158471   1.977   4.970  15.877 -1.7380 -0.8048  1.4982
12352TIP3    H258472   2.113   4.904  15.881 -1.2431 -0.1789 -1.8311
12353TIP3   OH258473   0.903   0.730   4.062 -0.0307  0.3982  0.9424
12353TIP3    H158474   0.928   0.778   4.141  1.3812  0.2583  0.6106
12353TIP3    H258475   0.910   0.795   3.992 -2.9385  0.9997  1.0749
12354TIP3   OH258476   1.380   5.478  13.492  0.6810 -0.2099  0.1139
12354TIP3    H158477   1.342   5.462  13.579 -1.0934  1.4041 -0.2904
12354TIP3    H258478   1.333   5.417  13.435  0.4780  0.0541 -0.0018
12355TIP3   OH258479   0.040   4.465  13.770  0.2750 -0.5572  0.0124
12355TIP3    H158480   0.031   4.545  13.717  0.9314  0.2133  1.0206
12355TIP3    H258481   0.050   4.395  13.706  0.5390  0.2794 -0.8901
12356TIP3   OH258482   3.532   3.970  14.851  0.1835 -0.1833 -0.5008
12356TIP3    H158483   3.501   3.931  14.933 -0.2782 -0.4125 -0.7828
12356TIP3    H258484   3.589   4.042  14.879 -2.7369  2.0939  0.1004
12357TIP3   OH258485   0.059   2.711   3.831 -0.2480  0.0365 -0.1151
12357TIP3    H158486   0.086   2.717   3.923  0.6853  0.5928 -0.4134
12357TIP3    H258487   0.141   2.715   3.781 -0.8777  3.1840 -1.1226
12358TIP3   OH258488   1.217   1.855  16.219 -0.4668  0.1163  0.1595
12358TIP3    H158489   1.193   1.861  16.127  0.1101  0.4366  0.0267
12358TIP3    H258490   1.270   1.933  16.236  0.1925 -0.3930  0.5241
12359TIP3   OH258491   5.195   3.694  11.061 -0.4192  0.4471  0.7507
12359TIP3    H158492   5.185   3.637  10.984 -1.6443 -0.1271  1.3171
12359TIP3    H258493   5.282   3.733  11.050 -0.4266  0.1192 -0.7531
12360TIP3   OH258494   6.038   2.539   1.855  0.0347 -0.2166  0.2129
12360TIP3    H158495   6.031   2.540   1.760  1.6912  0.8753  0.0554
12360TIP3    H258496   6.038   2.446   1.877  1.5738 -0.5842 -1.0828
12361TIP3   OH258497   4.161   0.153  16.591 -0.1578 -0.2464  0.3655
12361TIP3    H158498   4.070   0.143  16.619  0.0138  0.0606  1.0500
12361TIP3    H258499   4.177   0.247  16.593 -0.3518 -0.1490 -1.4856
12362TIP3   OH258500   3.397   3.831   0.886 -0.0723 -0.1674  0.0226
12362TIP3    H158501   3.453   3.905   0.862  0.7182 -0.7523  0.0289
12362TIP3    H258502   3.342   3.865   0.956 -1.0463  0.9766 -1.2248
12363TIP3   OH258503   2.661   3.784   0.625  0.4182  0.1650 -0.0639
12363TIP3    H158504   2.718   3.764   0.551  1.2979  0.8919  0.3902
12363TIP3    H258505   2.627   3.871   0.605 -1.6420 -0.7861 -0.9767
12364TIP3   OH258506   6.406   1.214  14.974  0.1781 -0.6110  0.4499
12364TIP3    H158507   6.476   1.224  14.909 -0.3065  0.3621  0.0556
12364TIP3    H258508   6.348   1.148  14.936  0.0353 -0.2367 -0.0011
12365TIP3   OH258509   2.492   0.994   0.250 -0.3050 -0.1378  0.4825
12365TIP3    H158510   2.518   0.907   0.281 -0.5291 -0.1806  0.5511
12365TIP3    H258511   2.559   1.018   0.186 -1.5431 -1.4157 -1.3860
12366TIP3   OH258512   0.889   1.209  13.232  0.0551  0.0329  0.6162
12366TIP3    H158513   0.812   1.236  13.183 -0.2759  0.9967  1.6282
12366TIP3    H258514   0.866   1.224  13.323  1.1122 -0.5430  0.9951
12367TIP3   OH258515   5.937   4.647   2.523  0.4087  0.5014  0.2395
12367TIP3    H158516   5.972   4.558   2.516  2.3911  1.2453  0.1479
12367TIP3    H258517   5.916   4.658   2.616  2.1239  0.6142  0.6368
12368TIP3   OH258518   2.317   4.262   2.261  0.0266  0.1706  0.3869
12368TIP3    H158519   2.331   4.342   2.211 -0.0742  0.4282  0.7610
12368TIP3    H258520   2.230   4.232   2.235 -0.4992  0.9182  1.2282
12369TIP3   OH258521   5.860   3.608   1.706  0.2817 -0.4130  0.0367
12369TIP3    H158522   5.824   3.520   1.717  0.0860 -0.7926 -2.7730
12369TIP3    H258523   5.791   3.655   1.658  0.1863  1.4557  1.9101
12370TIP3   OH258524   3.070   0.467   0.265  0.4439  0.0797  0.3008
12370TIP3    H158525   3.082   0.386   0.216 -1.6213  0.0016 -0.1990
12370TIP3    H258526   3.035   0.440   0.350  1.4246  0.3662  0.8064
12371TIP3   OH258527   5.297   4.785  16.576  0.3031  0.6865  0.0805
12371TIP3    H158528   5.368   4.793  16.638  1.7693 -0.4394 -1.3825
12371TIP3    H258529   5.291   4.871  16.535  1.4006  0.5491 -0.3774
12372TIP3   OH258530   3.839   4.978   0.396  0.4305  0.1999 -0.8278
12372TIP3    H158531   3.855   4.933   0.313  0.5759 -0.3119 -0.5271
12372TIP3    H258532   3.853   4.911   0.463  0.3005  0.6038 -0.3887
12373TIP3   OH258533   2.827   0.269   0.831  0.0737  0.1832  0.2450
12373TIP3    H158534   2.909   0.300   0.870  0.1129 -0.4747  0.6905
12373TIP3    H258535   2.834   0.294   0.739  0.2802  1.1456  0.5082
12374TIP3   OH258536   1.450   2.079  15.431 -0.3657 -0.8695 -0.3328
12374TIP3    H158537   1.431   2.103  15.341 -1.0540  1.5711  0.3867
12374TIP3    H258538   1.483   1.990  15.426  1.0536 -0.2745 -3.1483
12375TIP3   OH258539   1.997   6.224  12.028 -0.1137  0.4576  0.1676
12375TIP3    H158540   1.965   6.214  11.939 -0.2830  1.6661  0.0837
12375TIP3    H258541   2.005   6.134  12.061 -0.6147  0.0298 -0.8543
12376TIP3   OH258542   1.072   4.034  15.902 -0.2357 -0.2983 -0.2828
12376TIP3    H158543   1.083   4.112  15.849  0.9226 -1.4719 -1.8768
12376TIP3    H258544   0.993   3.992  15.866 -1.0535  0.2605  0.7920
12377TIP3   OH258545   1.720   5.175   4.966  0.3986 -0.9815 -0.1253
12377TIP3    H158546   1.627   5.186   4.983  0.8009  1.6266  0.7560
12377TIP3    H258547   1.731   5.197   4.873  0.1895 -1.0336 -0.1617
12378TIP3   OH258548   5.753   3.636   2.788  0.3731  0.2205 -0.5919
12378TIP3    H158549   5.732   3.573   2.719 -0.0227  1.4009 -1.6132
12378TIP3    H258550   5.838   3.672   2.763  1.2750 -0.8962  0.7597
12379TIP3   OH258551   1.567   5.316  15.372  0.2493 -0.4950  0.0238
12379TIP3    H158552   1.514   5.378  15.422  1.8750  1.8046 -0.9045
12379TIP3    H258553   1.576   5.357  15.285  1.3989 -2.0413 -0.6345
12380TIP3   OH258554   4.968   0.183  13.361 -0.2727  0.5189 -0.3787
12380TIP3    H158555   4.912   0.113  13.394 -0.3640  0.2906 -1.0094
12380TIP3    H258556   5.051   0.141  13.342 -0.0361  0.7624  0.0914
12381TIP3   OH258557   2.377   5.474  16.282  0.0470 -0.6509  0.0740
12381TIP3    H158558   2.334   5.502  16.201 -0.3021  1.5280  0.9413
12381TIP3    H258559   2.465   5.450  16.255  0.0057  0.2463 -0.9393
12382TIP3   OH258560   0.713   2.849  12.890 -0.3877  0.0269 -0.4388
12382TIP3    H158561   0.722   2.815  12.979  0.3058  0.6873 -0.2494
12382TIP3    H258562   0.769   2.793  12.836  0.9693  1.0038 -0.0825
12383TIP3   OH258563   1.701   1.899   1.602  0.3224  0.3578  0.3452
12383TIP3    H158564   1.605   1.905   1.608  0.3028  1.0264 -0.4903
12383TIP3    H258565   1.717   1.866   1.514  0.8668  0.2913  0.4700
12384TIP3   OH258566   3.701   5.308   4.080 -0.4042  0.2762 -0.0251
12384TIP3    H158567   3.629   5.245   4.081 -0.0894 -0.1487 -1.4247
12384TIP3    H258568   3.658   5.392   4.067 -0.6127 -0.1666 -2.7874
12385TIP3   OH258569   4.425   2.164  11.191 -0.3948  0.0095  0.3274
12385TIP3    H158570   4.361   2.231  11.214  0.0023  0.5905 -0.2179
12385TIP3    H258571   4.438   2.174  11.096 -0.6279 -1.1043  0.1607
12386TIP3   OH258572   4.372   5.024   4.682  0.3216 -0.2655  0.3923
12386TIP3    H158573   4.403   5.060   4.599 -0.5628 -1.0531 -0.3198
12386TIP3    H258574   4.384   5.094   4.746  1.2091  0.2848 -0.3579
12387TIP3   OH258575   5.540   3.642  14.885  0.2585  0.0340 -0.1189
12387TIP3    H158576   5.530   3.651  14.980 -2.6756 -0.8191 -0.2341
12387TIP3    H258577   5.451   3.648  14.851  1.1917 -0.0294 -2.8100
12388TIP3   OH258578   1.397   5.447   5.453 -0.3549  0.3827  0.1863
12388TIP3    H158579   1.421   5.362   5.417 -2.6800 -0.4369  0.3705
12388TIP3    H258580   1.478   5.482   5.489  0.9606 -1.0817 -1.2020
12389TIP3   OH258581   4.747   3.682  13.702  0.5099 -0.0891 -0.3054
12389TIP3    H158582   4.769   3.720  13.617 -0.0490 -0.5742 -0.6704
12389TIP3    H258583   4.831   3.654  13.737  1.0020  1.7405  0.1239
12390TIP3   OH258584   1.687   2.473   4.571  0.3984 -0.0364  0.1751
12390TIP3    H158585   1.635   2.432   4.640 -1.1445  1.6103  0.0619
12390TIP3    H258586   1.623   2.495   4.503  1.3415  1.4700 -0.2706
12391TIP3   OH258587   0.463   2.935   0.017 -0.3472 -1.0948  0.1388
12391TIP3    H158588   0.480   2.945  -0.077 -0.4515  1.3194  0.3182
12391TIP3    H258589   0.544   2.899   0.053 -0.5586 -2.7452 -0.9484
12392TIP3   OH258590   3.412   1.436  14.265 -0.2198  0.5326 -0.2578
12392TIP3    H158591   3.339   1.491  14.237  0.3002  1.4883  0.2173
12392TIP3    H258592   3.399   1.354  14.218 -1.6314  0.6576 -0.1358
12393TIP3   OH258593   6.560   6.351   1.722 -0.2968  0.2251  0.0209
12393TIP3    H158594   6.522   6.437   1.736  2.1490  1.0420  2.7859
12393TIP3    H258595   6.654   6.367   1.712 -0.0985 -1.9154 -2.9205
12394TIP3   OH258596   3.395   4.852  15.275  0.2447  0.5667 -0.0885
12394TIP3    H158597   3.415   4.764  15.242 -0.9707 -0.2663  1.2480
12394TIP3    H258598   3.394   4.908  15.198 -0.6568 -0.9339 -1.1982
12395TIP3   OH258599   5.809   0.688  17.080  0.3060 -0.5944  0.3061
12395TIP3    H158600   5.759   0.632  17.020 -1.0517 -0.6111  1.4205
12395TIP3    H258601   5.852   0.751  17.022 -0.9328 -0.6313 -0.7052
12396TIP3   OH258602   4.636   2.806  11.363 -0.2141 -0.0390  0.3785
12396TIP3    H158603   4.665   2.760  11.441 -1.2950 -0.2454  0.6782
12396TIP3    H258604   4.660   2.748  11.290 -1.5393 -1.0847  0.7495
12397TIP3   OH258605   1.488   3.492  12.027  0.2231 -0.2406  0.0000
12397TIP3    H158606   1.433   3.522  12.100 -0.3235  0.8166 -0.8235
12397TIP3    H258607   1.526   3.410  12.058 -0.3630 -0.0444  1.2980
12398TIP3   OH258608   6.683   0.940   1.772  0.1576  0.3412  0.5830
12398TIP3    H158609   6.685   0.924   1.867  0.9860 -0.8115  0.3929
12398TIP3    H258610   6.617   0.879   1.739 -1.1395  1.7094  0.5556
12399TIP3   OH258611   1.275   0.912  14.922  0.1391 -0.2059 -0.7781
12399TIP3    H158612   1.217   0.836  14.929  2.5825 -2.2707 -1.1406
12399TIP3    H258613   1.287   0.942  15.012 -0.1500 -0.8297 -0.5293
12400TIP3   OH258614   6.073   4.474  15.389  0.0887  0.2364  0.4428
12400TIP3    H158615   6.062   4.398  15.446  2.3415 -0.2100  0.3520
12400TIP3    H258616   6.132   4.445  15.320  0.8126  1.9661  0.2641
12401TIP3   OH258617   2.793   2.157   5.758 -0.0089 -0.5742 -0.2838
12401TIP3    H158618   2.816   2.067   5.783 -1.7594 -1.0613 -0.3138
12401TIP3    H258619   2.766   2.150   5.667  1.3044  0.2803 -0.7599
12402TIP3   OH258620   6.373   4.169   4.503  0.3764  0.3051  0.1318
12402TIP3    H158621   6.465   4.166   4.476  0.3774 -1.6891  0.1951
12402TIP3    H258622   6.376   4.197   4.594  0.6948  2.6548 -0.5315
12403TIP3   OH258623   5.578   6.507  10.415 -0.1636  0.5130  0.0702
12403TIP3    H158624   5.655   6.558  10.390  0.8954 -2.1237 -2.6521
12403TIP3    H258625   5.608   6.451  10.487  0.4648 -0.3818 -0.8655
12404TIP3   OH258626   2.744   5.628  12.766 -0.1189  0.5777 -0.1701
12404TIP3    H158627   2.790   5.588  12.693  1.5349 -0.3013  1.2888
12404TIP3    H258628   2.810   5.682  12.810 -0.6421 -0.1214  1.5573
12405TIP3   OH258629   5.967   0.092   1.315 -0.2270  0.6655  0.6271
12405TIP3    H158630   5.948   0.145   1.392 -0.1272  1.4975  0.0937
12405TIP3    H258631   5.894   0.110   1.255 -0.7149 -0.5713  0.8203
12406TIP3   OH258632   6.334   1.351  15.373  0.1483 -0.1218 -0.0226
12406TIP3    H158633   6.408   1.301  15.338  1.5495  1.4624  0.5825
12406TIP3    H258634   6.285   1.378  15.296  1.9402  1.4175 -0.6793
12407TIP3   OH258635   3.465   2.405  12.572  0.5447  0.2139  0.3845
12407TIP3    H158636   3.554   2.394  12.540  0.4993 -2.3517  0.8930
12407TIP3    H258637   3.458   2.342  12.644 -1.6033  0.5162  0.5032
12408TIP3   OH258638   5.086   4.600   3.904 -0.0965  0.7635  0.4009
12408TIP3    H158639   5.147   4.603   3.831 -0.7139  1.3709 -0.1003
12408TIP3    H258640   5.075   4.507   3.922  0.4197  0.6263  0.0353
12409TIP3   OH258641   5.013   2.207  15.497  0.4498  0.6088 -0.0498
12409TIP3    H158642   4.944   2.142  15.489  1.1973 -0.0527 -1.5495
12409TIP3    H258643   5.033   2.210  15.591 -1.1760  0.3927  0.3277
12410TIP3   OH258644   3.383   4.166  14.726 -0.1141 -0.1007 -0.4705
12410TIP3    H158645   3.393   4.151  14.632  2.3103  0.1706 -0.3233
12410TIP3    H258646   3.407   4.082  14.766 -2.9888 -0.8460 -0.0577
12411TIP3   OH258647   2.588   3.031  16.728 -0.4842  0.2652  0.0225
12411TIP3    H158648   2.671   3.075  16.747  0.5707 -1.1671 -1.1052
12411TIP3    H258649   2.560   3.069  16.645 -0.2823 -0.1846 -0.2539
12412TIP3   OH258650   1.246   4.926   0.386 -0.1538 -0.6583  0.7318
12412TIP3    H158651   1.186   5.001   0.380  1.3382  0.7865  2.4118
12412TIP3    H258652   1.246   4.903   0.479  0.8327 -1.5325  0.5347
12413TIP3   OH258653   0.335   2.797   0.920 -0.0717  0.4025  0.4739
12413TIP3    H158654   0.421   2.759   0.936  0.7610  1.7171 -0.6768
12413TIP3    H258655   0.340   2.885   0.957 -1.4032  0.0426  1.6066
12414TIP3   OH258656   6.101   2.886   5.518  0.5020  0.1826 -0.0671
12414TIP3    H158657   6.046   2.851   5.588  1.1789 -2.8752 -0.9333
12414TIP3    H258658   6.043   2.890   5.442  0.5115  0.7991 -0.0534
12415TIP3   OH258659   2.058   5.658   0.717  0.4855 -0.2345  0.1265
12415TIP3    H158660   2.050   5.670   0.622  1.5459 -0.4589 -0.0063
12415TIP3    H258661   2.148   5.683   0.736 -0.5637  2.9671  1.5966
12416TIP3   OH258662   6.120   1.742   0.507 -0.0636  0.3006 -0.9762
12416TIP3    H158663   6.041   1.778   0.547 -0.2669 -0.8669 -0.2940
12416TIP3    H258664   6.164   1.818   0.469 -2.0054  0.8607 -2.2628
12417TIP3   OH258665   5.491   0.718   1.979 -0.0469  1.0107  0.4478
12417TIP3    H158666   5.422   0.724   1.914 -0.6807  3.1495  1.2295
12417TIP3    H258667   5.445   0.718   2.063  0.8202 -0.0058  0.9506
12418TIP3   OH258668   6.595   6.081   1.612 -0.1681  0.2447 -0.2942
12418TIP3    H158669   6.685   6.072   1.644 -0.7138 -1.6736  0.8106
12418TIP3    H258670   6.568   6.169   1.641  1.0282  0.4781  0.1549
12419TIP3   OH258671   1.589   3.021  13.974 -0.0017  0.0654 -0.5616
12419TIP3    H158672   1.666   2.997  14.026  0.3008  0.3000 -0.8963
12419TIP3    H258673   1.518   3.027  14.038  0.4286  0.6347 -0.1250
12420TIP3   OH258674   4.185   5.938  14.378 -0.2352 -0.4676  0.5607
12420TIP3    H158675   4.202   5.953  14.285 -2.3158  0.5116  0.2795
12420TIP3    H258676   4.150   5.849  14.382 -0.1098 -0.5234  0.3943
12421TIP3   OH258677   6.234   4.410   5.637 -0.0071 -0.2036 -0.1318
12421TIP3    H158678   6.163   4.380   5.579  0.0468 -0.4885 -0.0542
12421TIP3    H258679   6.313   4.368   5.603  0.0187 -0.4073  0.1733
12422TIP3   OH258680   0.314   6.755   2.125  0.2282 -0.2224  0.1187
12422TIP3    H158681   0.269   6.839   2.135 -1.7877 -1.1063 -0.9150
12422TIP3    H258682   0.406   6.774   2.145  0.0176  2.4334 -1.0104
12423TIP3   OH258683   6.347   2.379   2.503 -0.1808 -0.3016 -0.0098
12423TIP3    H158684   6.389   2.300   2.471  1.9113  0.4475  0.7105
12423TIP3    H258685   6.253   2.363   2.490  0.2633 -2.1919 -1.3844
12424TIP3   OH258686   3.947   4.206   6.632 -0.1068 -0.4742  0.4074
12424TIP3    H158687   3.870   4.261   6.621  0.2727  0.3187  1.4638
12424TIP3    H258688   3.926   4.125   6.587 -1.2799 -0.0170  0.0974
12425TIP3   OH258689   6.411   6.334  13.204  0.1443  0.1338  0.2536
12425TIP3    H158690   6.422   6.375  13.118 -0.2281 -0.2909 -0.0003
12425TIP3    H258691   6.429   6.241  13.190 -0.6426 -0.0654  0.4679
12426TIP3   OH258692   5.360   4.846  15.772 -0.0813  0.4816  0.4599
12426TIP3    H158693   5.330   4.789  15.843  1.8334 -0.4225  0.5805
12426TIP3    H258694   5.392   4.925  15.817 -0.2168  0.5291  0.4762
12427TIP3   OH258695   0.098   0.649   4.422  0.5792 -0.2414 -0.3587
12427TIP3    H158696   0.063   0.735   4.398  1.4659  0.1238 -0.3965
12427TIP3    H258697   0.022   0.591   4.425 -0.1215  0.6895  0.3195
12428TIP3   OH258698   1.977   0.020   4.407 -0.3719 -0.1408  0.0616
12428TIP3    H158699   2.051   0.045   4.463  0.1904 -0.7903 -0.3707
12428TIP3    H258700   2.008   0.037   4.318 -1.2962  0.9700 -0.0655
12429TIP3   OH258701   1.642   3.905   5.679  0.1409 -0.1320 -0.1381
12429TIP3    H158702   1.733   3.931   5.687  0.9538 -1.9805 -2.3863
12429TIP3    H258703   1.612   3.945   5.597 -1.6073  1.6814  1.2666
12430TIP3   OH258704   0.677   5.232   4.408 -0.0463 -0.0384  0.1333
12430TIP3    H158705   0.637   5.244   4.322 -0.8015  1.0507  0.6163
12430TIP3    H258706   0.757   5.285   4.405  0.5911 -1.0023 -0.3112
12431TIP3   OH258707   5.520   0.666   0.925 -0.3354 -0.2758  0.4266
12431TIP3    H158708   5.522   0.709   0.840  0.1251  1.2958  1.2019
12431TIP3    H258709   5.587   0.711   0.977 -0.3708 -1.4284  1.5161
12432TIP3   OH258710   5.019   4.749  11.878  0.5495  0.0991  0.8638
12432TIP3    H158711   5.091   4.696  11.912 -0.6840 -0.4589  2.8180
12432TIP3    H258712   5.034   4.836  11.916  1.4660  0.6504 -0.6923
12433TIP3   OH258713   4.063   2.791  17.107 -0.1533  0.1102  0.2305
12433TIP3    H158714   3.989   2.747  17.066  0.4800 -1.2204  0.4602
12433TIP3    H258715   4.036   2.803  17.198 -0.2099 -0.0883  0.2393
12434TIP3   OH258716   2.057   3.603  11.980  0.6247  0.7868  0.1228
12434TIP3    H158717   2.099   3.595  11.894 -0.0135 -2.4630 -0.0090
12434TIP3    H258718   1.964   3.592  11.963  0.5389 -0.5469  1.2215
12435TIP3   OH258719   3.641   2.133   5.205 -0.0092  0.5565  0.1768
12435TIP3    H158720   3.558   2.175   5.227 -0.2990  0.0408  0.0774
12435TIP3    H258721   3.699   2.155   5.278  0.4723  2.7988 -0.7877
12436TIP3   OH258722   5.608   2.022  13.829 -0.3317 -0.0862  0.3717
12436TIP3    H158723   5.574   2.017  13.740  0.3609  0.9823  0.0238
12436TIP3    H258724   5.560   2.094  13.870  0.4801  0.5022  0.3237
12437TIP3   OH258725   6.445   6.208  13.617 -0.1370  0.1756 -0.3588
12437TIP3    H158726   6.356   6.222  13.584  0.7074  0.9202 -2.5247
12437TIP3    H258727   6.484   6.145  13.556  0.2938 -1.6007  1.6399
12438TIP3   OH258728   5.935   4.390   3.860 -0.4045 -0.0120 -0.2374
12438TIP3    H158729   5.995   4.455   3.896 -1.5631 -0.1331  2.1256
12438TIP3    H258730   5.862   4.441   3.826 -0.6522  0.0040  0.3048
12439TIP3   OH258731   6.193   5.033  15.490  0.4135  0.0930  0.0140
12439TIP3    H158732   6.196   4.969  15.420  0.3771 -0.7997  0.8102
12439TIP3    H258733   6.257   5.002  15.554  1.6790  1.7858 -0.3545
12440TIP3   OH258734   5.433   3.889  12.044  0.0625  0.4420 -0.2879
12440TIP3    H158735   5.391   3.975  12.047  1.7315  1.2942 -0.2677
12440TIP3    H258736   5.423   3.854  12.132 -1.3482  0.2208 -0.5089
12441TIP3   OH258737   1.051   1.740  13.137 -0.3746  0.1463  0.3848
12441TIP3    H158738   1.139   1.737  13.174  0.6050 -0.9671 -1.8461
12441TIP3    H258739   1.015   1.653  13.152  0.2014 -0.4604 -1.5637
12442TIP3   OH258740   5.439   2.663   3.994 -0.4180  0.0684  0.6685
12442TIP3    H158741   5.466   2.746   4.034 -1.7312  0.1394  1.4797
12442TIP3    H258742   5.488   2.659   3.912  2.3248 -0.0281  2.1691
12443TIP3   OH258743   4.491   5.382   2.259  0.7492  0.3384  0.6441
12443TIP3    H158744   4.504   5.303   2.208  0.0628  0.9650 -0.5348
12443TIP3    H258745   4.436   5.354   2.333 -0.8954  0.0251 -0.6526
12444TIP3   OH258746   6.339   4.691  16.515  0.6062  0.2579 -0.0023
12444TIP3    H158747   6.376   4.774  16.485 -0.0870  0.5829  0.0166
12444TIP3    H258748   6.345   4.696  16.610 -0.7820  0.9467  0.0758
12445TIP3   OH258749   1.607   0.867   3.061  0.7134 -0.1044 -0.1940
12445TIP3    H158750   1.587   0.792   3.006 -0.2526  0.6872 -0.9712
12445TIP3    H258751   1.630   0.937   2.999 -3.4866  1.7801 -0.0069
12446TIP3   OH258752   3.151   6.209   4.633 -0.4583 -0.4030 -0.5154
12446TIP3    H158753   3.112   6.291   4.662 -1.8639 -1.1724 -0.1451
12446TIP3    H258754   3.176   6.226   4.542 -1.5157  0.1811 -0.7163
12447TIP3   OH258755   0.444   5.313   0.353  0.7435  0.1272 -0.3518
12447TIP3    H158756   0.463   5.233   0.401  0.6010  0.7275  0.7251
12447TIP3    H258757   0.402   5.283   0.272 -1.0676 -0.8187  0.8677
12448TIP3   OH258758   5.587   2.777  15.774 -0.2016  0.7946  0.0894
12448TIP3    H158759   5.621   2.801  15.688  2.2914  1.6778  1.2355
12448TIP3    H258760   5.526   2.847  15.797 -0.3598  0.9053 -0.6552
12449TIP3   OH258761   4.697   2.620  11.825 -0.7953  0.2328  0.2768
12449TIP3    H158762   4.665   2.529  11.818  1.4626 -0.5278 -1.0142
12449TIP3    H258763   4.711   2.633  11.919 -1.3093 -0.6948  0.4953
12450TIP3   OH258764   2.918   1.983  13.911 -0.3544  0.1625 -0.0511
12450TIP3    H158765   2.854   1.964  13.843  1.3326 -2.9641 -0.9137
12450TIP3    H258766   3.002   1.955  13.875  1.3924  2.7361  1.5999
12451TIP3   OH258767   6.171   0.486  11.823  0.2545 -0.4516 -0.0948
12451TIP3    H158768   6.160   0.399  11.786 -0.4918 -0.5969  0.4478
12451TIP3    H258769   6.156   0.475  11.917  0.2261  0.2472 -0.0048
12452TIP3   OH258770   3.033   1.486   4.772  0.2557  0.5236 -0.0625
12452TIP3    H158771   3.107   1.484   4.833  0.4290 -1.8599 -0.2428
12452TIP3    H258772   2.991   1.571   4.787  0.6802  0.3187  2.9199
12453TIP3   OH258773   2.193   2.038  13.406 -0.2381 -0.0052 -0.1052
12453TIP3    H158774   2.205   1.994  13.490 -0.1491 -1.8171 -1.0165
12453TIP3    H258775   2.149   1.973  13.352 -1.3565  1.5460 -1.1216
12454TIP3   OH258776   4.159   3.485  14.822 -0.1562 -0.0044 -0.0187
12454TIP3    H158777   4.165   3.574  14.787 -0.6107  0.7826  1.7778
12454TIP3    H258778   4.248   3.466  14.853  0.4128 -0.9567 -2.0357
12455TIP3   OH258779   2.361   2.885   2.042  0.8381  0.4626 -0.5667
12455TIP3    H158780   2.296   2.952   2.025 -1.6654 -1.4280  0.8655
12455TIP3    H258781   2.352   2.823   1.969  0.8675  0.0844 -0.2539
12456TIP3   OH258782   6.521   5.334   4.045  0.1114 -0.6635  0.3904
12456TIP3    H158783   6.486   5.419   4.069  1.4952  0.1574 -0.3328
12456TIP3    H258784   6.463   5.302   3.976 -0.7181 -0.5617  1.0286
12457TIP3   OH258785   2.406   4.709  15.361 -0.1963  0.0116 -0.1885
12457TIP3    H158786   2.331   4.769  15.368 -0.0387  0.1559  0.3505
12457TIP3    H258787   2.374   4.627  15.400 -1.1867 -1.0605 -2.9646
12458TIP3   OH258788   0.975   1.247   1.174  0.8042 -0.3317  0.0552
12458TIP3    H158789   1.001   1.336   1.198 -0.1152 -0.0151 -0.0868
12458TIP3    H258790   1.045   1.217   1.115  1.8341 -0.2317  1.1904
12459TIP3   OH258791   0.297   4.790   0.519 -0.0028 -0.5623 -0.2783
12459TIP3    H158792   0.279   4.882   0.540 -1.1289 -1.0986  1.3044
12459TIP3    H258793   0.333   4.792   0.430 -0.3333  1.3666 -0.4109
12460TIP3   OH258794   3.203   2.588   4.398 -0.2821  0.0011  0.0964
12460TIP3    H158795   3.260   2.661   4.425 -0.9748  0.2740  0.8383
12460TIP3    H258796   3.121   2.630   4.372 -0.6849 -0.5082  0.5232
12461TIP3   OH258797   6.027   1.168  11.646  0.3890 -0.4070  0.2795
12461TIP3    H158798   5.959   1.202  11.703 -0.3634  1.2665 -1.5058
12461TIP3    H258799   5.983   1.152  11.562  1.1133 -4.1840  0.4286
12462TIP3   OH258800   5.515   1.977   0.538 -0.5645  0.3484 -0.0776
12462TIP3    H158801   5.528   1.891   0.578  0.4931 -1.1247 -3.2106
12462TIP3    H258802   5.561   2.038   0.595 -1.1981 -1.1431  2.1491
12463TIP3   OH258803   3.590   0.229  15.755  0.3801 -0.0634 -0.0754
12463TIP3    H158804   3.587   0.197  15.665  2.1141  1.1010 -0.6092
12463TIP3    H258805   3.519   0.292  15.761  1.1166  0.9203 -1.1185
12464TIP3   OH258806   0.033   6.700   3.498  1.1969 -0.2916 -0.5198
12464TIP3    H158807  -0.026   6.657   3.435  0.0879 -1.3037  1.1189
12464TIP3    H258808   0.116   6.654   3.488  0.3947 -2.0201  0.2645
12465TIP3   OH258809   2.082   3.213   5.036 -0.2106  0.4196  0.2265
12465TIP3    H158810   2.086   3.259   4.952  0.4369  1.5375  0.8500
12465TIP3    H258811   2.022   3.140   5.020  1.6307 -0.8013 -1.8690
12466TIP3   OH258812   3.244   2.168   1.371 -0.4807 -0.0520  0.3822
12466TIP3    H158813   3.278   2.245   1.325  0.7698 -1.0046 -0.3574
12466TIP3    H258814   3.275   2.178   1.461 -0.8906  0.6237  0.4563
12467TIP3   OH258815   3.296   2.536  11.452 -0.4285 -0.4163 -0.0680
12467TIP3    H158816   3.261   2.561  11.537  0.3590 -0.2472  0.2155
12467TIP3    H258817   3.391   2.537  11.464 -0.3263 -1.5090 -0.6341
12468TIP3   OH258818   5.725   5.829  11.391 -0.1033 -0.1062 -0.3154
12468TIP3    H158819   5.783   5.825  11.315  1.1162 -0.7241  0.6093
12468TIP3    H258820   5.739   5.745  11.436 -0.1954  0.5600  1.0128
12469TIP3   OH258821   5.901   0.911   0.470 -0.2095 -0.0655 -0.2032
12469TIP3    H158822   5.885   0.902   0.564 -1.4330 -0.7746 -0.4551
12469TIP3    H258823   5.990   0.946   0.464 -0.3638  0.6555  1.2311
12470TIP3   OH258824   6.402   2.897  15.706  0.2180  0.5777  0.2512
12470TIP3    H158825   6.428   2.848  15.627 -0.7614 -2.3616  1.6107
12470TIP3    H258826   6.471   2.877  15.770  0.9275  2.8207  0.2479
12471TIP3   OH258827   0.016   1.793   2.342  0.4860 -0.1606 -0.1021
12471TIP3    H158828  -0.034   1.811   2.263 -0.4348 -2.4859 -0.1264
12471TIP3    H258829  -0.049   1.764   2.406  1.2251  1.5196  1.5162
12472TIP3   OH258830   1.450   6.666   5.025  0.1933 -0.0474  0.8616
12472TIP3    H158831   1.440   6.724   5.100  1.4075 -2.2144  2.8087
12472TIP3    H258832   1.536   6.626   5.036  0.0295 -1.1172 -1.1996
12473TIP3   OH258833   4.683   5.995  13.910 -0.0297 -0.3827  0.2958
12473TIP3    H158834   4.686   5.902  13.889  1.1032 -0.3371  0.2097
12473TIP3    H258835   4.634   6.000  13.992 -1.9068 -0.8472 -0.7362
12474TIP3   OH258836   5.413   5.529   1.620 -0.6805 -0.3722 -0.2162
12474TIP3    H158837   5.477   5.582   1.666 -1.2201 -1.1792  1.5237
12474TIP3    H258838   5.333   5.582   1.622 -1.1639 -1.1017  1.3412
12475TIP3   OH258839   5.265   6.517  17.247  0.2976  0.8355 -0.6116
12475TIP3    H158840   5.302   6.429  17.255 -1.1248  0.3119  0.7467
12475TIP3    H258841   5.259   6.531  17.153  0.8600 -0.3870 -0.8590
12476TIP3   OH258842   4.209   4.836  10.909  0.1050  0.5566  0.5515
12476TIP3    H158843   4.301   4.828  10.933 -0.6911  0.4560  3.9537
12476TIP3    H258844   4.192   4.757  10.856  1.1468 -1.4734  3.0073
12477TIP3   OH258845   5.891   0.993  13.443  0.3239 -0.4962  0.3348
12477TIP3    H158846   5.945   0.920  13.410 -0.9892  0.1488 -3.6993
12477TIP3    H258847   5.803   0.955  13.452 -0.0299  0.1964 -0.1934
12478TIP3   OH258848   1.946   6.125   2.333  0.1735 -0.1576  0.1061
12478TIP3    H158849   1.965   6.143   2.241  1.9113  0.3888  0.5280
12478TIP3    H258850   1.878   6.058   2.331 -0.7146  0.7312 -1.5560
12479TIP3   OH258851   5.645   1.711  11.994  0.2069  0.3530  0.2005
12479TIP3    H158852   5.563   1.723  12.042  0.5403  0.8315  0.6662
12479TIP3    H258853   5.645   1.779  11.928 -0.4838 -0.6173 -0.8299
12480TIP3   OH258854   6.364   6.754  11.166  0.2786  0.3638 -0.1031
12480TIP3    H158855   6.334   6.705  11.242 -1.9051 -0.3604 -1.3235
12480TIP3    H258856   6.283   6.786  11.125  1.2259 -0.5153 -2.9127
12481TIP3   OH258857   6.236   3.394  10.916 -0.2488 -0.3532  0.4004
12481TIP3    H158858   6.290   3.344  10.854  0.0266  0.6979 -0.2404
12481TIP3    H258859   6.250   3.350  11.000 -0.6043 -1.7886 -0.2630
12482TIP3   OH258860   0.524   3.746   2.726  0.2294  0.3663 -0.3937
12482TIP3    H158861   0.569   3.826   2.699  1.0357  0.1052  0.1393
12482TIP3    H258862   0.585   3.702   2.785 -0.5003 -0.2833 -0.0902
12483TIP3   OH258863   4.844   2.971   1.598  0.1661  0.1463 -0.3065
12483TIP3    H158864   4.860   3.002   1.687 -0.8767 -2.1922  0.7823
12483TIP3    H258865   4.925   2.925   1.574  0.6025  1.1207 -0.7707
12484TIP3   OH258866   0.396   4.982  10.846  0.3018 -0.1338 -0.5474
12484TIP3    H158867   0.394   5.023  10.760  0.5063  2.4410  0.5494
12484TIP3    H258868   0.486   4.994  10.877  0.0997 -0.5140  0.2320
12485TIP3   OH258869   5.891   6.357  14.562 -0.3351  0.0621  0.3569
12485TIP3    H158870   5.868   6.265  14.573  1.3049 -0.4253 -0.0009
12485TIP3    H258871   5.815   6.405  14.596 -1.5534 -1.3974 -0.1706
12486TIP3   OH258872   5.983   0.693  12.755  0.2130 -0.0639 -0.2712
12486TIP3    H158873   5.961   0.755  12.824 -0.2065  1.4211 -1.6767
12486TIP3    H258874   6.025   0.620  12.801 -3.1863 -0.8632  2.0114
12487TIP3   OH258875   5.985   0.369  10.826 -0.1302  0.1989  0.0638
12487TIP3    H158876   5.999   0.428  10.901  1.1617  0.8015 -0.6100
12487TIP3    H258877   6.069   0.369  10.780 -0.5185 -1.1492 -0.7020
12488TIP3   OH258878   0.434   4.843   5.298  0.2470 -0.5150 -0.1732
12488TIP3    H158879   0.453   4.931   5.264  0.8743  0.2756  2.0289
12488TIP3    H258880   0.476   4.783   5.237  1.4504  0.8094 -0.7010
12489TIP3   OH258881   0.749   2.256  14.863  0.1394  0.0150 -0.0962
12489TIP3    H158882   0.657   2.271  14.883  0.2795  1.6193 -0.5320
12489TIP3    H258883   0.787   2.227  14.946 -0.8357 -1.1094 -0.0257
12490TIP3   OH258884   5.620   1.894   0.281 -0.1247 -0.1401  0.3199
12490TIP3    H158885   5.597   1.931   0.366  2.6780 -1.1373  1.6585
12490TIP3    H258886   5.640   1.969   0.226  1.2737  0.5154  1.6442
12491TIP3   OH258887   3.592   6.103   1.427  0.2598 -0.5512  0.4282
12491TIP3    H158888   3.573   6.026   1.373  0.4133  0.4454 -1.0970
12491TIP3    H258889   3.605   6.174   1.364  1.1795  0.5043  1.7569
12492TIP3   OH258890   0.766   2.415   3.878 -0.0653  0.5117  0.1055
12492TIP3    H158891   0.719   2.425   3.796 -1.1990  0.1618  0.6903
12492TIP3    H258892   0.719   2.470   3.940  0.8954  0.9337  0.4836
12493TIP3   OH258893   6.027   3.175   3.478  0.2952  0.2174 -0.1061
12493TIP3    H158894   6.043   3.195   3.571 -2.2704  0.9073  0.2542
12493TIP3    H258895   6.041   3.259   3.433  3.6190 -0.5327 -0.7818
12494TIP3   OH258896   5.257   1.947   5.822  0.7710 -0.2358 -0.4088
12494TIP3    H158897   5.172   1.990   5.810  0.7430 -0.3271 -0.5385
12494TIP3    H258898   5.239   1.854   5.807  0.7872 -0.3216  0.0929
12495TIP3   OH258899   0.394   5.051   3.558 -0.7732  0.2896 -0.0013
12495TIP3    H158900   0.363   5.060   3.648  0.1541  0.2900  0.3263
12495TIP3    H258901   0.427   4.962   3.552  1.8465  1.1300  0.5504
12496TIP3   OH258902   5.947   4.273  13.224 -0.0325  0.2515  0.1181
12496TIP3    H158903   5.886   4.223  13.170 -0.2620 -0.1055  0.7051
12496TIP3    H258904   5.893   4.337  13.270  0.1027  0.2691  0.2554
12497TIP3   OH258905   4.318   5.184   3.909  0.4673  0.2125  1.2984
12497TIP3    H158906   4.409   5.170   3.884  0.9867  0.2183  3.0303
12497TIP3    H258907   4.281   5.096   3.915  0.6838  0.1439  1.6673
12498TIP3   OH258908   3.663   0.452   1.402 -0.3005  0.3838 -0.0632
12498TIP3    H158909   3.635   0.475   1.314 -0.5940  1.1944  0.2313
12498TIP3    H258910   3.703   0.366   1.393 -0.2963  0.4758 -0.9897
12499TIP3   OH258911   4.743   3.353   5.480  0.3394 -0.1096 -0.9926
12499TIP3    H158912   4.806   3.417   5.515 -1.4083  1.3880 -0.4089
12499TIP3    H258913   4.663   3.369   5.530 -0.0156 -3.2358 -0.4143
12500TIP3   OH258914   0.396   5.301  14.148 -0.2699  0.1831 -0.0148
12500TIP3    H158915   0.329   5.263  14.205 -0.5279 -1.6876 -1.4321
12500TIP3    H258916   0.469   5.240  14.154  0.4109  0.9694 -0.2536
12501TIP3   OH258917   6.023   6.101  16.040 -0.6555  0.1740 -0.0322
12501TIP3    H158918   6.010   6.069  15.951  0.3312  3.1068 -1.3601
12501TIP3    H258919   5.944   6.153  16.059 -0.2833  0.6520  0.2465
12502TIP3   OH258920   6.759   1.588   3.033  0.3102 -0.1242 -0.1236
12502TIP3    H158921   6.673   1.630   3.038  0.2120 -0.4632  2.9074
12502TIP3    H258922   6.756   1.518   3.099  2.6333 -0.6759 -0.5105
12503TIP3   OH258923   1.914   6.280  15.869 -0.1405  0.1785 -0.5312
12503TIP3    H158924   1.846   6.293  15.803  1.2404  1.8721 -1.7009
12503TIP3    H258925   1.868   6.284  15.953 -2.0219 -2.5462 -1.2998
12504TIP3   OH258926   0.821   1.773  14.064  0.0372 -0.4986  0.1723
12504TIP3    H158927   0.848   1.859  14.097 -2.3218  0.0476  0.8873
12504TIP3    H258928   0.878   1.711  14.109  0.6499  0.5824  0.9407
12505TIP3   OH258929   2.637   1.344   3.077  0.2710 -0.3490 -0.5527
12505TIP3    H158930   2.696   1.287   3.126  1.4877  1.1059 -0.2395
12505TIP3    H258931   2.550   1.323   3.111  0.5820 -2.4897 -0.9719
12506TIP3   OH258932   0.527   0.806   3.267 -0.1536 -0.1815 -1.1181
12506TIP3    H158933   0.489   0.720   3.250  0.4949 -0.8133  0.3998
12506TIP3    H258934   0.466   0.868   3.227 -1.0793 -1.3049 -1.5018
12507TIP3   OH258935   3.288   3.076  14.649  0.0479  0.3162  0.2742
12507TIP3    H158936   3.310   3.052  14.739 -0.5400  0.0761  0.3572
12507TIP3    H258937   3.231   3.152  14.657 -0.7425 -0.2524  0.1507
12508TIP3   OH258938   1.879   1.788  12.120  0.4780 -0.3056  0.3539
12508TIP3    H158939   1.795   1.825  12.148  1.1812  1.3852  0.3492
12508TIP3    H258940   1.861   1.751  12.033 -0.3226 -0.2065  0.4718
12509TIP3   OH258941   3.361   2.184   6.877 -0.1443 -0.1744 -0.4194
12509TIP3    H158942   3.284   2.181   6.819 -0.1217  0.3158 -0.4751
12509TIP3    H258943   3.399   2.096   6.869 -0.3784 -0.2461 -0.8256
12510TIP3   OH258944   0.830   5.662   0.319  0.4048 -0.0990  0.4486
12510TIP3    H158945   0.746   5.638   0.282  0.6955  1.9530 -1.7553
12510TIP3    H258946   0.810   5.729   0.384  0.3410  0.7227 -0.4029
12511TIP3   OH258947   2.644   3.825   0.071  0.6884  0.3855 -0.1161
12511TIP3    H158948   2.652   3.776  -0.011  0.2861  1.4423 -0.8042
12511TIP3    H258949   2.555   3.806   0.102  0.4505  0.8471 -0.5021
12512TIP3   OH258950   3.667   1.365  14.377  0.2662  0.1599  0.3248
12512TIP3    H158951   3.579   1.401  14.361  0.3501 -0.0432 -0.6284
12512TIP3    H258952   3.724   1.442  14.378  0.0767  0.3024  1.0356
12513TIP3   OH258953   4.819   5.358   1.544  0.0676  0.0369 -0.4199
12513TIP3    H158954   4.841   5.375   1.635  0.6377 -1.1773 -0.2997
12513TIP3    H258955   4.832   5.442   1.499  2.1529  0.1003  0.1899
12514TIP3   OH258956   0.107   0.478  13.255 -0.3843  0.1424 -0.3956
12514TIP3    H158957   0.155   0.541  13.308  1.8262  0.0583 -2.1483
12514TIP3    H258958   0.045   0.531  13.205 -0.4000  0.5757  0.0730
12515TIP3   OH258959   4.039   6.044  12.318 -0.0833 -0.2461  0.1454
12515TIP3    H158960   4.061   6.119  12.372 -0.5641  0.4153 -0.5524
12515TIP3    H258961   3.946   6.054  12.298  0.5659  0.9254 -2.8334
12516TIP3   OH258962   3.749   6.215  14.623 -0.3682  0.5195 -0.4023
12516TIP3    H158963   3.755   6.150  14.553 -1.8398 -0.8842  0.6836
12516TIP3    H258964   3.776   6.297  14.582  0.2358 -0.5075 -2.1944
12517TIP3   OH258965   0.629   5.749   1.065 -0.0354  0.0151 -0.0770
12517TIP3    H158966   0.710   5.756   1.115 -0.3550  0.5986  0.3685
12517TIP3    H258967   0.560   5.739   1.131 -0.4748  0.9038 -0.3764
12518TIP3   OH258968   0.241   2.648  13.033  0.4860 -0.1922  0.1579
12518TIP3    H158969   0.294   2.687  12.964  0.0679 -0.7498 -0.4876
12518TIP3    H258970   0.299   2.585  13.075  0.4372 -0.5559 -0.3228
12519TIP3   OH258971   4.576   4.177   1.590 -0.0708  0.3094 -0.0375
12519TIP3    H158972   4.568   4.114   1.519 -1.0216  1.0093 -0.5722
12519TIP3    H258973   4.494   4.169   1.639  1.3928 -1.6591  2.2997
12520TIP3   OH258974   4.767   0.951   1.330  0.5337 -0.2163  0.0798
12520TIP3    H158975   4.824   0.883   1.293 -0.0639 -0.9088  0.3908
12520TIP3    H258976   4.825   1.024   1.348  1.1693 -0.5804 -0.4251
12521TIP3   OH258977   1.274   2.536  11.041 -0.7425 -0.2012 -0.2010
12521TIP3    H158978   1.299   2.618  11.000 -1.4414 -0.0361 -0.3226
12521TIP3    H258979   1.178   2.533  11.031 -0.7081 -1.0982 -0.3423
12522TIP3   OH258980   1.927   4.726   5.092  0.3226  0.2040  0.2605
12522TIP3    H158981   1.894   4.816   5.085  0.6596  0.4800  1.7497
12522TIP3    H258982   2.014   4.735   5.130  0.9851 -0.6898 -0.9711
12523TIP3   OH258983   1.432   1.206  15.115 -0.4236  0.2862 -0.4160
12523TIP3    H158984   1.365   1.248  15.060 -1.0704  0.8686  0.7783
12523TIP3    H258985   1.509   1.262  15.106  0.2347 -0.8325 -2.4525
12524TIP3   OH258986   3.117   0.384   3.335  0.3090 -1.1143 -0.2952
12524TIP3    H158987   3.122   0.296   3.296  2.4176 -1.3755  0.4315
12524TIP3    H258988   3.058   0.374   3.409  0.0325 -1.7608 -0.5901
12525TIP3   OH258989   2.372   0.639   2.054  0.6357  0.1503  0.1933
12525TIP3    H158990   2.454   0.592   2.037  0.7283  0.1602  0.6132
12525TIP3    H258991   2.399   0.730   2.062  0.3386  0.4446 -1.6055
12526TIP3   OH258992   1.151   4.222   5.444  0.2038 -0.9104  0.3458
12526TIP3    H158993   1.129   4.140   5.489  2.4949 -1.6339  0.2665
12526TIP3    H258994   1.145   4.289   5.511 -0.7908 -1.2792  0.6353
12527TIP3   OH258995   4.369   3.041  13.402  0.3445 -0.2837 -0.2816
12527TIP3    H158996   4.462   3.019  13.406  0.5817  0.5969 -0.5955
12527TIP3    H258997   4.326   2.960  13.375  1.0684 -0.5824 -0.5676
12528TIP3   OH258998   2.895   1.323   1.538 -0.0552 -0.3068 -0.1329
12528TIP3    H158999   2.825   1.378   1.574 -0.6826  0.6137 -2.5742
12528TIP3    H259000   2.921   1.267   1.611 -2.5628  0.0901  1.1832
12529TIP3   OH259001   0.962   6.349   0.828 -0.4275 -0.2999  0.3207
12529TIP3    H159002   0.936   6.436   0.797  2.3430  0.1255 -1.1360
12529TIP3    H259003   1.011   6.365   0.908 -1.3572 -0.7260  0.9950
12530TIP3   OH259004   4.624   5.665  11.399 -0.5354 -0.3453 -0.5126
12530TIP3    H159005   4.629   5.692  11.490 -1.4855 -0.9853 -0.2594
12530TIP3    H259006   4.710   5.628  11.380 -0.6228 -1.0607  0.4055
12531TIP3   OH259007   1.240   4.821   3.660 -0.0898  0.1606 -0.0314
12531TIP3    H159008   1.159   4.854   3.620  0.0149 -0.7111 -0.9817
12531TIP3    H259009   1.250   4.732   3.626 -0.2718 -0.8376  2.3370
12532TIP3   OH259010   4.845   1.686   0.721 -0.8487 -0.5412 -0.4546
12532TIP3    H159011   4.801   1.770   0.707  0.9576  0.6856  0.7422
12532TIP3    H259012   4.908   1.680   0.650  1.0231  0.6079  0.9855
12533TIP3   OH259013   1.881   1.192  12.801  0.3003  0.3468 -0.1846
12533TIP3    H159014   1.879   1.134  12.877 -0.1427  0.6100  0.0083
12533TIP3    H259015   1.950   1.256  12.822  0.2146  0.3887 -0.0301
12534TIP3   OH259016   5.749   4.955   3.489 -0.2631  0.0432 -0.1465
12534TIP3    H159017   5.739   4.997   3.403  2.1537  1.3428  0.0981
12534TIP3    H259018   5.769   5.027   3.548  0.0823 -1.0563  1.1267
12535TIP3   OH259019   1.543   5.355   2.343  0.3094  0.2135  0.2995
12535TIP3    H159020   1.620   5.353   2.287  0.5196 -2.0641  0.5613
12535TIP3    H259021   1.481   5.296   2.300 -0.8500  1.1123  0.7002
12536TIP3   OH259022   6.658   2.083   5.564 -0.6179 -0.1433 -0.2485
12536TIP3    H159023   6.569   2.105   5.537  0.5153  1.1869 -3.3100
12536TIP3    H259024   6.692   2.163   5.605 -0.2040  0.0388 -0.9297
12537TIP3   OH259025   3.548   1.266  14.048 -0.2334 -0.0511 -0.7077
12537TIP3    H159026   3.623   1.242  14.103 -0.5063  1.8267  0.5685
12537TIP3    H259027   3.570   1.353  14.015 -2.1064  0.8300  0.2482
12538TIP3   OH259028   3.581   3.127  14.934 -0.4996 -0.4849  0.3084
12538TIP3    H159029   3.637   3.180  14.991 -0.4228 -0.9843  0.7163
12538TIP3    H259030   3.549   3.057  14.992 -1.2122 -0.4406 -0.0245
12539TIP3   OH259031   5.405   0.213  12.329 -0.4826 -0.4592  0.1014
12539TIP3    H159032   5.360   0.196  12.412 -1.9362  0.8669 -0.3686
12539TIP3    H259033   5.459   0.290  12.346 -0.9778 -0.0328 -0.2411
12540TIP3   OH259034   5.377   3.188  16.299 -0.1845  0.2614  0.3139
12540TIP3    H159035   5.359   3.183  16.205 -1.3558 -1.4923  0.5693
12540TIP3    H259036   5.462   3.146  16.310 -0.6841 -0.8319  0.1554
12541TIP3   OH259037   5.916   3.161  14.513 -0.0702 -0.3793  0.7142
12541TIP3    H159038   5.986   3.095  14.515  1.2164  0.8814 -0.3964
12541TIP3    H259039   5.904   3.185  14.605  0.3571 -1.2198  1.0055
12542TIP3   OH259040   0.309   2.573  13.962  0.6267 -0.9085  0.1710
12542TIP3    H159041   0.341   2.565  13.872  0.3849  0.2806 -0.0387
12542TIP3    H259042   0.307   2.667  13.979  0.9762 -1.1250  1.5456
12543TIP3   OH259043   1.797   6.087   1.547 -0.3582  0.1360 -0.6094
12543TIP3    H159044   1.710   6.055   1.568  0.2164 -0.2454  1.4056
12543TIP3    H259045   1.853   6.010   1.549  0.3112  0.6111 -0.0042
12544TIP3   OH259046   6.519   0.724   0.600  0.2197 -0.1128  0.9345
12544TIP3    H159047   6.592   0.771   0.639  0.5131  1.5273 -1.3817
12544TIP3    H259048   6.552   0.635   0.586  2.0690  0.7496 -0.6262
12545TIP3   OH259049   6.573   3.128   5.590  0.4068  0.0473  0.0957
12545TIP3    H159050   6.587   3.145   5.683  1.0268 -0.7593  0.1626
12545TIP3    H259051   6.478   3.121   5.582  0.3958 -1.0907  0.9151
12546TIP3   OH259052   4.226   0.660   1.557 -0.9020  0.1185 -0.5615
12546TIP3    H159053   4.204   0.732   1.615  0.6374  0.6975 -0.6621
12546TIP3    H259054   4.254   0.702   1.476  3.3149 -0.2788  0.4306
12547TIP3   OH259055   1.815   0.522   2.002 -0.0637 -0.2792 -0.1176
12547TIP3    H159056   1.790   0.539   1.911 -0.1372 -3.4196 -0.7961
12547TIP3    H259057   1.906   0.550   2.009 -0.0311 -0.1065 -1.1876
12548TIP3   OH259058   2.535   5.213  13.181  0.2174 -0.9758  0.0779
12548TIP3    H159059   2.549   5.152  13.253  2.8407 -1.1201 -0.4693
12548TIP3    H259060   2.622   5.231  13.147 -0.8931 -0.8986 -3.0660
12549TIP3   OH259061   1.092   0.344   4.552 -0.4648 -0.1236 -0.3917
12549TIP3    H159062   1.178   0.364   4.591 -1.7317  1.6034  1.7359
12549TIP3    H259063   1.066   0.425   4.509 -1.6157 -0.1850  0.1654
12550TIP3   OH259064   4.720   1.312  13.272  0.3487 -0.0101 -0.0475
12550TIP3    H159065   4.744   1.401  13.297  1.9991 -0.2201 -0.7693
12550TIP3    H259066   4.675   1.322  13.188  0.5703  0.1488 -0.1485
12551TIP3   OH259067   3.735   5.642  13.332  0.2236 -0.5666 -0.1134
12551TIP3    H159068   3.741   5.644  13.427 -0.6443 -1.4780 -0.0133
12551TIP3    H259069   3.718   5.550  13.311 -1.0700 -0.1645 -1.0253
12552TIP3   OH259070   6.724   5.534  10.951 -0.4479  0.1113 -0.4960
12552TIP3    H159071   6.714   5.628  10.968 -0.5565  0.3643 -1.8623
12552TIP3    H259072   6.818   5.521  10.946 -0.4105  0.0135  0.3581
12553TIP3   OH259073   6.232   5.443   3.405 -0.2884 -0.6234 -0.2223
12553TIP3    H159074   6.196   5.522   3.446  0.2049 -0.3747 -0.2545
12553TIP3    H259075   6.314   5.473   3.365  0.3802 -1.3497  0.5683
12554TIP3   OH259076   6.663   1.480   5.401  0.1165 -0.9517 -0.2257
12554TIP3    H159077   6.622   1.441   5.478  0.4362 -0.9690 -0.0647
12554TIP3    H259078   6.643   1.419   5.330 -2.5471  0.4055 -0.7503
12555TIP3   OH259079   6.122   2.131  16.609 -0.3471  0.1092 -0.2997
12555TIP3    H159080   6.072   2.136  16.690  1.3052 -1.0537  0.8397
12555TIP3    H259081   6.096   2.210  16.560 -0.8875  1.1821  1.6223
12556TIP3   OH259082   4.791   3.389  14.215 -0.1814 -0.0469 -0.5666
12556TIP3    H159083   4.730   3.346  14.155  0.2242 -0.4601 -0.6836
12556TIP3    H259084   4.869   3.334  14.215 -0.4157 -0.4199  0.8517
12557TIP3   OH259085   2.200   3.113  11.871 -0.7425 -0.5698 -0.2193
12557TIP3    H159086   2.249   3.182  11.916 -1.2546 -0.5974  0.4052
12557TIP3    H259087   2.182   3.149  11.784 -0.2595 -0.2650 -0.1972
12558TIP3   OH259088   1.380   2.408   3.031  0.2806 -0.0904 -0.0239
12558TIP3    H159089   1.321   2.480   3.053  0.2477 -0.9540  3.2483
12558TIP3    H259090   1.343   2.370   2.952 -0.4207  2.6382 -1.1125
12559TIP3   OH259091   6.154   5.705  12.796 -0.0935  0.6647 -0.6580
12559TIP3    H159092   6.164   5.701  12.891  1.1741 -1.3102 -0.8197
12559TIP3    H259093   6.192   5.789  12.772  1.1660  0.4474  0.4402
12560TIP3   OH259094   1.545   3.144  11.377 -0.3821 -0.7079 -0.0262
12560TIP3    H159095   1.464   3.195  11.367 -0.0101 -0.2047 -0.5860
12560TIP3    H259096   1.516   3.058  11.406 -1.2210 -0.8914 -1.3404
12561TIP3   OH259097   1.111   0.205   5.140  0.2409  0.2390  0.2849
12561TIP3    H159098   1.068   0.142   5.081  0.6835 -0.9289  1.1649
12561TIP3    H259099   1.040   0.246   5.188 -0.0504  0.3783 -0.2496
12562TIP3   OH259100   6.628   2.873   5.470  0.0165 -0.5264  0.6594
12562TIP3    H159101   6.616   2.961   5.504  1.5288  0.1593 -0.4319
12562TIP3    H259102   6.703   2.838   5.520  0.7018 -0.4187 -0.2746
12563TIP3   OH259103   3.147   5.118  13.877 -0.5101 -0.1479 -0.1899
12563TIP3    H159104   3.127   5.039  13.826 -1.3681 -0.5788  0.8016
12563TIP3    H259105   3.086   5.184  13.843 -0.3990 -0.1566 -0.4081
12564TIP3   OH259106   2.965   2.323   0.331 -0.1049 -0.0355 -0.2227
12564TIP3    H159107   2.955   2.286   0.244 -0.6060  1.5701 -0.8854
12564TIP3    H259108   3.056   2.306   0.355 -0.6007 -2.7021  0.0322
12565TIP3   OH259109   0.779   1.816  11.235  0.2215  0.3981  0.3566
12565TIP3    H159110   0.821   1.746  11.186  2.2273  0.5720  1.7070
12565TIP3    H259111   0.721   1.859  11.171 -0.6532 -2.0778 -0.6256
12566TIP3   OH259112   6.128   1.652   0.223 -0.1673 -0.4418  1.2651
12566TIP3    H159113   6.136   1.661   0.318  0.8482  0.7494  1.0997
12566TIP3    H259114   6.163   1.565   0.204 -1.6793 -1.2615  2.1001
12567TIP3   OH259115   1.675   4.865  12.984 -0.2337  0.0249 -0.1779
12567TIP3    H159116   1.583   4.843  12.970 -0.0243  0.3831 -2.5503
12567TIP3    H259117   1.723   4.798  12.935  0.8557 -0.5200  1.5134
12568TIP3   OH259118   5.112   0.005   0.682 -0.4526 -0.6692  0.0565
12568TIP3    H159119   5.053  -0.060   0.644 -0.4407  0.1452 -1.4293
12568TIP3    H259120   5.184  -0.047   0.718 -1.2651 -1.5651  0.4417
12569TIP3   OH259121   1.918   0.363  12.453  0.0521 -0.0384 -0.9620
12569TIP3    H159122   1.910   0.426  12.380  1.6458  0.0649 -1.0751
12569TIP3    H259123   1.959   0.286  12.414  2.4667  0.6264  0.1163
12570TIP3   OH259124   2.710   5.819  11.440  0.0857 -0.3946  0.0621
12570TIP3    H159125   2.798   5.782  11.447 -0.0061 -0.5465  0.4628
12570TIP3    H259126   2.653   5.742  11.435 -0.0983 -0.3157  0.7980
12571TIP3   OH259127   6.183   1.326   6.498  0.1073  0.1523  0.1353
12571TIP3    H159128   6.238   1.250   6.515 -0.9324 -0.5136  0.5951
12571TIP3    H259129   6.094   1.297   6.518 -0.6198  0.7753 -1.9105
12572TIP3   OH259130   4.500   0.054  12.095 -0.0172  0.3808  0.4956
12572TIP3    H159131   4.569   0.063  12.030  0.8395 -1.2184  1.1413
12572TIP3    H259132   4.464   0.143  12.104  0.2811  0.7636 -1.6333
12573TIP3   OH259133   6.153   5.358   4.171 -0.6283 -0.3667  0.6795
12573TIP3    H159134   6.205   5.397   4.241  0.0235 -0.9144  0.5086
12573TIP3    H259135   6.062   5.379   4.194 -0.2862  3.7565 -0.8613
12574TIP3   OH259136   1.855   2.796  12.640  0.2438  0.1243 -0.3472
12574TIP3    H159137   1.908   2.855  12.694 -1.1817  0.4667  0.7493
12574TIP3    H259138   1.897   2.710  12.651  1.3472  0.6179 -0.5981
12575TIP3   OH259139   3.973   5.695  16.440  0.0383 -0.7255 -0.1387
12575TIP3    H159140   3.995   5.606  16.412 -0.4131 -0.5757 -1.0111
12575TIP3    H259141   3.897   5.718  16.388  0.0117  0.0959  0.2471
12576TIP3   OH259142   2.776   2.023  12.753  0.0493  0.1149  0.8325
12576TIP3    H159143   2.704   2.054  12.808  0.0868  0.4003  0.7234
12576TIP3    H259144   2.847   2.085  12.771 -0.1077  0.5302  0.0633
12577TIP3   OH259145   4.986   6.099   0.819  0.4772 -0.1841  0.1117
12577TIP3    H159146   4.973   6.021   0.766  0.3794 -0.4674  0.5497
12577TIP3    H259147   4.971   6.172   0.758  0.4172 -0.5006 -0.2586
12578TIP3   OH259148   4.452   0.365   5.160  0.0306 -0.2975 -0.2235
12578TIP3    H159149   4.497   0.291   5.201  0.1438  0.4719  1.1240
12578TIP3    H259150   4.492   0.375   5.074  0.2242 -1.6011 -0.2923
12579TIP3   OH259151   2.787   3.031   5.141 -0.2564  0.1161 -0.3339
12579TIP3    H159152   2.838   3.012   5.220 -2.2361  0.0149  0.9887
12579TIP3    H259153   2.724   3.097   5.168 -1.4582 -0.4468 -1.6361
12580TIP3   OH259154   2.526   5.098  12.908 -0.2065 -0.2164 -0.1629
12580TIP3    H159155   2.530   5.193  12.895  0.6271  0.0177  1.5715
12580TIP3    H259156   2.464   5.086  12.980  0.5128 -0.9015  0.3528
12581TIP3   OH259157   6.585   6.713  13.124  0.0837  0.0492  0.1638
12581TIP3    H159158   6.563   6.697  13.032 -2.7406 -1.2180  0.9732
12581TIP3    H259159   6.625   6.631  13.153  0.0173  0.0786  0.3365
12582TIP3   OH259160   4.389   4.976  11.780  0.2076  0.0596  0.1118
12582TIP3    H159161   4.467   5.005  11.827  1.1416 -1.0385 -0.7153
12582TIP3    H259162   4.400   5.009  11.691  0.7603 -1.8012 -0.5604
12583TIP3   OH259163   0.514   3.528  14.302 -0.1029  0.2498  0.8644
12583TIP3    H159164   0.495   3.622  14.309 -1.4042  0.1279 -0.5388
12583TIP3    H259165   0.513   3.511  14.207 -0.5089 -1.3165  1.1325
12584TIP3   OH259166   4.624   4.158   2.674 -0.3074  0.3308 -0.1235
12584TIP3    H159167   4.667   4.222   2.616 -0.3594  0.6729  0.2108
12584TIP3    H259168   4.656   4.073   2.644  0.1994  0.5509 -0.2182
12585TIP3   OH259169   4.563   4.353  11.477 -0.2749 -0.1383  0.5971
12585TIP3    H159170   4.474   4.323  11.496 -0.7765  0.3436 -0.8710
12585TIP3    H259171   4.553   4.412  11.402  1.0076  1.6140  1.7150
12586TIP3   OH259172   1.751   5.932   2.307 -0.1909 -0.0757  0.6002
12586TIP3    H159173   1.731   5.850   2.352  0.4232 -1.4354 -1.4826
12586TIP3    H259174   1.674   5.948   2.251  0.3777 -0.1136 -0.2039
12587TIP3   OH259175   2.646   2.927  16.377  0.3345  0.8760 -0.1668
12587TIP3    H159176   2.723   2.974  16.408  0.8536  0.1779 -0.3947
12587TIP3    H259177   2.587   2.996  16.347  1.3231  1.3654 -1.0515
12588TIP3   OH259178   5.719   4.542  16.578  0.8252 -0.2595 -0.3298
12588TIP3    H159179   5.702   4.517  16.669  0.1473  0.7342 -0.1691
12588TIP3    H259180   5.815   4.543  16.571  0.8818 -0.2203  0.4074
12589TIP3   OH259181   4.687   5.871   2.515  0.0989  0.5287  0.1514
12589TIP3    H159182   4.748   5.940   2.485 -1.7107  0.6966 -3.9141
12589TIP3    H259183   4.606   5.918   2.534 -1.0633 -0.2920 -2.3628
12590TIP3   OH259184   0.011   6.421   4.722  0.0501 -0.6408  0.0229
12590TIP3    H159185   0.077   6.386   4.662  2.5452 -1.0628  2.7801
12590TIP3    H259186   0.023   6.516   4.718  0.3568 -0.6806 -0.0112
12591TIP3   OH259187   2.701   2.098  12.012  0.1466  0.0213  0.3050
12591TIP3    H159188   2.623   2.150  12.032 -0.9587 -0.8901 -1.4953
12591TIP3    H259189   2.681   2.010  12.043  0.2627 -0.3267 -0.5826
12592TIP3   OH259190   5.842   5.529  13.995  0.0137 -0.3136  0.0873
12592TIP3    H159191   5.933   5.540  13.970 -0.3250  2.7779 -0.1948
12592TIP3    H259192   5.818   5.442  13.962  2.8478 -1.3044  0.3580
12593TIP3   OH259193   2.257   2.820   3.669 -0.2287  0.3682 -0.4027
12593TIP3    H159194   2.290   2.779   3.589  0.0277 -0.7295  0.2494
12593TIP3    H259195   2.212   2.899   3.638 -2.5138 -1.4165 -1.9077
12594TIP3   OH259196   3.058   3.424   4.579 -0.1311 -0.0098  0.3002
12594TIP3    H159197   3.104   3.401   4.660  1.6169 -0.0308 -0.6371
12594TIP3    H259198   3.128   3.448   4.518 -1.3966  0.0836 -1.1804
12595TIP3   OH259199   3.592   6.060   6.348  0.0316  0.5949  0.4387
12595TIP3    H159200   3.543   6.038   6.427  0.0051  0.4278  0.3750
12595TIP3    H259201   3.628   6.147   6.366  1.3387 -0.0907  1.2742
12596TIP3   OH259202   3.049   6.348  15.087  0.0518 -0.0690 -0.5773
12596TIP3    H159203   3.027   6.362  14.995  0.1379  0.7659 -0.4775
12596TIP3    H259204   2.973   6.382  15.134  0.4194  0.3918 -0.3128
12597TIP3   OH259205   1.943   0.774   4.491  0.2253  0.4647  0.7591
12597TIP3    H159206   2.015   0.712   4.504  0.0982  0.6252  2.5453
12597TIP3    H259207   1.872   0.721   4.456  0.9183  0.1237 -0.1617
12598TIP3   OH259208   3.145   4.767  11.280  0.6353  0.1724  0.2567
12598TIP3    H159209   3.127   4.748  11.372 -0.9692 -0.0730 -0.0874
12598TIP3    H259210   3.241   4.767  11.274  0.8505  2.2601  2.3457
12599TIP3   OH259211   1.945   2.872   4.746  0.2100 -0.1112  0.1832
12599TIP3    H159212   1.975   2.907   4.662 -0.6663  0.6782  0.1834
12599TIP3    H259213   1.873   2.813   4.723 -0.2382  0.3459  0.3913
12600TIP3   OH259214   2.022   1.495   5.965 -0.0792  0.0921  0.5045
12600TIP3    H159215   1.950   1.556   5.952  0.6048  1.0495  1.1373
12600TIP3    H259216   2.055   1.513   6.053  0.7839 -0.4909  0.3223
12601TIP3   OH259217   6.478   6.674   4.589 -0.5909 -0.3515 -0.4543
12601TIP3    H159218   6.498   6.593   4.636  0.7143  1.5065  2.5150
12601TIP3    H259219   6.564   6.709   4.565 -1.1129  0.3611 -1.3539
12602TIP3   OH259220   4.075   3.336  16.965  0.6825 -0.3476  0.0067
12602TIP3    H159221   4.061   3.349  16.871 -4.2822 -1.5080  0.3036
12602TIP3    H259222   4.072   3.424  17.002 -1.9953 -0.0471 -0.6738
12603TIP3   OH259223   4.634   3.863   1.762  0.4069  0.1312  0.1096
12603TIP3    H159224   4.550   3.840   1.725  1.1561  0.9139 -2.2404
12603TIP3    H259225   4.634   3.959   1.764  2.1727  0.2631 -2.4282
12604TIP3   OH259226   4.999   5.130  11.765 -0.6610  0.1246 -0.2691
12604TIP3    H159227   4.930   5.185  11.800 -0.6822 -0.4705  0.6724
12604TIP3    H259228   5.043   5.095  11.843  0.3841  0.1075 -0.8520
12605TIP3   OH259229   4.474   2.601   1.143  0.3967  0.5204 -0.1603
12605TIP3    H159230   4.464   2.536   1.073 -0.4413  0.4069  0.0576
12605TIP3    H259231   4.537   2.664   1.107 -0.1298  0.5482 -1.0794
12606TIP3   OH259232   5.703   0.922  11.853  0.3361  0.0910 -0.1640
12606TIP3    H159233   5.660   1.007  11.848  0.0437 -0.0600 -0.2318
12606TIP3    H259234   5.632   0.858  11.842  0.2985 -0.1972  1.5456
12607TIP3   OH259235   2.380   1.551  11.674 -0.1379  0.0221 -0.7014
12607TIP3    H159236   2.437   1.619  11.639  1.2756 -1.4106 -1.3201
12607TIP3    H259237   2.293   1.571  11.640  0.5047  0.7660 -1.9458
12608TIP3   OH259238   6.557   3.085   3.440  0.2758  0.5782 -0.4275
12608TIP3    H159239   6.535   3.033   3.363 -0.0791 -1.2280  0.8244
12608TIP3    H259240   6.590   3.021   3.504  0.8972  2.0579  0.8100
12609TIP3   OH259241   5.213   6.099  12.085  0.9180 -0.2301  0.0294
12609TIP3    H159242   5.284   6.061  12.136  1.2027  0.9397  0.5237
12609TIP3    H259243   5.147   6.123  12.150  1.8444  2.5239  0.0992
12610TIP3   OH259244   3.497   0.939  15.154 -0.4084 -0.1187  0.0789
12610TIP3    H159245   3.574   0.893  15.189 -1.4281 -1.5127  0.5639
12610TIP3    H259246   3.533   1.000  15.090  1.3013  0.8419  1.8577
12611TIP3   OH259247   3.127   2.181  16.191 -0.1765 -0.5332 -0.1180
12611TIP3    H159248   3.121   2.141  16.278  2.4086  0.8811  0.8067
12611TIP3    H259249   3.168   2.266  16.206  2.3179 -1.0849 -2.9096
12612TIP3   OH259250   0.503   1.768  13.820 -0.1465  0.0023 -0.4446
12612TIP3    H159251   0.578   1.809  13.863 -0.4284  0.3473 -0.2758
12612TIP3    H259252   0.542   1.707  13.757  0.3341  2.0894 -2.2748
12613TIP3   OH259253   5.052   5.229  14.297  0.3936  0.1723 -0.3488
12613TIP3    H159254   4.975   5.220  14.241 -0.3419 -1.4986  0.8182
12613TIP3    H259255   5.114   5.164  14.263  1.3711  1.5809 -1.3471
12614TIP3   OH259256   5.867   4.696  13.201 -1.1189  0.7730 -0.2848
12614TIP3    H159257   5.948   4.747  13.192  0.5230 -1.6464 -0.0772
12614TIP3    H259258   5.814   4.723  13.125  1.2773  0.0928 -2.3479
12615TIP3   OH259259   1.947   5.744  14.251 -0.1658  0.8271  0.0868
12615TIP3    H159260   2.024   5.738  14.195 -1.0351 -2.7953 -1.0105
12615TIP3    H259261   1.972   5.805  14.320  2.9305  1.2859 -1.2736
12616TIP3   OH259262   2.940   0.158  11.068 -0.4044  0.0932  0.0253
12616TIP3    H159263   2.964   0.250  11.085  1.1984 -0.7287  2.9961
12616TIP3    H259264   2.996   0.131  10.996  1.2298  0.7257  1.0021
12617TIP3   OH259265   5.253   5.232  10.706 -0.1797 -0.2044 -0.2085
12617TIP3    H159266   5.253   5.139  10.682 -0.0991 -0.0934 -0.6524
12617TIP3    H259267   5.163   5.260  10.689 -0.8283 -0.7318  2.0805
12618TIP3   OH259268   1.200   0.909  13.446  0.8825 -0.3624 -0.7164
12618TIP3    H159269   1.271   0.939  13.503  0.2462  0.6151 -0.4139
12618TIP3    H259270   1.208   0.964  13.368  0.4938 -0.2999 -0.7104
12619TIP3   OH259271   6.711   3.189   0.960 -0.4896 -0.2793 -0.1367
12619TIP3    H159272   6.777   3.126   0.989 -0.8753  0.2056  1.9519
12619TIP3    H259273   6.667   3.145   0.887  0.1427 -1.8470  0.3795
12620TIP3   OH259274   3.350   6.243   5.666 -0.5862  0.1121  0.9423
12620TIP3    H159275   3.342   6.207   5.755  0.4587 -0.7516  0.6920
12620TIP3    H259276   3.443   6.242   5.648 -0.9195 -1.8567 -1.0294
12621TIP3   OH259277   6.134   0.660   5.793  0.9048  0.1520  0.3095
12621TIP3    H159278   6.166   0.715   5.864  0.8538  0.6052 -0.0170
12621TIP3    H259279   6.063   0.710   5.753  1.8265  0.5111 -0.9271
12622TIP3   OH259280   1.344   1.492   4.547 -0.2725 -0.1397 -0.3812
12622TIP3    H159281   1.369   1.563   4.488 -1.7997 -0.0494 -0.9801
12622TIP3    H259282   1.312   1.422   4.489 -3.8211  0.7512  0.2615
12623TIP3   OH259283   0.322   2.852  11.530  0.6128  0.1387 -0.1969
12623TIP3    H159284   0.359   2.779  11.580  0.0294 -0.4098 -0.5426
12623TIP3    H259285   0.251   2.885  11.585  1.1279  0.7145  0.1366
12624TIP3   OH259286   5.178   2.329  14.114 -0.2920 -0.4100 -0.4406
12624TIP3    H159287   5.153   2.309  14.204  0.2930 -2.7339 -0.7411
12624TIP3    H259288   5.137   2.261  14.061 -1.4011  1.4285 -2.0978
12625TIP3   OH259289   5.236   0.526   4.581 -0.3781 -0.3662  0.1575
12625TIP3    H159290   5.287   0.522   4.500  3.3280  0.8673  2.1889
12625TIP3    H259291   5.204   0.437   4.594  1.1210 -1.1927 -1.4081
12626TIP3   OH259292   2.823   5.883   1.699  0.1756 -0.1095 -0.2052
12626TIP3    H159293   2.850   5.795   1.727  0.0961 -0.0868 -0.0582
12626TIP3    H259294   2.879   5.942   1.749  0.5016 -0.0847 -0.5941
12627TIP3   OH259295   3.362   4.163  12.151  0.2767  0.2719  0.0842
12627TIP3    H159296   3.391   4.115  12.229  0.1178  0.8015  0.4819
12627TIP3    H259297   3.388   4.254  12.168  0.3210  0.3780 -0.5258
12628TIP3   OH259298   3.784   4.910   4.766  0.0050 -0.4947  0.4516
12628TIP3    H159299   3.699   4.918   4.809 -0.7503 -1.7309 -0.7407
12628TIP3    H259300   3.847   4.931   4.835 -1.2165 -0.5683  1.6444
12629TIP3   OH259301   2.897   5.449   5.068  0.1108 -0.0208 -0.2837
12629TIP3    H159302   2.871   5.389   4.998 -1.6026 -0.1688  0.4198
12629TIP3    H259303   2.973   5.496   5.033  1.6446 -2.6850 -0.7847
12630TIP3   OH259304   2.598   3.193  12.530  0.1091  0.5459  0.2889
12630TIP3    H159305   2.558   3.244  12.459  2.5380  0.5952 -1.1689
12630TIP3    H259306   2.658   3.133  12.485  1.9008  0.7101  2.2902
12631TIP3   OH259307   1.967   5.277  16.177  0.0312 -0.2746  0.0736
12631TIP3    H159308   1.958   5.368  16.205  0.9842  0.4859 -1.8804
12631TIP3    H259309   1.971   5.227  16.259  1.5628  1.6653  1.2846
12632TIP3   OH259310   6.506   2.201  13.703 -0.2171  0.0456  0.1118
12632TIP3    H159311   6.565   2.276  13.694  0.4786 -0.3591  1.1848
12632TIP3    H259312   6.561   2.131  13.738 -0.5223 -1.4040 -2.0969
12633TIP3   OH259313   4.794   6.166  17.172  0.4006  0.0971 -0.1927
12633TIP3    H159314   4.713   6.127  17.139 -0.0834  1.6337 -0.9054
12633TIP3    H259315   4.769   6.255  17.197  2.4915  1.8702 -3.7038
12634TIP3   OH259316   4.271   3.600  12.439  0.9971  0.2746 -0.1334
12634TIP3    H159317   4.359   3.623  12.468  0.9795  0.4048 -0.1827
12634TIP3    H259318   4.270   3.624  12.346  0.8776  0.3626 -0.1089
12635TIP3   OH259319   2.518   0.609   5.387 -0.1181 -0.2376 -0.0193
12635TIP3    H159320   2.610   0.620   5.414  0.0306 -0.7269 -0.3099
12635TIP3    H259321   2.500   0.516   5.402 -0.7414 -0.0359  0.5534
12636TIP3   OH259322   6.266   4.961  12.232  0.4446 -0.7606  0.2233
12636TIP3    H159323   6.317   4.882  12.212  0.0564 -1.2770  1.1982
12636TIP3    H259324   6.295   4.986  12.320 -1.2328 -1.2812  0.9610
12637TIP3   OH259325   0.973   2.906   0.355 -0.1260 -0.4091 -0.0177
12637TIP3    H159326   1.001   2.970   0.420 -0.8587 -1.0865  0.9877
12637TIP3    H259327   0.904   2.856   0.398  0.7375 -2.1848 -0.6099
12638TIP3   OH259328   0.628   5.921   3.049  0.2719 -0.1130  0.5599
12638TIP3    H159329   0.583   5.837   3.037 -0.2011  0.2127 -0.0066
12638TIP3    H259330   0.601   5.950   3.136  1.7667 -1.3293  1.4760
12639TIP3   OH259331   0.186   1.230  15.075 -0.1906  0.3064 -0.4333
12639TIP3    H159332   0.170   1.323  15.063  2.3598  0.6955 -1.6036
12639TIP3    H259333   0.282   1.223  15.080 -0.2817 -2.2955 -0.9036
12640TIP3   OH259334   5.699   6.358  12.042 -0.5914 -0.0953 -0.1095
12640TIP3    H159335   5.767   6.301  12.008  0.1788  1.5553 -1.5208
12640TIP3    H259336   5.722   6.372  12.134  0.3266 -0.4619 -0.2797
12641TIP3   OH259337   6.534   2.670   0.246 -0.2201 -0.9006 -0.1407
12641TIP3    H159338   6.602   2.665   0.314 -0.1967  1.8321  0.1685
12641TIP3    H259339   6.563   2.608   0.179  2.0326 -0.6117  0.4549
12642TIP3   OH259340   6.176   5.913  14.047  0.3353 -0.2086 -0.3060
12642TIP3    H159341   6.216   5.998  14.029  0.3159 -0.2282 -0.4448
12642TIP3    H259342   6.238   5.870  14.107  0.0700  0.1214  0.2086
12643TIP3   OH259343   5.324   1.234  16.756  0.4309  0.5439  0.1034
12643TIP3    H159344   5.398   1.270  16.804  0.5167  0.3588  0.1101
12643TIP3    H259345   5.252   1.296  16.772  0.8183  1.2008 -0.6208
12644TIP3   OH259346   5.466   5.062  14.871 -0.4567 -0.8089 -0.1982
12644TIP3    H159347   5.527   5.113  14.818 -0.1869 -2.1856 -1.2786
12644TIP3    H259348   5.391   5.046  14.814 -1.1833 -0.3960  0.6142
12645TIP3   OH259349   4.937   4.558  10.674 -0.3488 -0.3009 -0.2313
12645TIP3    H159350   4.880   4.580  10.748  0.5075  1.5800 -0.0832
12645TIP3    H259351   4.900   4.606  10.600  0.5994  0.3546 -0.2970
12646TIP3   OH259352   2.264   3.795   1.135 -0.3633  0.1541  0.0076
12646TIP3    H159353   2.339   3.855   1.138  0.6736 -0.2242 -5.7884
12646TIP3    H259354   2.303   3.708   1.147 -0.4420  0.1475  0.2153
12647TIP3   OH259355   1.100   6.257   3.733  0.9441 -0.0503  0.2121
12647TIP3    H159356   1.009   6.229   3.732  0.6587  0.8183  0.6209
12647TIP3    H259357   1.150   6.175   3.729  0.1733 -0.4698 -1.4919
12648TIP3   OH259358   0.459   5.714  12.486  0.0136  0.3836 -0.2680
12648TIP3    H159359   0.494   5.690  12.400  1.5455 -1.1293  0.7084
12648TIP3    H259360   0.535   5.748  12.534 -0.6163  0.3610  0.7743
12649TIP3   OH259361   5.126   3.231  12.410 -0.7480 -0.3654 -0.2087
12649TIP3    H159362   5.220   3.212  12.411 -1.1077 -2.5479 -1.3215
12649TIP3    H259363   5.106   3.246  12.317 -1.2839  1.4483  0.1732
12650TIP3   OH259364   0.961   0.038  12.989  0.0796  0.3853  0.0847
12650TIP3    H159365   0.967   0.077  13.077 -1.4984 -1.0658  0.8998
12650TIP3    H259366   0.869   0.012  12.981  0.1080  0.7829 -2.1700
12651TIP3   OH259367   5.781   5.876   2.992 -0.9143 -0.0475 -0.3624
12651TIP3    H159368   5.735   5.934   2.930 -0.2113  1.3916  0.4100
12651TIP3    H259369   5.730   5.880   3.072 -0.2964  0.3514  0.0224
12652TIP3   OH259370   0.460   5.484   2.582  0.0955  0.3135 -0.2348
12652TIP3    H159371   0.422   5.437   2.655 -0.5979  0.5956 -0.4096
12652TIP3    H259372   0.395   5.478   2.512  0.3599  0.8074 -0.5343
12653TIP3   OH259373   5.718   5.428   3.462 -0.0295 -0.0990  0.0674
12653TIP3    H159374   5.635   5.446   3.417 -0.5346  0.6514  1.2439
12653TIP3    H259375   5.737   5.336   3.442 -0.7245 -0.0535 -0.8680
12654TIP3   OH259376   4.876   2.012   5.624 -0.1069 -0.3864  0.2643
12654TIP3    H159377   4.933   1.976   5.555 -0.8013 -0.3033 -0.3680
12654TIP3    H259378   4.936   2.036   5.694  0.4970 -1.5966  0.1854
12655TIP3   OH259379   1.774   1.090  13.557  0.3750  0.2665  0.4943
12655TIP3    H159380   1.739   1.173  13.527 -0.5258 -0.7447 -1.4352
12655TIP3    H259381   1.699   1.032  13.563  0.9989 -0.4659  1.6987
12656TIP3   OH259382   5.545   5.813  12.902  0.0534  0.9858 -0.0151
12656TIP3    H159383   5.484   5.841  12.970 -1.0612  2.5203 -1.5490
12656TIP3    H259384   5.606   5.887  12.893 -0.9057  1.6047 -1.8624
12657TIP3   OH259385   5.949   1.038   2.770  0.2146  0.3432 -0.3707
12657TIP3    H159386   5.951   0.955   2.817 -0.5707 -0.5839 -1.9094
12657TIP3    H259387   6.029   1.083   2.797  2.1807 -2.1475 -1.6412
12658TIP3   OH259388   6.746   2.874  14.145 -0.2179  0.0052  0.0457
12658TIP3    H159389   6.833   2.838  14.158 -0.0674  0.2393 -0.2873
12658TIP3    H259390   6.692   2.799  14.121  0.1620  0.0403 -0.9608
12659TIP3   OH259391   4.727   6.691   3.074 -0.4945 -0.4495 -0.3762
12659TIP3    H159392   4.680   6.728   3.000 -0.9184  0.0476  0.1289
12659TIP3    H259393   4.769   6.766   3.116  2.7783 -1.0748 -2.1308
12660TIP3   OH259394   1.267   2.723   5.592  0.1596  0.3893  0.1366
12660TIP3    H159395   1.291   2.796   5.535 -1.1744  0.4417 -0.4117
12660TIP3    H259396   1.185   2.751   5.633 -0.0770 -0.5654  0.3452
12661TIP3   OH259397   1.825   3.947   5.135 -0.0883  0.2119  0.4397
12661TIP3    H159398   1.823   3.856   5.163 -0.1924  0.0904  0.0485
12661TIP3    H259399   1.896   3.986   5.186 -0.8026  0.2059  1.4577
12662TIP3   OH259400   1.731   0.322   0.799  0.4911  0.0154 -0.0303
12662TIP3    H159401   1.756   0.230   0.808  0.5482  0.2501  3.1119
12662TIP3    H259402   1.668   0.323   0.727 -0.3440 -2.6594  0.5667
12663TIP3   OH259403   1.083   2.332   3.699  0.4467  0.2307 -0.0635
12663TIP3    H159404   1.027   2.394   3.745 -0.6860  0.9642 -2.3062
12663TIP3    H259405   1.151   2.387   3.658  1.3837 -0.3909  0.6194
12664TIP3   OH259406   5.079   2.596  14.010 -0.2752  0.0231  1.2826
12664TIP3    H159407   5.153   2.655  13.997 -0.5443  0.4663  1.6985
12664TIP3    H259408   5.119   2.511  14.029  0.1177  0.0491  0.6092
12665TIP3   OH259409   0.140   6.133  15.929  0.9881  0.2808  0.6546
12665TIP3    H159410   0.186   6.100  16.006  0.5794 -0.5962  0.5358
12665TIP3    H259411   0.193   6.104  15.855  0.5718 -0.2118  0.5450
12666TIP3   OH259412   1.302   5.223   5.586  0.3476  0.4462 -0.1644
12666TIP3    H159413   1.342   5.214   5.499 -2.4732 -0.7507 -1.4699
12666TIP3    H259414   1.255   5.306   5.582 -1.8186 -0.7330 -0.7892
12667TIP3   OH259415   3.790   1.095   4.567  0.3067 -0.0076  0.0971
12667TIP3    H159416   3.867   1.041   4.548  0.9490  1.7115 -2.8963
12667TIP3    H259417   3.724   1.033   4.598  1.9196 -2.0056 -0.2252
12668TIP3   OH259418   2.453   3.024   0.964  0.3524  0.5412 -0.4204
12668TIP3    H159419   2.450   3.076   0.883 -0.0919  1.4186  0.1433
12668TIP3    H259420   2.370   2.976   0.963  0.0773  1.0059 -0.1984
12669TIP3   OH259421   6.275   2.101   2.198  0.0989 -0.3817 -0.2581
12669TIP3    H159422   6.217   2.058   2.260 -2.1832  0.9750 -1.2777
12669TIP3    H259423   6.348   2.132   2.251 -0.4533 -1.5179  1.2533
12670TIP3   OH259424   6.688   2.322  16.094 -0.3557 -0.2275 -0.3191
12670TIP3    H159425   6.670   2.289  16.182  0.5700 -1.6359 -0.6330
12670TIP3    H259426   6.782   2.310  16.082 -0.0605  1.9537 -0.7254
12671TIP3   OH259427   1.723   3.131  13.504  0.2501  0.0483  0.2252
12671TIP3    H159428   1.635   3.120  13.469  0.7685  1.0219 -1.5171
12671TIP3    H259429   1.710   3.176  13.588 -0.9890 -1.6024  0.9697
12672TIP3   OH259430   5.441   5.366   6.403 -0.1804  0.7929 -0.1386
12672TIP3    H159431   5.528   5.385   6.367 -1.3788  0.0112 -3.8294
12672TIP3    H259432   5.435   5.270   6.402 -0.3372  0.7000  2.3256
12673TIP3   OH259433   0.207   5.213  16.333  0.2324 -0.8129  0.5470
12673TIP3    H159434   0.188   5.125  16.303 -0.7520 -0.5253  0.2934
12673TIP3    H259435   0.267   5.249  16.268 -2.1230 -0.0776 -1.3285
12674TIP3   OH259436   6.355   0.546   4.870  0.4926 -0.5066  0.6050
12674TIP3    H159437   6.391   0.496   4.796  2.8133  0.5957  0.8813
12674TIP3    H259438   6.358   0.486   4.944 -1.8451 -1.6186 -0.1288
12675TIP3   OH259439   6.311   0.821  15.157  0.4504  0.1503  1.0024
12675TIP3    H159440   6.378   0.872  15.201  0.7374 -0.3086  1.1070
12675TIP3    H259441   6.299   0.744  15.213  1.9099 -1.2239 -0.4446
12676TIP3   OH259442   0.417   5.728   3.744  0.0735 -0.0388 -0.7692
12676TIP3    H159443   0.405   5.660   3.678 -2.3038  0.7813 -1.3043
12676TIP3    H259444   0.375   5.693   3.823  0.9461 -0.1161 -0.3246
12677TIP3   OH259445   5.303   5.895   4.123 -0.2182  0.1394 -0.4768
12677TIP3    H159446   5.308   5.990   4.109 -0.3457 -0.0718 -2.1984
12677TIP3    H259447   5.240   5.864   4.058  0.2955 -1.2092 -0.3723
12678TIP3   OH259448   3.321   2.243  12.253 -0.1520  0.7142 -0.7011
12678TIP3    H159449   3.416   2.232  12.256 -0.1656  0.7311  0.5297
12678TIP3    H259450   3.287   2.156  12.231  0.1416  0.6519 -0.9078
12679TIP3   OH259451   6.474   4.185  15.085 -0.1655 -0.2517 -0.5931
12679TIP3    H159452   6.511   4.254  15.139 -2.4812  0.4181  0.2498
12679TIP3    H259453   6.384   4.174  15.117 -1.4365 -0.3680 -3.7508
12680TIP3   OH259454   4.201   3.953   4.767 -0.3393  0.0924 -0.2290
12680TIP3    H159455   4.286   3.909   4.761 -0.5025 -0.5117  1.3986
12680TIP3    H259456   4.139   3.883   4.787 -1.0053  0.7311 -0.0283
12681TIP3   OH259457   3.513   6.077  17.042  0.2459  0.4736  0.6363
12681TIP3    H159458   3.537   6.138  17.112  1.2868  0.7432  0.0528
12681TIP3    H259459   3.588   6.076  16.983  0.1422 -1.2041  0.5020
12682TIP3   OH259460   5.756   5.209  15.997 -0.4488 -0.5640  0.2800
12682TIP3    H159461   5.783   5.118  15.987  0.4589 -0.3015  0.2703
12682TIP3    H259462   5.808   5.242  16.070 -0.1263  0.1910 -0.2803
12683TIP3   OH259463   1.170   5.591   4.542  0.7861 -0.5574 -0.4278
12683TIP3    H159464   1.225   5.536   4.598  0.8428 -0.5571 -0.4842
12683TIP3    H259465   1.227   5.662   4.515  1.0036 -1.0106 -1.1776
12684TIP3   OH259466   3.701   1.384  14.665  0.3174  0.1165 -0.2140
12684TIP3    H159467   3.700   1.380  14.569 -0.8422 -0.7957 -0.1831
12684TIP3    H259468   3.614   1.355  14.691  0.9212 -0.5442  1.1436
12685TIP3   OH259469   3.274   4.849  16.910 -0.0652 -0.9488 -0.1563
12685TIP3    H159470   3.322   4.840  16.992 -1.7897 -1.4118  0.8578
12685TIP3    H259471   3.299   4.935  16.876  0.9773 -0.9276  0.6412
12686TIP3   OH259472   1.164   1.658  15.871 -0.5943 -0.1223 -0.0443
12686TIP3    H159473   1.126   1.688  15.788  2.7677  2.0188 -0.9642
12686TIP3    H259474   1.177   1.737  15.922  2.8642 -0.5750  0.0117
12687TIP3   OH259475   6.369   3.002  17.251  0.1455 -0.0394 -0.2072
12687TIP3    H159476   6.307   2.946  17.298  0.2060  0.7875  0.8776
12687TIP3    H259477   6.447   2.947  17.240  0.5287  0.0937  1.6255
12688TIP3   OH259478   5.198   6.334  10.829 -0.1393  0.0814 -0.0664
12688TIP3    H159479   5.204   6.251  10.782  0.5957 -0.1732  0.4699
12688TIP3    H259480   5.287   6.353  10.857 -0.2369  1.2155 -0.4492
12689TIP3   OH259481   3.925   0.075   2.977 -0.0946  0.3506  0.4851
12689TIP3    H159482   3.851   0.126   2.944  0.6585  1.6533  0.7310
12689TIP3    H259483   3.916   0.079   3.072 -0.2610 -0.3545  0.5064
12690TIP3   OH259484   3.851   1.982   5.063 -0.7967  0.1949  0.4048
12690TIP3    H159485   3.887   2.064   5.028 -0.0311 -0.5650 -0.6335
12690TIP3    H259486   3.765   2.007   5.098 -1.0659  1.2336 -0.9090
12691TIP3   OH259487   4.673   5.400  11.377 -0.1239  0.1891  0.1843
12691TIP3    H159488   4.656   5.306  11.373 -0.8837  0.3608 -0.8146
12691TIP3    H259489   4.710   5.422  11.292  0.6025  0.7052  0.6173
12692TIP3   OH259490   6.314   1.909   5.325  0.2518  0.2970 -0.3074
12692TIP3    H159491   6.403   1.877   5.337 -0.1943 -0.2057  2.2143
12692TIP3    H259492   6.262   1.830   5.310 -0.0149  0.3804  0.1468
12693TIP3   OH259493   1.492   1.589   1.842 -0.4813 -0.4492  0.2082
12693TIP3    H159494   1.557   1.529   1.807 -0.2777 -0.8366  1.2209
12693TIP3    H259495   1.465   1.551   1.926 -2.1735 -0.4024 -0.2675
12694TIP3   OH259496   3.680   4.276   2.755 -1.1600 -0.1253 -0.3848
12694TIP3    H159497   3.664   4.184   2.733 -2.7493  0.3678 -1.4139
12694TIP3    H259498   3.712   4.316   2.674  1.2693 -0.0916  0.4988
12695TIP3   OH259499   1.285   3.344   5.515  0.0201  0.1927  0.2393
12695TIP3    H159500   1.353   3.411   5.525  0.1665  0.5717 -2.5503
12695TIP3    H259501   1.210   3.379   5.562  0.5088  1.7201 -0.0509
12696TIP3   OH259502   0.716   3.154  12.655  0.4816  0.1356  0.1746
12696TIP3    H159503   0.763   3.123  12.578  1.6840 -0.5753  1.1580
12696TIP3    H259504   0.641   3.094  12.663  1.2975 -0.8651  0.5099
12697TIP3   OH259505   3.645   1.714  12.947  0.4063 -0.7014 -0.2194
12697TIP3    H159506   3.637   1.696  12.853 -0.4137 -1.0157 -0.0987
12697TIP3    H259507   3.557   1.700  12.982  0.0612  1.8613  0.1915
12698TIP3   OH259508   6.626   6.027   3.834  0.0731 -0.2691 -0.4520
12698TIP3    H159509   6.697   6.070   3.786  0.6272  0.3295  0.8439
12698TIP3    H259510   6.569   5.992   3.766 -0.4344  2.5498 -1.6495
12699TIP3   OH259511   6.617   0.610  16.246  0.3420 -0.1460 -0.4306
12699TIP3    H159512   6.582   0.699  16.242  2.3491  0.7867  0.9570
12699TIP3    H259513   6.581   0.573  16.326 -0.2028 -0.4709 -0.8205
12700TIP3   OH259514   1.821   0.964   3.473  0.4795 -0.4977  0.7134
12700TIP3    H159515   1.751   0.992   3.414  2.5868  0.8156 -1.2977
12700TIP3    H259516   1.800   0.873   3.494 -1.6280 -0.2434 -0.0473
12701TIP3   OH259517   4.079   4.981   5.864  0.1286 -0.1681 -0.1374
12701TIP3    H159518   4.040   4.955   5.948 -0.2228 -0.8679 -0.5134
12701TIP3    H259519   4.169   4.948   5.868 -0.0501 -0.6803 -0.2523
12702TIP3   OH259520   0.939   6.346   0.308 -0.8159 -0.2478 -0.5617
12702TIP3    H159521   1.015   6.316   0.259 -0.8109 -1.2410  0.0323
12702TIP3    H259522   0.966   6.431   0.344 -0.1753 -0.3516 -0.7794
12703TIP3   OH259523   2.593   2.179   2.788  0.2751 -0.0879 -0.0241
12703TIP3    H159524   2.561   2.242   2.723 -0.4252  2.6237  2.6796
12703TIP3    H259525   2.513   2.150   2.834  0.9122 -0.1148  1.1074
12704TIP3   OH259526   5.130   2.922  14.920  0.2454  0.4538  0.3118
12704TIP3    H159527   5.036   2.941  14.914  0.2604  0.1730 -1.1450
12704TIP3    H259528   5.141   2.841  14.870  1.3477  0.7463  0.0685
12705TIP3   OH259529   3.777   1.799   0.495  0.4830  0.2589 -0.2471
12705TIP3    H159530   3.812   1.825   0.580  1.1405 -0.0803 -0.4029
12705TIP3    H259531   3.691   1.840   0.491 -0.3997 -1.3164  1.4029
12706TIP3   OH259532   1.397   6.512   4.233  0.5945 -0.0055 -0.3767
12706TIP3    H159533   1.344   6.592   4.230  1.8780  0.9657  1.0531
12706TIP3    H259534   1.485   6.542   4.211  0.9781 -1.1410 -0.4105
12707TIP3   OH259535   2.663   3.979   4.135  0.0119  0.3092  0.1518
12707TIP3    H159536   2.631   4.052   4.189 -0.7683  0.5543 -0.6158
12707TIP3    H259537   2.650   4.009   4.045  1.0121 -0.2180 -0.1768
12708TIP3   OH259538   3.500   5.273  12.853 -0.1040  0.3916 -0.7423
12708TIP3    H159539   3.443   5.227  12.791  0.7993 -1.9802  0.0811
12708TIP3    H259540   3.557   5.326  12.797  0.4969 -1.4536 -1.9523
12709TIP3   OH259541   0.128   3.441   4.906  0.4487  0.0299 -0.1246
12709TIP3    H159542   0.201   3.392   4.944  0.4628 -1.6033 -2.1391
12709TIP3    H259543   0.062   3.444   4.976  1.7083 -0.0510  1.1040
12710TIP3   OH259544   6.696   4.009   3.468 -0.5489 -0.1408  0.4636
12710TIP3    H159545   6.757   4.081   3.450 -1.8294  0.9429  0.2333
12710TIP3    H259546   6.641   4.042   3.540  0.7717 -2.1262  2.5004
12711TIP3   OH259547   1.569   0.250   1.839  0.3272  0.5019 -0.0608
12711TIP3    H159548   1.658   0.286   1.840  0.9952 -1.0299  2.0740
12711TIP3    H259549   1.547   0.243   1.746  2.2744  1.2732 -0.6286
12712TIP3   OH259550   3.707   0.796  15.244  0.0833 -0.0562  0.2209
12712TIP3    H159551   3.766   0.785  15.169  0.7664  0.2037  0.7011
12712TIP3    H259552   3.761   0.842  15.309 -0.1087 -1.3312  1.3295
12713TIP3   OH259553   0.702   2.986   5.575  0.5360  0.2067  0.3590
12713TIP3    H159554   0.718   2.913   5.516  2.5491 -0.0662  1.1266
12713TIP3    H259555   0.731   2.954   5.661  0.0786  1.4208  1.0009
12714TIP3   OH259556   3.642   1.389  12.799 -0.0708  0.1683  0.0700
12714TIP3    H159557   3.663   1.482  12.790 -0.5938  0.4794  1.6933
12714TIP3    H259558   3.718   1.343  12.764  0.4722  1.2089 -0.1496
12715TIP3   OH259559   2.369   0.982  14.711  0.3039 -0.4680  0.1962
12715TIP3    H159560   2.304   1.046  14.740  1.7374  1.6250 -0.9132
12715TIP3    H259561   2.369   0.915  14.779 -0.9050  0.9827  1.7242
12716TIP3   OH259562   2.024   0.725  14.379 -0.1057 -0.1139 -0.3252
12716TIP3    H159563   2.088   0.692  14.316 -0.0706 -0.0746 -0.3099
12716TIP3    H259564   1.981   0.798  14.333 -0.6607 -0.6141 -0.6289
12717TIP3   OH259565   1.566   2.869   4.238  0.2842 -0.0398  0.5287
12717TIP3    H159566   1.519   2.909   4.165 -0.6355 -0.3276  0.9498
12717TIP3    H259567   1.627   2.937   4.267  0.2710  0.2729 -0.1441
12718TIP3   OH259568   4.089   6.335  12.963  0.0734 -0.6485  0.1251
12718TIP3    H159569   4.009   6.382  12.990 -0.8330 -2.3464  0.5049
12718TIP3    H259570   4.147   6.342  13.039 -0.1745 -0.4134  0.2946
12719TIP3   OH259571   0.263   2.986   2.124 -0.1113  0.4607  0.0604
12719TIP3    H159572   0.264   3.049   2.052  1.6196 -1.0200 -1.3323
12719TIP3    H259573   0.236   3.036   2.200 -0.5538  2.4410 -1.3227
12720TIP3   OH259574   4.088   4.353   4.524 -0.4441 -0.0988 -0.2617
12720TIP3    H159575   4.135   4.405   4.590 -1.2338  0.9612 -0.5128
12720TIP3    H259576   4.104   4.262   4.550 -0.9119  0.2806  1.5496
12721TIP3   OH259577   5.689   3.356  11.304  0.0311  0.3397 -0.3586
12721TIP3    H159578   5.693   3.378  11.398  0.1262  1.0169 -0.5150
12721TIP3    H259579   5.597   3.367  11.281 -0.4694 -2.1480  0.1789
12722TIP3   OH259580   2.841   3.027   4.077  0.0340  0.0149  0.5074
12722TIP3    H159581   2.756   3.041   4.035  1.4305  0.3499 -2.4911
12722TIP3    H259582   2.856   2.933   4.071 -0.1118 -0.0482  1.0608
12723TIP3   OH259583   0.897   5.747   3.859 -0.0289 -0.0531  0.3798
12723TIP3    H159584   0.908   5.784   3.771 -0.4872 -1.4252 -0.3039
12723TIP3    H259585   0.810   5.776   3.886  1.0787  2.5101  1.5349
12724TIP3   OH259586   3.334   1.958   0.664  0.2871 -0.4596  0.5157
12724TIP3    H159587   3.290   1.984   0.745  0.7514 -1.2262  1.0257
12724TIP3    H259588   3.426   1.979   0.678  0.3517 -0.4617  0.1233
12725TIP3   OH259589   4.950   6.205  11.748  0.3727  0.8793  0.1967
12725TIP3    H159590   4.888   6.149  11.796  0.5169 -0.1976 -0.8213
12725TIP3    H259591   4.935   6.293  11.783  0.8159  0.0893  2.5649
12726TIP3   OH259592   4.026   2.773   2.844  0.3947  0.0395  0.3365
12726TIP3    H159593   4.028   2.851   2.788 -0.5296 -1.0614 -1.3038
12726TIP3    H259594   3.932   2.760   2.861  0.4022 -1.5209 -0.6368
12727TIP3   OH259595   4.994   5.115   0.995  0.4663  0.0347  0.7598
12727TIP3    H159596   4.927   5.166   1.041  1.2776  0.3816  1.5863
12727TIP3    H259597   4.955   5.027   0.987 -1.0970  0.8231 -1.0262
12728TIP3   OH259598   3.182   1.903  15.699 -0.0337  0.3423  0.2131
12728TIP3    H159599   3.206   1.827  15.751  1.3582  0.3518 -0.3492
12728TIP3    H259600   3.259   1.960  15.704 -0.7894  1.4040  0.0749
12729TIP3   OH259601   1.482   1.990   0.968  0.3542  0.7439 -0.2228
12729TIP3    H159602   1.391   1.977   0.940  0.2445  1.3236 -0.1497
12729TIP3    H259603   1.478   2.066   1.025  0.8625  0.6588 -0.0718
12730TIP3   OH259604   1.523   2.552   5.450 -0.1383 -0.9834  0.2038
12730TIP3    H159605   1.460   2.578   5.384  1.9702 -0.6412 -1.8009
12730TIP3    H259606   1.501   2.461   5.471 -2.3628 -0.3356  0.9764
12731TIP3   OH259607   1.980   3.409   5.717  0.2765  0.1671 -0.0771
12731TIP3    H159608   1.952   3.457   5.795  0.4570  0.6931 -0.3303
12731TIP3    H259609   1.966   3.471   5.645 -2.7970 -1.3244 -0.9152
12732TIP3   OH259610   6.263   3.304   0.429  0.4851  0.3302  0.2562
12732TIP3    H159611   6.168   3.301   0.416  0.1903  1.7296  1.7061
12732TIP3    H259612   6.293   3.216   0.408 -1.2801 -0.4192  0.6825
12733TIP3   OH259613   3.723   4.592   6.004  0.4726 -0.1019  0.7772
12733TIP3    H159614   3.817   4.598   5.990  0.2046  3.1098 -0.3114
12733TIP3    H259615   3.705   4.657   6.071 -1.1386  0.2813  0.0069
12734TIP3   OH259616   2.251   0.327  16.242  0.0755 -0.1075 -0.3390
12734TIP3    H159617   2.315   0.341  16.172 -1.1416  0.4037 -1.3978
12734TIP3    H259618   2.276   0.388  16.311  0.3425  0.5635 -1.0233
12735TIP3   OH259619   2.588   4.837  13.324  0.0878  0.3263  0.3048
12735TIP3    H159620   2.595   4.751  13.364  1.9488 -0.3631 -1.2998
12735TIP3    H259621   2.603   4.821  13.231 -0.3288  2.2940 -0.1506
12736TIP3   OH259622   4.558   6.209  13.827 -0.7839  0.1181 -0.1346
12736TIP3    H159623   4.554   6.226  13.921  2.0590  0.0249  0.0950
12736TIP3    H259624   4.612   6.130  13.819  1.2136  1.5362 -1.8787
12737TIP3   OH259625   3.813   4.278  12.947 -0.0649 -0.3513  0.3692
12737TIP3    H159626   3.786   4.325  13.026  0.4532  1.7507 -0.6271
12737TIP3    H259627   3.909   4.275  12.952  0.0021  0.1525 -0.3272
12738TIP3   OH259628   0.352   4.211  13.677 -0.1699  0.2413  0.3082
12738TIP3    H159629   0.282   4.149  13.660 -0.1967  0.0230  1.1488
12738TIP3    H259630   0.399   4.219  13.594 -2.6338  2.2779 -1.0212
12739TIP3   OH259631   3.982   6.145  16.116 -0.2936  0.1308  0.2928
12739TIP3    H159632   4.014   6.234  16.123  1.9833 -0.5580 -0.6471
12739TIP3    H259633   3.925   6.145  16.039 -0.9517  0.9178  0.7671
12740TIP3   OH259634   1.191   3.040   6.163  0.0094  0.4939 -0.2584
12740TIP3    H159635   1.270   3.067   6.117  0.0804  0.5411 -0.1088
12740TIP3    H259636   1.202   3.074   6.252  0.1814 -0.2041 -0.0148
12741TIP3   OH259637   3.184   0.784  11.404  0.2155  0.2435 -0.0122
12741TIP3    H159638   3.228   0.827  11.331  1.9228 -0.7897  0.3681
12741TIP3    H259639   3.134   0.854  11.446 -1.3867  0.7421 -2.5162
12742TIP3   OH259640   1.050   1.738  15.626  0.1272  0.7394 -0.0924
12742TIP3    H159641   1.080   1.829  15.615 -1.1145  1.3933  1.4469
12742TIP3    H259642   1.009   1.717  15.542  0.5920  1.5348 -0.5410
12743TIP3   OH259643   2.187   4.703   5.619  0.1522 -0.5659  0.1820
12743TIP3    H159644   2.106   4.753   5.626  0.6374  0.3961 -0.6650
12743TIP3    H259645   2.220   4.696   5.709  0.3183  1.0990  0.2795
12744TIP3   OH259646   0.034   3.839  16.140  0.3312 -0.3875 -0.2623
12744TIP3    H159647   0.000   3.753  16.164  2.4177 -0.9497  0.9244
12744TIP3    H259648  -0.016   3.900  16.195  0.0077 -0.9956  0.1263
12745TIP3   OH259649   3.643   3.609  14.422 -0.0121  0.2424  0.2862
12745TIP3    H159650   3.650   3.695  14.379  0.6614  0.4252  0.7489
12745TIP3    H259651   3.579   3.561  14.369  1.0110  0.3573 -1.1038
12746TIP3   OH259652   2.268   3.181  14.247  0.3510  0.3798  0.5962
12746TIP3    H159653   2.316   3.166  14.328  0.6782 -1.3343  0.1406
12746TIP3    H259654   2.322   3.243  14.198  0.7158  0.5693  1.2300
12747TIP3   OH259655   3.308   2.929  17.256 -0.0685  0.6175  0.4335
12747TIP3    H159656   3.368   2.945  17.183 -0.5701  0.2736 -0.0646
12747TIP3    H259657   3.239   2.994  17.246 -0.3313  0.3348  0.3816
12748TIP3   OH259658   2.375   4.052   0.327 -0.3700  0.0708 -0.3078
12748TIP3    H159659   2.405   3.971   0.287  0.3187 -0.2058  0.7251
12748TIP3    H259660   2.280   4.043   0.332 -0.2279 -1.1395  0.7210
12749TIP3   OH259661   1.841   0.154  16.129  0.1849 -0.1295 -0.6547
12749TIP3    H159662   1.780   0.175  16.059  0.4979  1.5932 -0.4478
12749TIP3    H259663   1.845   0.233  16.183  1.3102 -0.7889  0.2863
12750TIP3   OH259664   5.044   3.098   4.013 -0.3102  0.8365  0.1694
12750TIP3    H159665   4.993   3.070   4.089 -3.0664  1.1649 -1.4572
12750TIP3    H259666   4.982   3.143   3.957  1.9621  1.9314 -1.6467
12751TIP3   OH259667   5.243   6.643   3.358  0.3618  0.0721  0.0893
12751TIP3    H159668   5.309   6.598   3.410 -1.0134 -0.7633  1.1472
12751TIP3    H259669   5.288   6.662   3.275  1.6353 -1.3135  0.4136
12752TIP3   OH259670   1.386   3.216  16.538 -0.3306 -0.0990  0.3930
12752TIP3    H159671   1.399   3.282  16.469  0.3962  1.1432  1.6590
12752TIP3    H259672   1.474   3.182  16.555 -0.3220  0.4642  1.5126
12753TIP3   OH259673   5.344   4.983   2.911  0.2178  0.0002  0.3857
12753TIP3    H159674   5.384   5.047   2.852  1.3994  0.3628  1.5498
12753TIP3    H259675   5.254   5.015   2.922 -0.3887 -0.6633 -2.0165
12754TIP3   OH259676   0.094   3.076   1.350 -0.1178 -0.1309 -0.3411
12754TIP3    H159677   0.096   3.161   1.305 -0.5486 -1.5211 -3.2136
12754TIP3    H259678   0.181   3.039   1.336  0.1571 -0.1173  1.1223
12755TIP3   OH259679   6.241   0.688   2.260 -0.1384  0.2364 -0.8945
12755TIP3    H159680   6.290   0.606   2.265  1.0782  0.9088 -1.3751
12755TIP3    H259681   6.280   0.734   2.186 -0.4439  1.4783 -0.3067
12756TIP3   OH259682   0.783   4.353   3.077  0.6147  0.0125 -0.0311
12756TIP3    H159683   0.736   4.323   3.155  0.5475  1.7296  0.6281
12756TIP3    H259684   0.873   4.365   3.106  0.4721  1.2233 -0.0249
12757TIP3   OH259685   1.277   0.998  15.206  0.2480  0.1496  0.2134
12757TIP3    H159686   1.262   1.019  15.298  2.3649  0.8612  0.4514
12757TIP3    H259687   1.336   1.067  15.175  2.5994 -2.0885 -0.6332
12758TIP3   OH259688   5.385   6.197  11.848  0.2074 -0.2773 -0.1890
12758TIP3    H159689   5.357   6.158  11.931  0.7801 -1.7925 -0.6745
12758TIP3    H259690   5.327   6.157  11.783 -0.1053  0.7481 -0.5547
12759TIP3   OH259691   0.636   0.461   5.652  0.2212 -0.2582 -0.0301
12759TIP3    H159692   0.546   0.492   5.649  0.7426  1.4253  0.8521
12759TIP3    H259693   0.630   0.372   5.688 -1.0060  0.1285  0.7644
12760TIP3   OH259694   1.399   4.910   0.799 -0.1121  0.1653 -0.0342
12760TIP3    H159695   1.454   4.938   0.726  0.2585  2.1799  0.9517
12760TIP3    H259696   1.312   4.900   0.761  0.5839 -1.6329 -1.3064
12761TIP3   OH259697   4.302   6.047   1.337  0.0344 -0.4985 -0.3296
12761TIP3    H159698   4.287   6.056   1.431 -0.7496  0.3954 -0.5180
12761TIP3    H259699   4.255   6.121   1.298  0.2312 -0.9283 -1.4341
12762TIP3   OH259700   2.492   0.899  11.326  0.0693  0.1514 -0.0830
12762TIP3    H159701   2.526   0.919  11.413  0.2940 -1.6961  0.2944
12762TIP3    H259702   2.544   0.954  11.267  1.8284 -0.5500  0.7307
12763TIP3   OH259703   2.841   5.054  13.678  0.0214 -0.4426  0.3613
12763TIP3    H159704   2.766   5.011  13.635 -0.4326  0.6633  0.0204
12763TIP3    H259705   2.883   5.104  13.608 -0.7818  1.4605  1.1774
12764TIP3   OH259706   6.755   3.604  12.656  0.0702 -0.3796 -0.0349
12764TIP3    H159707   6.821   3.643  12.713 -1.3496 -1.4033  2.4679
12764TIP3    H259708   6.796   3.524  12.624  0.7104 -0.0654 -0.0206
12765TIP3   OH259709   4.666   3.225  15.975 -0.1317 -0.1231  0.1751
12765TIP3    H159710   4.758   3.226  16.002  0.3475 -0.4124 -1.3399
12765TIP3    H259711   4.640   3.317  15.975 -0.5789 -0.1665  2.8135
12766TIP3   OH259712   3.218   4.085   4.852 -0.8475  0.2554  0.0083
12766TIP3    H159713   3.150   4.062   4.915  0.0879  1.2171  1.4169
12766TIP3    H259714   3.254   4.168   4.884  0.6489  0.0416 -0.9929
12767TIP3   OH259715   5.155   6.660  12.162  0.9963 -0.0288  0.4373
12767TIP3    H159716   5.198   6.745  12.152 -2.2070  1.8077  0.5233
12767TIP3    H259717   5.213   6.598  12.118  3.6264  2.1203  0.5969
12768TIP3   OH259718   5.828   0.521  14.290  0.8391 -0.4386  0.0662
12768TIP3    H159719   5.778   0.529  14.209  0.0302 -1.0031  0.4911
12768TIP3    H259720   5.910   0.568  14.273  1.4661 -2.0522 -1.6847
12769TIP3   OH259721   1.409   0.811   4.414  0.5537  0.1805  0.3596
12769TIP3    H159722   1.451   0.871   4.352  1.8958  1.1031  2.0563
12769TIP3    H259723   1.467   0.813   4.491 -1.0135 -0.9347  1.6259
12770TIP3   OH259724   5.923   3.350  15.029  0.1202  0.3508  0.5290
12770TIP3    H159725   5.871   3.303  15.095  0.8311  0.3914  1.1340
12770TIP3    H259726   6.004   3.372  15.074  1.0475 -0.4983 -0.6631
12771TIP3   OH259727   4.133   5.494  12.027 -0.3103  0.8341  0.4701
12771TIP3    H159728   4.188   5.506  11.949  3.0592  0.2540  2.5389
12771TIP3    H259729   4.094   5.580  12.042 -0.9135  1.0026 -1.6908
12772TIP3   OH259730   6.700   1.735   2.043 -0.1901  0.1650  0.2624
12772TIP3    H159731   6.620   1.683   2.041 -1.4893  2.0907 -0.0973
12772TIP3    H259732   6.769   1.673   2.021 -1.8370 -1.0942 -1.7291
12773TIP3   OH259733   1.695   5.328  11.624  0.0499  0.3318 -0.3697
12773TIP3    H159734   1.705   5.423  11.618 -0.3736  0.5067  1.1818
12773TIP3    H259735   1.785   5.295  11.628  0.2005  0.8417  0.9299
12774TIP3   OH259736   2.075   4.660  13.896 -0.6691 -0.0549 -0.6198
12774TIP3    H159737   2.003   4.628  13.950  0.4075 -0.0322  0.8971
12774TIP3    H259738   2.107   4.582  13.850 -1.2727 -0.1720 -0.8516
12775TIP3   OH259739   4.640   1.022  12.746 -0.4660 -0.0587 -0.0906
12775TIP3    H159740   4.622   0.937  12.785 -1.2479  0.7894  1.5059
12775TIP3    H259741   4.570   1.035  12.682 -0.0190 -0.8355 -0.7527
12776TIP3   OH259742   0.411   1.532   1.182  0.1837 -0.8656 -0.5158
12776TIP3    H159743   0.322   1.497   1.187  0.7538 -2.5280 -1.1219
12776TIP3    H259744   0.400   1.627   1.186 -1.5864 -1.0440 -0.2883
12777TIP3   OH259745   3.997   0.078  12.660  0.1821  0.1792  0.0145
12777TIP3    H159746   4.024  -0.008  12.628 -1.1252 -0.3616  0.3021
12777TIP3    H259747   4.008   0.074  12.754 -1.3766 -0.2601  0.2057
12778TIP3   OH259748   2.653   1.006   5.427  0.3604 -0.1050  0.2322
12778TIP3    H159749   2.625   0.915   5.439 -0.6820  0.1692 -0.0277
12778TIP3    H259750   2.623   1.051   5.506  1.6577 -0.1464  0.7748
12779TIP3   OH259751   1.835   2.557  16.119  0.0315 -0.0344  0.2946
12779TIP3    H159752   1.848   2.649  16.143  0.6564 -0.1232  0.3334
12779TIP3    H259753   1.784   2.520  16.191 -0.4254  0.3389  0.1623
12780TIP3   OH259754   1.298   0.959   6.873 -0.0115 -0.0268 -0.2563
12780TIP3    H159755   1.326   0.870   6.896  4.3407  0.7860 -1.5251
12780TIP3    H259756   1.252   0.948   6.790 -1.6370 -1.2168  0.7159
12781TIP3   OH259757   5.654   3.290  14.668  0.2352 -0.3375 -0.0368
12781TIP3    H159758   5.606   3.363  14.708  1.1894  1.1483 -1.4733
12781TIP3    H259759   5.697   3.246  14.741 -1.7161 -0.5559  1.0616
12782TIP3   OH259760   0.065   0.303   5.453 -0.2887  0.3056 -0.6419
12782TIP3    H159761  -0.014   0.327   5.500 -0.8075  0.7097 -1.6831
12782TIP3    H259762   0.125   0.376   5.467 -0.0673 -0.0347  0.2090
12783TIP3   OH259763   5.331   2.491   4.176  0.1212  0.0606 -0.1124
12783TIP3    H159764   5.266   2.552   4.211 -0.3749 -0.8706  0.6400
12783TIP3    H259765   5.377   2.541   4.108  0.0146  1.3876  0.7604
12784TIP3   OH259766   6.673   5.636   3.049 -0.0579  0.5786  0.6963
12784TIP3    H159767   6.690   5.682   2.966 -0.3758  2.4890  1.6225
12784TIP3    H259768   6.593   5.677   3.082 -2.0221 -2.6048  0.3165
12785TIP3   OH259769   1.764   1.958   6.363 -0.0475 -0.0856 -0.3642
12785TIP3    H159770   1.773   1.863   6.364 -0.2405 -0.0956  0.5765
12785TIP3    H259771   1.693   1.977   6.423 -0.9508  0.5745 -1.5962
12786TIP3   OH259772   6.529   4.239  12.741  0.0585  0.4891 -0.0458
12786TIP3    H159773   6.445   4.212  12.778 -0.1655  0.8220 -0.3136
12786TIP3    H259774   6.549   4.322  12.784 -0.3020  0.9811 -0.8242
12787TIP3   OH259775   2.790   2.859   1.764 -0.3469 -0.1871  0.2235
12787TIP3    H159776   2.775   2.768   1.737 -0.9065  0.6630 -2.6306
12787TIP3    H259777   2.874   2.882   1.725  0.5407  0.1341  2.2026
12788TIP3   OH259778   5.900   4.191  15.232  0.1210 -0.1718  0.1909
12788TIP3    H159779   5.977   4.184  15.288  0.2581 -0.5978 -0.0491
12788TIP3    H259780   5.826   4.193  15.293  0.3086  0.0250  0.4117
12789TIP3   OH259781   3.884   1.485   4.703 -0.2738 -0.5719  0.2356
12789TIP3    H159782   3.812   1.548   4.707 -0.2625 -0.5024 -0.6243
12789TIP3    H259783   3.850   1.408   4.749 -2.7131 -2.2940 -3.9139
12790TIP3   OH259784   5.752   1.647   4.981  0.1276  0.4842  0.7137
12790TIP3    H159785   5.819   1.709   4.953 -0.3952  1.2780  1.1722
12790TIP3    H259786   5.735   1.670   5.073  0.3010 -0.6918  1.0490
12791TIP3   OH259787   0.145   3.819  12.355 -0.0672  0.5728  0.0617
12791TIP3    H159788   0.224   3.844  12.404  1.2198 -0.2342 -1.5108
12791TIP3    H259789   0.136   3.725  12.369 -0.5492  0.5987 -0.0563
12792TIP3   OH259790   3.209   6.771  14.398 -0.4300 -0.1314  0.3407
12792TIP3    H159791   3.145   6.754  14.467 -1.9148 -0.3999 -1.0385
12792TIP3    H259792   3.179   6.852  14.357  0.2772 -0.1241 -0.1687
12793TIP3   OH259793   4.860   0.248  11.736 -0.3295  0.5149  0.3958
12793TIP3    H159794   4.877   0.188  11.663 -1.8684  1.0116 -0.4094
12793TIP3    H259795   4.772   0.280  11.721 -1.5155 -0.8114  3.4812
12794TIP3   OH259796   5.999   4.609  12.881 -0.5366 -0.0108  0.1505
12794TIP3    H159797   6.087   4.572  12.893 -0.9252 -0.3184  2.3944
12794TIP3    H259798   5.942   4.532  12.875 -0.7904  0.2020 -0.2136
12795TIP3   OH259799   6.136   2.483   3.266  0.2342  0.2692  0.3200
12795TIP3    H159800   6.042   2.471   3.276  0.5943 -2.0452  1.8263
12795TIP3    H259801   6.154   2.457   3.176 -0.5375  0.6610  0.0450
12796TIP3   OH259802   1.044   3.780  13.865  0.3360  0.1375  0.4720
12796TIP3    H159803   0.998   3.830  13.797  0.5090  0.6647  0.7384
12796TIP3    H259804   1.134   3.812  13.861  0.3994 -0.0024  0.7896
12797TIP3   OH259805   2.003   0.317   5.555  0.4645 -0.0843 -0.0256
12797TIP3    H159806   2.036   0.275   5.634  0.3672  0.4780  0.3151
12797TIP3    H259807   1.997   0.246   5.491  1.9360 -0.2744  0.0285
12798TIP3   OH259808   5.645   5.100  11.651 -0.0724 -0.4324  0.2685
12798TIP3    H159809   5.592   5.030  11.611 -0.3137 -0.8204  1.2517
12798TIP3    H259810   5.731   5.092  11.608 -0.9996  0.7859 -2.0125
12799TIP3   OH259811   5.295   0.950  14.506  0.7948 -0.6576  0.0539
12799TIP3    H159812   5.282   0.866  14.549  1.4385 -0.9916 -0.3775
12799TIP3    H259813   5.372   0.988  14.549 -0.2827  0.3519  1.1808
12800TIP3   OH259814   4.412   5.754   3.987 -0.2323 -0.0224  0.4643
12800TIP3    H159815   4.331   5.702   3.983 -0.6089  0.5716  0.3008
12800TIP3    H259816   4.421   5.790   3.898  0.0588  0.1476  0.5626
12801TIP3   OH259817   1.280   4.836   5.672 -0.5810  0.2140 -0.3618
12801TIP3    H159818   1.236   4.863   5.753  1.0647  0.0091  0.6406
12801TIP3    H259819   1.211   4.841   5.605 -2.2305 -0.4808  1.1845
12802TIP3   OH259820   1.972   2.876   1.622  0.4223 -0.0378 -0.2871
12802TIP3    H159821   1.879   2.894   1.631  0.3837  0.2057 -1.1264
12802TIP3    H259822   2.015   2.961   1.635  0.5904 -0.2856  0.8832
12803TIP3   OH259823   0.620   4.350   4.090  0.0203 -0.5663 -0.2965
12803TIP3    H159824   0.529   4.378   4.086  0.5236  1.0466 -1.7239
12803TIP3    H259825   0.625   4.276   4.030 -0.6927 -1.8938  1.2068
12804TIP3   OH259826   3.931   5.122  11.260 -0.1865  0.0679  0.9761
12804TIP3    H159827   3.888   5.193  11.212  1.9503 -1.2005 -3.3761
12804TIP3    H259828   3.869   5.050  11.259  0.0065 -0.1032 -0.5038
12805TIP3   OH259829   3.855   4.334  15.775  0.1622 -0.1390 -0.3474
12805TIP3    H159830   3.889   4.416  15.738  0.6282 -0.5124 -0.7524
12805TIP3    H259831   3.820   4.287  15.700 -0.4035 -0.1759 -0.0677
12806TIP3   OH259832   5.825   6.225   0.512  0.6642 -0.1163  0.2812
12806TIP3    H159833   5.887   6.203   0.581  1.9622 -0.7246 -1.0306
12806TIP3    H259834   5.764   6.286   0.553  0.5293 -1.5190  2.3592
12807TIP3   OH259835   3.489   3.553  15.626  0.1525  0.2521 -0.2365
12807TIP3    H159836   3.524   3.560  15.715  2.6516 -0.9908 -1.0130
12807TIP3    H259837   3.463   3.461  15.618  0.4148  0.2296 -0.9214
12808TIP3   OH259838   3.999   3.510   5.189  0.2783 -1.0137 -0.4151
12808TIP3    H159839   4.033   3.558   5.265  2.9609 -3.1901 -0.0686
12808TIP3    H259840   3.958   3.433   5.226 -0.0043 -1.2034 -1.1134
12809TIP3   OH259841   6.076   5.571   0.690  0.4876 -0.4622  0.3773
12809TIP3    H159842   6.111   5.577   0.601  1.5756 -2.5426  0.6069
12809TIP3    H259843   5.985   5.542   0.679  0.6286 -0.7379 -0.0721
12810TIP3   OH259844   4.040   6.353  12.114  0.1724 -0.1510  0.2839
12810TIP3    H159845   4.125   6.325  12.079  1.2692  1.5259  1.4434
12810TIP3    H259846   3.993   6.271  12.132  1.9835 -1.1588  0.6508
12811TIP3   OH259847   1.278   2.045  11.547 -0.5607  0.0880 -0.3162
12811TIP3    H159848   1.310   1.962  11.511 -0.9230  0.7912 -2.3938
12811TIP3    H259849   1.220   2.019  11.618 -0.7675 -1.4526 -1.0019
12812TIP3   OH259850   4.234   5.763  11.007  0.4754 -0.7095 -0.1763
12812TIP3    H159851   4.247   5.849  11.048 -0.6284 -0.6165  0.0092
12812TIP3    H259852   4.274   5.770  10.921  1.1521 -0.2931  0.1661
12813TIP3   OH259853   3.662   4.904  12.239 -0.3601 -0.8511  0.0110
12813TIP3    H159854   3.694   4.838  12.178 -2.3564 -1.2592 -0.6596
12813TIP3    H259855   3.740   4.953  12.263  0.7271 -1.6094 -1.7249
12814TIP3   OH259856   1.231   6.602   0.528 -0.4885 -0.3390 -0.1363
12814TIP3    H159857   1.292   6.670   0.558  0.4070 -1.6627  1.1340
12814TIP3    H259858   1.284   6.523   0.522 -1.6712 -1.1044 -0.9431
12815TIP3   OH259859   6.343   5.010   2.143  0.1330  0.0638 -0.2342
12815TIP3    H159860   6.374   4.936   2.090 -1.5558 -1.3254  0.6090
12815TIP3    H259861   6.381   4.995   2.229 -0.6934 -0.1550  0.0951
12816TIP3   OH259862   3.111   3.375  16.938 -0.1923 -0.3341 -0.1271
12816TIP3    H159863   3.015   3.374  16.945 -0.4920 -0.9044 -2.9024
12816TIP3    H259864   3.128   3.412  16.851  2.0905 -0.7774  0.0647
12817TIP3   OH259865   2.674   4.152   3.167  0.3059  0.7249  0.0091
12817TIP3    H159866   2.617   4.098   3.222  1.2569 -0.5085 -0.1779
12817TIP3    H259867   2.651   4.128   3.077  1.1357  0.1932 -0.0651
12818TIP3   OH259868   3.950   6.615  12.129 -0.2330 -0.1559  0.1215
12818TIP3    H159869   3.965   6.676  12.057 -0.0259  0.1880  0.4528
12818TIP3    H259870   3.980   6.530  12.095 -0.0936  0.0123 -0.1793
12819TIP3   OH259871   1.898   2.728  17.133 -0.1270  0.5081  0.4607
12819TIP3    H159872   1.993   2.718  17.140  0.1832  1.9871 -1.0100
12819TIP3    H259873   1.879   2.807  17.184 -0.4267  0.7299  0.0123
12820TIP3   OH259874   3.180   5.905   3.797 -0.8127  0.1836  1.0178
12820TIP3    H159875   3.141   5.824   3.762 -0.4007  0.2705  0.3489
12820TIP3    H259876   3.246   5.875   3.858  0.8017 -0.0636 -0.7537
12821TIP3   OH259877   3.280   2.964   5.347  0.1212  0.3387  0.1480
12821TIP3    H159878   3.367   2.966   5.306 -0.1516  0.1810 -0.4552
12821TIP3    H259879   3.279   2.884   5.399 -0.1394 -0.3820 -0.9342
12822TIP3   OH259880   3.999   4.721  13.181  0.3344 -0.6794 -0.2492
12822TIP3    H159881   4.006   4.628  13.204  0.9019 -1.0199 -1.6613
12822TIP3    H259882   3.968   4.721  13.091 -2.7037  0.6059  0.6910
12823TIP3   OH259883   3.121   1.306   6.119 -0.2317 -0.5998  0.1200
12823TIP3    H159884   3.137   1.250   6.195 -1.4335 -2.6379 -1.0423
12823TIP3    H259885   3.035   1.345   6.137 -1.1376 -2.1055 -0.6928
12824TIP3   OH259886   5.730   2.831  15.142  0.4515 -0.3099  0.1377
12824TIP3    H159887   5.782   2.801  15.067  0.6591 -1.1335  0.6092
12824TIP3    H259888   5.641   2.804  15.122  0.5228 -0.6144  0.2369
12825TIP3   OH259889   4.719   0.274   5.857 -0.3252 -0.2705  0.6889
12825TIP3    H159890   4.697   0.342   5.922 -1.1144 -0.5164  0.6907
12825TIP3    H259891   4.652   0.284   5.789  0.8971  0.4518 -0.4747
12826TIP3   OH259892   0.099   5.961  16.583 -0.1195 -0.4259  0.7346
12826TIP3    H159893   0.173   5.957  16.522  0.8828 -2.2425  1.9832
12826TIP3    H259894   0.134   6.008  16.658 -0.0160 -1.7654  1.5558
12827TIP3   OH259895   1.771   1.769  13.766  0.5671 -0.4105 -0.7566
12827TIP3    H159896   1.840   1.703  13.772  1.3878  0.4520 -0.5470
12827TIP3    H259897   1.694   1.726  13.803  0.4945 -2.0163 -2.6197
12828TIP3   OH259898   6.584   2.389  11.546 -0.2392 -0.4046 -0.1218
12828TIP3    H159899   6.597   2.369  11.454  0.8161 -0.0854 -0.0474
12828TIP3    H259900   6.621   2.314  11.593 -1.6079 -1.0103  0.0437
12829TIP3   OH259901   1.806   0.202   4.008 -0.5052 -0.1127 -0.0016
12829TIP3    H159902   1.798   0.191   3.913 -0.2857 -2.3577  0.1891
12829TIP3    H259903   1.730   0.255   4.032 -0.7662  0.1848 -1.3845
12830TIP3   OH259904   0.283   6.718  14.346 -0.7759  0.2118  0.3249
12830TIP3    H159905   0.329   6.643  14.384 -0.8072  1.0582  2.1681
12830TIP3    H259906   0.282   6.783  14.417 -3.9186  0.6221  0.0246
12831TIP3   OH259907   5.984   3.419   4.117  0.4528  0.0675  0.0304
12831TIP3    H159908   5.997   3.325   4.109 -0.5772 -0.1922  1.0321
12831TIP3    H259909   5.989   3.436   4.211 -0.2377  0.8636 -0.0587
12832TIP3   OH259910   1.240   3.954   0.238  0.1261  0.6476 -0.1859
12832TIP3    H159911   1.241   4.009   0.316 -1.4964  0.2846  0.1246
12832TIP3    H259912   1.316   3.896   0.249 -0.5233  0.0474  1.5606
12833TIP3   OH259913   4.257   0.825   4.965  0.5793  0.1230  0.0065
12833TIP3    H159914   4.244   0.731   4.957  0.8430  0.1019 -0.2189
12833TIP3    H259915   4.223   0.848   5.051 -1.2224  0.1253 -0.6621
12834TIP3   OH259916   0.959   0.937  11.452  0.7450  0.1081  0.4046
12834TIP3    H159917   0.895   0.867  11.443 -0.1304  0.9459 -0.0035
12834TIP3    H259918   0.957   0.983  11.368  1.4359  0.5262  0.6014
12835TIP3   OH259919   2.618   6.086  15.402 -0.6128  0.1036 -0.1833
12835TIP3    H159920   2.605   5.994  15.425  0.7059 -0.0313  0.0992
12835TIP3    H259921   2.627   6.085  15.306 -0.4640 -0.0754 -0.1683
12836TIP3   OH259922   5.989   5.003   4.236 -0.3721  0.0351  0.3397
12836TIP3    H159923   6.042   4.947   4.292 -0.9158  0.4004  1.2352
12836TIP3    H259924   5.908   4.953   4.221 -0.6742  0.3807  0.7788
12837TIP3   OH259925   0.483   1.446   0.173 -0.1217  0.3363  0.2990
12837TIP3    H159926   0.563   1.487   0.206  0.0263 -2.4075  4.0539
12837TIP3    H259927   0.417   1.515   0.179  1.4522  2.0412 -0.7833
12838TIP3   OH259928   3.163   0.548  13.066  0.5055  0.3099  0.3330
12838TIP3    H159929   3.191   0.565  12.976  1.5602 -1.1439  0.3514
12838TIP3    H259930   3.237   0.501  13.106 -0.2911  0.1632  1.6925
12839TIP3   OH259931   6.403   4.992  15.106  0.3897  0.3870  0.3504
12839TIP3    H159932   6.399   5.035  15.021  2.3795 -0.0236 -0.0105
12839TIP3    H259933   6.393   5.063  15.169  0.5845  0.9402 -0.2257
12840TIP3   OH259934   1.463   0.935   2.810 -0.6202  0.1007  0.0153
12840TIP3    H159935   1.541   0.989   2.815 -0.6122  0.2081 -1.0217
12840TIP3    H259936   1.405   0.969   2.878  0.1525  0.1515  0.6507
12841TIP3   OH259937   3.290   5.275   2.296 -0.0157  0.8206 -0.0055
12841TIP3    H159938   3.384   5.268   2.278 -0.3136  0.2277 -1.4371
12841TIP3    H259939   3.284   5.267   2.392  1.4495  1.7615  0.1953
12842TIP3   OH259940   0.549   1.797  14.883  0.2475 -0.6332  0.0858
12842TIP3    H159941   0.604   1.875  14.873  0.8489 -1.0762 -0.1543
12842TIP3    H259942   0.589   1.732  14.824  0.8477 -1.7062  1.6092
12843TIP3   OH259943   6.229   1.969  15.741 -0.1898  0.0867  0.0247
12843TIP3    H159944   6.277   1.896  15.702 -0.7377  0.4191 -1.3459
12843TIP3    H259945   6.200   2.021  15.666 -3.2120 -0.4380  0.6818
12844TIP3   OH259946   4.814   3.614  15.095  0.1942  0.5392 -0.1966
12844TIP3    H159947   4.744   3.592  15.033 -0.8363 -0.3464  1.2230
12844TIP3    H259948   4.868   3.536  15.098  0.9392  1.0168 -0.8567
12845TIP3   OH259949   2.266   6.509  14.714  0.2271  0.1570 -0.2444
12845TIP3    H159950   2.177   6.511  14.750  0.9928  0.3039  1.7534
12845TIP3    H259951   2.253   6.508  14.619 -1.9127 -0.8506 -0.0009
12846TIP3   OH259952   1.343   4.255   5.245 -0.1368  0.3091  0.2485
12846TIP3    H159953   1.302   4.246   5.331 -0.2309  0.3689  0.2102
12846TIP3    H259954   1.368   4.166   5.220 -0.0311  0.3031  0.3761
12847TIP3   OH259955   1.970   2.158   1.974  0.2761  0.2720 -0.0025
12847TIP3    H159956   1.900   2.130   2.034  0.5170 -1.2055 -0.3575
12847TIP3    H259957   2.049   2.115   2.007  0.5924  0.2070 -0.8203
12848TIP3   OH259958   6.128   5.275  12.814  0.0874  0.2275  0.4477
12848TIP3    H159959   6.218   5.307  12.818  0.1721 -0.0684  0.9271
12848TIP3    H259960   6.137   5.184  12.787 -0.1388  0.5195 -0.6619
12849TIP3   OH259961   2.339   4.017   6.382 -0.2314 -0.0921  0.1973
12849TIP3    H159962   2.255   4.064   6.376  0.8548  1.7765 -2.0130
12849TIP3    H259963   2.393   4.072   6.439 -0.2479 -0.8932  0.9972
12850TIP3   OH259964   4.843   3.292  13.467 -0.5301  0.2632  0.2614
12850TIP3    H159965   4.835   3.197  13.464  1.7844  0.0281 -0.1284
12850TIP3    H259966   4.774   3.320  13.527  0.4456 -1.9205  2.6162
12851TIP3   OH259967   1.246   4.421   1.362 -0.6403 -0.8052  0.2227
12851TIP3    H159968   1.245   4.341   1.415  0.2004 -0.9233  0.0779
12851TIP3    H259969   1.309   4.403   1.293  1.7060  0.9505  1.7606
12852TIP3   OH259970   4.403   2.133  16.291 -0.3863 -0.5574  0.0994
12852TIP3    H159971   4.314   2.168  16.297  0.6657  2.2202  0.5748
12852TIP3    H259972   4.426   2.142  16.199 -0.2551 -0.3536  0.1510
12853TIP3   OH259973   6.011   6.172   4.759 -0.2123  0.1937  0.0375
12853TIP3    H159974   6.032   6.196   4.849  0.4019 -0.4744  0.0743
12853TIP3    H259975   6.074   6.104   4.736 -1.0309 -0.3819 -0.5515
12854TIP3   OH259976   3.923   0.021  16.716  0.1090  0.3454  0.0426
12854TIP3    H159977   3.927   0.116  16.709 -0.2968  0.4376  0.9358
12854TIP3    H259978   3.874   0.005  16.796  0.7959 -0.6085  0.2899
12855TIP3   OH259979   5.359   1.369   0.891 -0.1233 -0.4456  0.0974
12855TIP3    H159980   5.413   1.364   0.970 -0.1236 -0.7099  0.0842
12855TIP3    H259981   5.302   1.444   0.905  0.2281 -0.1804  0.1241
12856TIP3   OH259982   5.051   0.589  15.999 -0.2435  0.0372  0.8698
12856TIP3    H159983   5.068   0.631  15.915 -1.6972  0.7429  0.8961
12856TIP3    H259984   5.002   0.510  15.977  1.0541 -0.8347  0.9477
12857TIP3   OH259985   4.334   2.787   4.314  0.2852 -0.9509 -0.0827
12857TIP3    H159986   4.383   2.781   4.396  0.8958 -0.1150 -0.3661
12857TIP3    H259987   4.268   2.855   4.331 -0.0709 -1.3059 -0.0469
12858TIP3   OH259988   3.806   3.943   5.110  0.6136  0.3263  0.5156
12858TIP3    H159989   3.853   3.993   5.043 -0.4805  0.4472 -0.1928
12858TIP3    H259990   3.749   3.885   5.060 -1.3074  1.4357  1.3033
12859TIP3   OH259991   5.502   4.262   5.097  0.0984  0.1112  0.4734
12859TIP3    H159992   5.407   4.253   5.089  0.2465 -0.6837 -0.6248
12859TIP3    H259993   5.527   4.202   5.168 -0.2662  0.7607  1.1692
12860TIP3   OH259994   1.320   2.110  13.959 -0.2097 -0.0608  0.0847
12860TIP3    H159995   1.314   2.021  13.926 -0.2399  0.3159 -0.9668
12860TIP3    H259996   1.242   2.154  13.926  0.8763  0.9382 -1.3211
12861TIP3   OH259997   2.691   5.877  12.433  0.1056  0.3830 -0.2603
12861TIP3    H159998   2.771   5.857  12.386  0.1791  0.6375 -0.2486
12861TIP3    H259999   2.667   5.796  12.477  1.6821  0.8969  1.7116
12862TIP3   OH260000   3.369   2.599   5.225  0.4930  0.4067  0.0076
12862TIP3    H160001   3.364   2.642   5.310  1.9396  2.0762 -0.7025
12862TIP3    H260002   3.462   2.582   5.212  0.5761  2.1880 -2.1803
12863TIP3   OH260003   1.106   5.180   4.859  0.0611  0.4036 -0.3553
12863TIP3    H160004   1.125   5.101   4.910  2.2400  1.4137  0.5088
12863TIP3    H260005   1.124   5.155   4.768 -0.1411 -0.3233 -0.2031
12864TIP3   OH260006   1.590   4.913  15.710  0.1083  0.0170  1.0975
12864TIP3    H160007   1.543   4.909  15.793  0.1114 -1.7856  1.0618
12864TIP3    H260008   1.532   4.868  15.648  0.9544 -0.3958  0.5881
12865TIP3   OH260009   3.369   1.534  13.097 -0.6455  0.3038  0.6338
12865TIP3    H160010   3.338   1.542  13.007  0.1094 -1.0392  0.2249
12865TIP3    H260011   3.375   1.625  13.129  0.7100  0.9473 -1.2566
12866TIP3   OH260012   5.050   0.662  14.167  0.6722  0.0308  0.0934
12866TIP3    H160013   5.045   0.577  14.210 -1.7836 -0.0060 -0.1306
12866TIP3    H260014   5.118   0.709  14.215  2.2970 -2.1120  0.0506
12867TIP3   OH260015   5.308   6.043  15.948 -0.4803  0.3350 -0.0046
12867TIP3    H160016   5.337   5.966  15.996 -0.7107 -0.4795 -1.1643
12867TIP3    H260017   5.318   6.021  15.856 -0.7513  1.6105 -0.3652
12868TIP3   OH260018   0.125   3.304   1.588 -0.6343  0.7010 -0.5221
12868TIP3    H160019   0.033   3.324   1.605 -0.6596 -0.6015  1.1486
12868TIP3    H260020   0.126   3.212   1.562  0.4290 -0.4865  3.0631
12869TIP3   OH260021   1.582   2.048   0.019  0.3849  0.3875  0.3778
12869TIP3    H160022   1.644   1.997  -0.032 -0.4807 -0.7090  0.3670
12869TIP3    H260023   1.497   2.008  -0.001 -0.9567  4.0942 -2.5331
12870TIP3   OH260024   1.906   1.695   4.933  0.0992 -0.4960  0.2091
12870TIP3    H160025   1.881   1.693   5.026 -0.0282 -0.3505  0.1789
12870TIP3    H260026   1.998   1.668   4.933  0.3531  0.3034  0.4751
12871TIP3   OH260027   3.215   6.134  13.274  0.0222 -0.0937  0.0606
12871TIP3    H160028   3.277   6.074  13.316 -1.1118 -1.0906  0.3642
12871TIP3    H260029   3.140   6.079  13.252 -0.8317  1.1245 -0.1440
12872TIP3   OH260030   4.300   2.377  13.347  0.2730 -0.0768  0.4235
12872TIP3    H160031   4.243   2.342  13.416  0.8849 -1.2640  0.3690
12872TIP3    H260032   4.355   2.302  13.323  2.0434  1.0998  0.6783
12873TIP3   OH260033   2.907   6.224  12.511  0.1001  0.3851  0.2982
12873TIP3    H160034   2.826   6.218  12.461 -0.4092  0.2022  1.1182
12873TIP3    H260035   2.965   6.158  12.472 -0.9726 -1.1466  1.1725
12874TIP3   OH260036   2.561   4.466  15.657 -0.3014  0.0382  0.6038
12874TIP3    H160037   2.477   4.424  15.640 -0.7619  0.9748  0.4934
12874TIP3    H260038   2.587   4.503  15.573 -0.0852  0.2951  0.7817
12875TIP3   OH260039   1.965   5.532   5.104 -0.0429 -0.4404 -0.6409
12875TIP3    H160040   1.975   5.625   5.125 -0.4110 -0.4884 -0.2548
12875TIP3    H260041   2.028   5.517   5.033  0.3445 -0.0040 -0.3917
12876TIP3   OH260042   4.747   3.206   3.335 -0.2650 -0.7839 -0.1555
12876TIP3    H160043   4.798   3.128   3.359 -1.4057 -0.9185  2.0195
12876TIP3    H260044   4.690   3.222   3.410 -0.5455  1.7767 -0.8197
12877TIP3   OH260045   1.153   6.466  16.133  0.5421 -0.4544 -0.5555
12877TIP3    H160046   1.240   6.481  16.096 -0.1593  2.2973 -1.3536
12877TIP3    H260047   1.139   6.539  16.193 -0.4914 -1.9248  1.1025
12878TIP3   OH260048   0.011   3.879  16.608 -0.0284 -0.1650  0.4241
12878TIP3    H160049  -0.044   3.876  16.530  0.5008 -3.2246  0.0534
12878TIP3    H260050  -0.050   3.866  16.681 -0.3612  1.4085  0.4497
12879TIP3   OH260051   3.066   4.679  16.850  0.1203  0.3010 -0.9451
12879TIP3    H160052   3.074   4.609  16.915 -2.3511  0.5518 -0.2766
12879TIP3    H260053   3.149   4.726  16.855  1.0007 -1.2618  0.1433
12880TIP3   OH260054   6.292   4.403   5.099 -0.2949 -0.7585 -0.5031
12880TIP3    H160055   6.275   4.492   5.067  0.2104 -0.5911 -0.3067
12880TIP3    H260056   6.257   4.346   5.030 -1.8306 -0.4351 -0.0439
12881TIP3   OH260057   6.041   0.441   6.469 -0.0438 -0.1274 -0.1134
12881TIP3    H160058   6.112   0.426   6.406 -1.5623 -1.3855 -1.6088
12881TIP3    H260059   5.964   0.457   6.415 -1.5317 -1.8416  1.3743
12882TIP3   OH260060   2.973   0.436  16.329 -0.2197  0.0266 -0.7458
12882TIP3    H160061   3.000   0.344  16.316 -0.6751  0.0225 -1.8118
12882TIP3    H260062   2.970   0.472  16.240 -0.8623  0.8482 -0.4035
12883TIP3   OH260063   1.502   4.670  13.803  0.4298  0.3901 -0.3369
12883TIP3    H160064   1.482   4.720  13.883  0.2051  2.3758 -1.5782
12883TIP3    H260065   1.416   4.650  13.766  0.5299 -0.7029  0.0070
12884TIP3   OH260066   1.292   2.909   0.692 -0.3089  0.2664  0.2651
12884TIP3    H160067   1.388   2.905   0.692 -0.2642  0.9565  1.2623
12884TIP3    H260068   1.266   2.866   0.774 -1.0000 -2.0565 -1.0847
12885TIP3   OH260069   3.427   6.187   1.630 -0.2135 -0.1285  0.0181
12885TIP3    H160070   3.492   6.216   1.695  0.6286 -2.1003  0.1437
12885TIP3    H260071   3.480   6.150   1.559 -1.1750 -0.2866 -0.6264
12886TIP3   OH260072   0.717   0.766   0.313 -0.8509  0.0130  0.0642
12886TIP3    H160073   0.743   0.770   0.405  0.0066 -1.9279 -0.0267
12886TIP3    H260074   0.705   0.857   0.286  0.6902  0.7184  1.5965
12887TIP3   OH260075   5.045   3.259  13.908 -0.1817 -0.2465 -0.4280
12887TIP3    H160076   4.967   3.209  13.931  0.4603 -0.8266  0.5428
12887TIP3    H260077   5.112   3.193  13.890  0.2011  0.2498 -0.8773
12888TIP3   OH260078   2.493   6.029   0.705 -0.5984  0.1007  0.6152
12888TIP3    H160079   2.530   6.074   0.781 -1.1809 -0.7888  1.4416
12888TIP3    H260080   2.451   5.951   0.741  0.7144 -1.3434 -0.8094
12889TIP3   OH260081   5.366   0.168  13.544  0.1283  0.0604 -0.0124
12889TIP3    H160082   5.275   0.193  13.529  0.2133  0.3184 -0.1111
12889TIP3    H260083   5.374   0.081  13.504  0.1889  0.4686 -0.9147
12890TIP3   OH260084   0.282   6.557  16.753  0.6159  0.3287 -0.3074
12890TIP3    H160085   0.189   6.564  16.775  0.2531  0.9129 -1.8977
12890TIP3    H260086   0.283   6.537  16.660  2.0956  0.2171 -0.2876
12891TIP3   OH260087   5.086   3.276  11.470  0.5081 -0.1468  0.1626
12891TIP3    H160088   5.058   3.195  11.429 -2.0210  0.3160  0.7962
12891TIP3    H260089   5.056   3.345  11.411  3.4972  0.4139 -0.8782
12892TIP3   OH260090   2.390   4.870  13.923  0.2436 -0.1073 -0.1390
12892TIP3    H160091   2.437   4.919  13.855 -0.5002  0.2629 -0.4012
12892TIP3    H260092   2.378   4.783  13.885 -2.7786  0.8927 -1.8036
12893TIP3   OH260093   4.159   1.025  13.662 -0.1599  0.6302 -0.4537
12893TIP3    H160094   4.071   1.052  13.688  0.1094  1.7117 -0.6165
12893TIP3    H260095   4.207   1.019  13.744 -0.5400 -0.6518 -0.2918
12894TIP3   OH260096   2.963   0.576  12.689 -0.0796  0.6933  0.2546
12894TIP3    H160097   2.878   0.593  12.731 -0.6554 -0.9630 -0.1521
12894TIP3    H260098   2.981   0.656  12.639 -1.8135  0.7840 -0.3113
12895TIP3   OH260099   1.843   0.822  11.830 -0.2538 -0.0829  0.0588
12895TIP3    H160100   1.843   0.756  11.760  1.4950  1.4920 -1.5209
12895TIP3    H260101   1.930   0.817  11.868 -1.4502 -1.5560  2.9068
12896TIP3   OH260102   6.213   6.778  14.981  0.4798  0.2002  0.0157
12896TIP3    H160103   6.193   6.787  14.888  2.1023 -1.6605 -0.5977
12896TIP3    H260104   6.128   6.778  15.025 -0.4689 -0.9033 -1.7062
12897TIP3   OH260105   0.580   3.215   3.350 -0.2393 -0.0240 -0.4950
12897TIP3    H160106   0.599   3.148   3.284  0.1961 -1.0378  0.6268
12897TIP3    H260107   0.530   3.282   3.302 -2.9747 -2.3415 -1.1216
12898TIP3   OH260108   5.145   1.168  16.994  0.4329  0.3063 -0.1992
12898TIP3    H160109   5.170   1.079  17.020  0.7308  0.6885  0.8867
12898TIP3    H260110   5.138   1.164  16.899 -2.4052 -1.6334 -0.0543
12899TIP3   OH260111   3.241   1.248  14.984 -0.0090 -0.1982 -0.3733
12899TIP3    H160112   3.294   1.170  14.966  0.7128  0.1626  0.1660
12899TIP3    H260113   3.278   1.284  15.064  0.3076  1.2547 -1.1530
12900TIP3   OH260114   6.425   5.228   3.802 -0.1100 -0.2633  0.2333
12900TIP3    H160115   6.376   5.256   3.725  0.6143 -0.9861 -0.5166
12900TIP3    H260116   6.359   5.186   3.858 -0.3122 -1.6640 -0.9729
12901TIP3   OH260117   4.982   1.773   1.402  0.1268  0.1567 -0.3686
12901TIP3    H160118   5.069   1.754   1.440 -0.5281  0.5724  1.4549
12901TIP3    H260119   4.942   1.833   1.465 -1.1183  0.7626 -1.6991
12902TIP3   OH260120   1.317   0.732  16.540 -0.4318 -0.3214 -0.4578
12902TIP3    H160121   1.339   0.816  16.580  0.1160 -0.5470 -0.2879
12902TIP3    H260122   1.229   0.746  16.504 -0.6215  0.1166  0.1533
12903TIP3   OH260123   3.050   5.025   1.400 -0.3204  0.7125  0.0968
12903TIP3    H160124   3.029   4.939   1.364 -0.6740  0.0565  1.7469
12903TIP3    H260125   3.083   5.075   1.326  1.3822 -1.3237 -0.6339
12904TIP3   OH260126   0.997   1.254   2.128 -0.2040 -0.4781  0.7748
12904TIP3    H160127   1.072   1.311   2.107  0.3601 -1.4931 -0.0533
12904TIP3    H260128   0.930   1.280   2.066 -0.0137 -0.5879  0.5219
12905TIP3   OH260129   0.673   5.891   2.460  0.0522  0.0814  0.1739
12905TIP3    H160130   0.728   5.905   2.383  0.1750 -1.1442  0.0191
12905TIP3    H260131   0.634   5.805   2.447  1.5927 -1.0582  2.3616
12906TIP3   OH260132   1.662   2.127   2.082  0.9638  0.2091  0.8382
12906TIP3    H160133   1.723   2.118   2.156  0.1945 -1.6963  1.2892
12906TIP3    H260134   1.590   2.067   2.103  0.0231  0.7369 -0.7698
12907TIP3   OH260135   1.306   5.778  14.603 -0.4310 -0.2326 -0.0439
12907TIP3    H160136   1.370   5.715  14.569  1.1489  1.6786 -0.7551
12907TIP3    H260137   1.250   5.725  14.660  0.5222 -2.3705 -0.9498
12908TIP3   OH260138   5.188   1.452   3.013 -0.4382  0.1802 -0.5506
12908TIP3    H160139   5.121   1.495   2.961 -0.7451 -0.2404 -0.5057
12908TIP3    H260140   5.189   1.361   2.982 -1.0571 -0.2335  0.5898
12909TIP3   OH260141   3.641   5.161   0.383  0.3684 -0.1302 -0.2978
12909TIP3    H160142   3.707   5.092   0.388 -1.5643 -2.1111 -0.1699
12909TIP3    H260143   3.615   5.177   0.473 -0.6280 -0.7614 -0.4567
12910TIP3   OH260144   0.649   6.586   4.408 -0.2982  0.4098  0.5985
12910TIP3    H160145   0.744   6.582   4.401 -0.2129  2.2755  0.2250
12910TIP3    H260146   0.618   6.513   4.355  0.9155 -0.3587  0.9103
12911TIP3   OH260147   4.099   5.165   4.132  0.2263 -0.5049  0.2482
12911TIP3    H160148   4.037   5.137   4.065  1.4899  0.9967 -1.7071
12911TIP3    H260149   4.160   5.091   4.141 -1.7820 -2.0404  2.2842
12912TIP3   OH260150   0.270   3.050  11.996 -0.0521  0.8785 -0.6825
12912TIP3    H160151   0.183   3.031  12.031  0.9472  0.3175  1.6937
12912TIP3    H260152   0.330   3.026  12.067  2.0796  0.7982 -2.4120
12913TIP3   OH260153   1.284   2.403   0.199  0.1228  0.5108 -0.1625
12913TIP3    H160154   1.264   2.397   0.106 -1.3488  0.6221  0.1282
12913TIP3    H260155   1.370   2.447   0.202  0.8597 -0.7383 -1.4877
12914TIP3   OH260156   3.876   2.704  13.525 -0.0558 -0.4270  0.3388
12914TIP3    H160157   3.923   2.625  13.496 -1.8253 -0.6137 -2.4621
12914TIP3    H260158   3.785   2.686  13.503 -0.6182  2.1164  0.3186
12915TIP3   OH260159   2.726   3.832   3.395 -0.0006 -0.3414  0.4928
12915TIP3    H160160   2.679   3.750   3.408  0.0311 -0.8378 -2.0117
12915TIP3    H260161   2.663   3.890   3.351  0.3629  0.5378  1.1093
12916TIP3   OH260162   2.911   1.600   2.539 -0.1086 -0.1104 -0.2509
12916TIP3    H160163   2.859   1.642   2.607 -0.4404  1.5030 -1.4303
12916TIP3    H260164   2.852   1.534   2.501  0.1315 -1.1170  1.0824
12917TIP3   OH260165   4.972   2.979   5.703  0.1977 -0.0338  0.5485
12917TIP3    H160166   4.923   3.061   5.697 -0.2376 -0.2012  1.5889
12917TIP3    H260167   4.958   2.949   5.793 -0.3250 -1.6734 -0.0372
12918TIP3   OH260168   1.693   6.306  14.247  0.6307  0.5134 -0.4877
12918TIP3    H160169   1.666   6.225  14.203  0.2392  0.3346  0.0828
12918TIP3    H260170   1.629   6.319  14.316  1.5780  0.4640  0.4381
12919TIP3   OH260171   5.095   5.329  14.890 -0.0081 -0.3915 -0.0710
12919TIP3    H160172   5.134   5.298  14.809  2.7367  1.3116  0.4751
12919TIP3    H260173   5.012   5.281  14.897  1.6672 -3.8313 -1.6102
12920TIP3   OH260174   4.963   4.591  15.092 -0.8422  0.5200 -0.5988
12920TIP3    H160175   5.021   4.646  15.040 -0.4509  1.2280  0.5727
12920TIP3    H260176   4.987   4.501  15.068 -1.6665  0.8018 -2.7198
12921TIP3   OH260177   1.641   6.083   2.638  0.7921 -0.1335 -0.1459
12921TIP3    H160178   1.658   6.166   2.593 -0.5987  0.5313  0.4934
12921TIP3    H260179   1.557   6.053   2.603  1.9667 -2.0940 -1.4936
12922TIP3   OH260180   0.766   4.214   1.311 -0.0252 -0.4202  0.1085
12922TIP3    H160181   0.846   4.252   1.347  0.3644 -1.5138  0.4134
12922TIP3    H260182   0.736   4.153   1.379  0.5370 -2.2612 -1.2179
12923TIP3   OH260183   1.420   6.177   3.585  0.4907  0.4089 -0.2007
12923TIP3    H160184   1.375   6.123   3.520  0.5821  1.0967 -0.8502
12923TIP3    H260185   1.416   6.266   3.550  1.9110  0.5635 -0.0486
12924TIP3   OH260186   4.768   4.686   6.176  0.0848 -0.2770 -0.3873
12924TIP3    H160187   4.769   4.591   6.169  2.0311 -0.4208  0.8168
12924TIP3    H260188   4.717   4.716   6.101  0.9420 -2.2018 -1.8336
12925TIP3   OH260189   5.003   3.482   5.331  0.0829  0.0394  0.3996
12925TIP3    H160190   4.984   3.489   5.238 -1.4580  0.8067  0.7407
12925TIP3    H260191   5.000   3.388   5.349  2.3044 -0.3001 -0.6476
12926TIP3   OH260192   5.831   2.090   4.171 -0.4711 -0.9710  0.0294
12926TIP3    H160193   5.905   2.034   4.197  1.1591  0.5959 -0.9639
12926TIP3    H260194   5.796   2.048   4.093 -0.8911 -1.9252  0.7133
12927TIP3   OH260195   2.165   0.614   4.456  0.5270  0.4015  0.0375
12927TIP3    H160196   2.244   0.657   4.424  0.6940 -0.3323 -0.5506
12927TIP3    H260197   2.178   0.521   4.436 -1.7965  0.5657 -2.9744
12928TIP3   OH260198   3.976   3.873  12.674 -0.0715 -0.0521  0.6442
12928TIP3    H160199   3.929   3.864  12.757  0.1690 -0.4374  0.7435
12928TIP3    H260200   3.912   3.912  12.614 -0.5330 -0.5942  0.7702
12929TIP3   OH260201   6.672   4.094   2.648 -0.2908 -0.1757  0.1652
12929TIP3    H160202   6.656   4.158   2.579 -0.2247 -1.8668 -1.4840
12929TIP3    H260203   6.724   4.141   2.713 -0.2276  1.4328 -1.0033
12930TIP3   OH260204   2.798   6.030   4.950 -0.2482  0.2285 -0.2699
12930TIP3    H160205   2.815   5.938   4.969 -0.1151  0.4275  0.6020
12930TIP3    H260206   2.841   6.078   5.021 -0.7422  0.9421 -0.4395
12931TIP3   OH260207   1.872   3.451  10.559 -0.1604  0.5142  0.1425
12931TIP3    H160208   1.896   3.372  10.607  0.7048  1.0371  0.5925
12931TIP3    H260209   1.897   3.523  10.617  0.9408  1.1680 -1.0919
12932TIP3   OH260210   0.123   3.282  16.241 -0.2468  0.2302 -0.1210
12932TIP3    H160211   0.212   3.298  16.273  0.2354  0.4775 -1.5374
12932TIP3    H260212   0.129   3.292  16.146 -1.8613  0.5966 -0.2146
12933TIP3   OH260213   1.153   1.809  16.954 -0.0287  0.2247  0.2438
12933TIP3    H160214   1.137   1.721  16.921  0.1986 -0.3825  1.6626
12933TIP3    H260215   1.112   1.810  17.041  2.5998  0.4572  1.5853
12934TIP3   OH260216   5.658   5.341  17.052  0.1609  0.6766 -0.7145
12934TIP3    H160217   5.686   5.430  17.029  0.1552  0.7006 -0.6268
12934TIP3    H260218   5.659   5.339  17.147  2.2739 -0.0919 -0.7154
12935TIP3   OH260219   2.170   1.525   0.828 -0.4803  0.3574  0.2979
12935TIP3    H160220   2.192   1.610   0.865 -2.3336  1.4943 -1.0469
12935TIP3    H260221   2.200   1.529   0.738 -1.3347 -0.0777 -0.0158
12936TIP3   OH260222   1.829   4.220  13.858  0.4714 -0.7036 -0.0989
12936TIP3    H160223   1.788   4.301  13.830 -1.2175 -1.8364 -1.0984
12936TIP3    H260224   1.784   4.196  13.938  0.2453 -1.1586 -0.3561
12937TIP3   OH260225   6.731   2.750   1.592 -0.2595 -0.1806  0.5107
12937TIP3    H160226   6.804   2.688   1.597 -0.7613 -0.7527  0.9188
12937TIP3    H260227   6.705   2.750   1.500  1.7563  1.8176 -0.1440
12938TIP3   OH260228   6.371   2.173  14.464 -0.9252 -0.7338  1.0507
12938TIP3    H160229   6.299   2.111  14.471 -0.2093 -1.7369 -0.1169
12938TIP3    H260230   6.390   2.178  14.370 -0.9565  1.2607  1.0938
12939TIP3   OH260231   1.371   3.494  16.890  0.0682  0.4990 -0.6908
12939TIP3    H160232   1.302   3.559  16.905  1.6397  1.9565  0.5775
12939TIP3    H260233   1.327   3.424  16.841 -3.1802 -0.1706  2.6460
12940TIP3   OH260234   2.028   6.713   6.655 -0.5780  0.1185  0.5498
12940TIP3    H160235   1.972   6.770   6.707 -0.9476  0.6209 -0.3607
12940TIP3    H260236   1.968   6.649   6.617 -0.6056  0.7529 -0.5557
12941TIP3   OH260237   5.336   6.075   1.771  0.3973  0.3343  0.2596
12941TIP3    H160238   5.278   6.006   1.740 -0.1185  0.8968 -0.0374
12941TIP3    H260239   5.316   6.151   1.715  1.2743  0.5920  0.2807
12942TIP3   OH260240   5.749   3.154   5.166 -0.2092  0.0672 -0.1867
12942TIP3    H160241   5.762   3.238   5.210  0.7203  0.2982 -0.8793
12942TIP3    H260242   5.659   3.129   5.188  0.0355  0.4549  1.3382
12943TIP3   OH260243   2.753   1.533   5.920  0.9323  0.1569  0.5630
12943TIP3    H160244   2.817   1.473   5.882  1.7277  1.3980 -0.1356
12943TIP3    H260245   2.803   1.611   5.942 -0.2722  1.0400  0.3108
12944TIP3   OH260246   1.136   6.306   1.198 -0.6731 -0.7305  1.1537
12944TIP3    H160247   1.132   6.249   1.274 -0.0474 -2.4055 -0.0215
12944TIP3    H260248   1.159   6.248   1.125  0.6100  1.1063  0.0030
12945TIP3   OH260249   0.087   2.225  15.721  0.4222 -0.4032  0.3111
12945TIP3    H160250   0.008   2.176  15.697 -0.0033  0.3540  0.1452
12945TIP3    H260251   0.144   2.159  15.761 -0.9446 -0.6359  1.9814
12946TIP3   OH260252   2.758   3.177   0.170  0.0974  0.1149  0.1208
12946TIP3    H160253   2.754   3.086   0.197  1.7163  0.4207  1.6147
12946TIP3    H260254   2.673   3.195   0.131 -0.3511 -1.9432  0.0667
12947TIP3   OH260255   1.863   1.143  13.857 -0.7148 -0.3741  0.0494
12947TIP3    H160256   1.874   1.234  13.829  3.0013 -0.0980  1.7191
12947TIP3    H260257   1.904   1.091  13.788  2.2414 -0.2071  1.5190
12948TIP3   OH260258   5.493   6.167   4.932 -0.2393  0.2249 -0.4426
12948TIP3    H160259   5.424   6.157   4.998  2.4539 -0.7114  2.4781
12948TIP3    H260260   5.489   6.260   4.907 -1.5533  0.5450  0.8127
12949TIP3   OH260261   6.081   0.965  17.180  0.4675  0.2282 -0.0638
12949TIP3    H160262   6.168   1.003  17.175  1.5195 -1.6696  2.0658
12949TIP3    H260263   6.091   0.879  17.138  0.4437 -1.1663  2.5883
12950TIP3   OH260264   6.193   4.979   4.638  0.1395  0.0558 -0.2314
12950TIP3    H160265   6.161   5.045   4.576  0.2108  1.2493  0.9610
12950TIP3    H260266   6.121   4.970   4.701  0.4311 -0.4682  0.0285
12951TIP3   OH260267   0.974   2.987   0.840  0.3459  0.3260  0.2407
12951TIP3    H160268   1.004   2.911   0.890  1.0561 -1.8795 -3.1801
12951TIP3    H260269   0.893   2.958   0.798  0.2295  1.7270 -0.5774
12952TIP3   OH260270   0.912   4.342  13.217  0.1247 -0.1348 -0.1449
12952TIP3    H160271   0.931   4.395  13.139 -0.1533 -0.4056 -0.4021
12952TIP3    H260272   0.831   4.379  13.252  0.3523  0.1069  0.1258
12953TIP3   OH260273   1.296   6.350   4.015  0.1474 -0.0819  0.1047
12953TIP3    H160274   1.348   6.320   3.941 -0.1951 -0.8533  0.1638
12953TIP3    H260275   1.360   6.373   4.083  0.4663  0.7748 -0.4770
12954TIP3   OH260276   6.126   5.613  14.624 -0.1946  0.1936  0.1765
12954TIP3    H160277   6.181   5.683  14.660  0.1352  0.4043 -0.7267
12954TIP3    H260278   6.068   5.590  14.696  1.4055 -0.3907  1.3572
12955TIP3   OH260279   6.749   5.412  15.527  0.3707 -0.0521 -0.1680
12955TIP3    H160280   6.722   5.386  15.615  0.2778  0.6147  0.0092
12955TIP3    H260281   6.799   5.492  15.540  1.0957 -0.4176 -0.6467
12956TIP3   OH260282   1.841   3.438  14.508  0.4558 -0.2074 -0.4734
12956TIP3    H160283   1.909   3.506  14.503 -0.7333  0.9764 -1.0232
12956TIP3    H260284   1.842   3.397  14.422 -0.5554  0.8729 -1.0309
12957TIP3   OH260285   5.501   5.460   4.281 -0.4456 -0.0360  0.1967
12957TIP3    H160286   5.563   5.444   4.352  0.1981 -2.0919 -0.7557
12957TIP3    H260287   5.516   5.389   4.219 -1.5157  1.2648 -1.6582
12958TIP3   OH260288   4.466   5.570   0.515  0.2313  0.7798 -0.5631
12958TIP3    H160289   4.420   5.611   0.442 -1.6059 -0.9439 -0.4635
12958TIP3    H260290   4.397   5.540   0.574  1.6449  1.4454  1.5469
12959TIP3   OH260291   3.007   1.761  15.530  0.5343  0.2621 -0.3578
12959TIP3    H160292   2.927   1.815  15.526  0.0205 -0.5601 -2.0322
12959TIP3    H260293   3.072   1.819  15.570 -0.6658  1.2496  0.2565
12960TIP3   OH260294   5.606   0.877  17.033  0.0705 -0.2762 -0.1818
12960TIP3    H160295   5.606   0.930  16.953 -2.8958 -1.6141 -1.2143
12960TIP3    H260296   5.687   0.826  17.028  0.2243  0.0750 -2.0721
12961TIP3   OH260297   0.088   1.186  14.666 -0.3079  0.3279  0.3271
12961TIP3    H160298   0.041   1.166  14.585 -1.2557 -0.2701  1.0046
12961TIP3    H260299   0.151   1.253  14.641  0.4084 -0.8418 -1.2297
12962TIP3   OH260300   2.837   2.698   1.527 -0.2466  0.7940  0.5043
12962TIP3    H160301   2.835   2.745   1.444  0.5910  1.2101  0.7061
12962TIP3    H260302   2.765   2.635   1.521 -1.5231  2.2114  0.3012
12963TIP3   OH260303   3.372   4.287  15.565  0.1327 -0.0551  0.3698
12963TIP3    H160304   3.418   4.368  15.588  0.4840 -0.5638  1.5109
12963TIP3    H260305   3.280   4.305  15.582 -0.1807  1.0092 -2.0318
12964TIP3   OH260306   1.233   4.428   2.960  0.5582 -0.3221 -0.7793
12964TIP3    H160307   1.200   4.483   2.889  0.1630 -0.1865 -0.4964
12964TIP3    H260308   1.179   4.452   3.036  0.9504 -0.4871 -0.4425
12965TIP3   OH260309   6.663   4.978   3.375  0.2954 -0.8992 -0.1348
12965TIP3    H160310   6.575   4.973   3.413 -0.7837 -1.3818 -2.5322
12965TIP3    H260311   6.688   5.070   3.388 -1.3538 -0.2745 -0.9877
12966TIP3   OH260312   5.879   5.883  14.685 -0.5985  0.1129  0.0260
12966TIP3    H160313   5.958   5.863  14.736 -0.2174  0.3942 -0.4482
12966TIP3    H260314   5.865   5.805  14.631 -0.9127 -0.1225  0.4425
12967TIP3   OH260315   2.594   6.654  13.203  0.1423 -0.0292 -0.0201
12967TIP3    H160316   2.678   6.675  13.244 -0.2667 -0.8223  1.3148
12967TIP3    H260317   2.528   6.691  13.263 -0.4721 -0.1473 -0.6093
12968TIP3   OH260318   6.247   5.445  14.389  0.0576  0.0225 -0.3716
12968TIP3    H160319   6.210   5.479  14.470 -0.0914 -2.5837  0.7515
12968TIP3    H260320   6.341   5.463  14.395 -0.3210  2.7477 -1.2227
12969TIP3   OH260321   2.956   2.466   4.023 -0.6273  0.1993  0.1250
12969TIP3    H160322   2.977   2.448   4.115 -1.1593  2.1508  0.6712
12969TIP3    H260323   3.034   2.439   3.975  0.7185  1.5649  1.4420
12970TIP3   OH260324   3.232   4.025   3.691  0.7390  0.2901 -0.7286
12970TIP3    H160325   3.246   4.066   3.777  0.2454  0.8101 -0.8897
12970TIP3    H260326   3.208   3.935   3.711 -0.8915  0.7992 -0.2385
12971TIP3   OH260327   6.169   0.276  13.034  0.4861  0.4336  0.1644
12971TIP3    H160328   6.125   0.206  12.986  2.1591 -0.6438  0.1342
12971TIP3    H260329   6.191   0.237  13.118  2.1947  0.6305 -0.1658
12972TIP3   OH260330   2.603   6.440   0.582  0.1288  0.1158  0.1965
12972TIP3    H160331   2.535   6.376   0.603 -0.1727  0.6304  0.8065
12972TIP3    H260332   2.680   6.387   0.562 -0.7379 -0.5312 -1.7114
12973TIP3   OH260333   3.845   5.491   2.857  0.6579  0.1259 -0.0260
12973TIP3    H160334   3.865   5.539   2.777  0.1244 -1.1203 -0.9281
12973TIP3    H260335   3.780   5.545   2.902  1.2236  1.0057 -0.2482
12974TIP3   OH260336   1.314   2.566  16.709  0.7181 -0.1829 -0.0330
12974TIP3    H160337   1.398   2.529  16.736  0.4295 -0.3563  0.6540
12974TIP3    H260338   1.266   2.491  16.672  0.6233 -0.2260  0.1733
12975TIP3   OH260339   0.782   4.596  11.118 -0.3230  0.5264 -0.6626
12975TIP3    H160340   0.852   4.557  11.170 -0.6464  1.2018  0.3007
12975TIP3    H260341   0.825   4.627  11.038  0.3854  0.4909 -0.3005
12976TIP3   OH260342   0.121   0.917   1.120 -0.4034 -0.1743  0.1829
12976TIP3    H160343   0.193   0.887   1.175 -0.9314  1.2854  1.7407
12976TIP3    H260344   0.158   0.991   1.070 -0.5494 -0.0434  0.2664
12977TIP3   OH260345   2.929   0.339  11.362  0.1867 -0.5686  0.2940
12977TIP3    H160346   2.852   0.311  11.412  0.7320 -0.7747  1.0306
12977TIP3    H260347   2.908   0.428  11.333  0.6256  0.3458  2.5608
12978TIP3   OH260348   1.126   5.689  11.251 -0.5141 -0.1910 -0.4004
12978TIP3    H160349   1.060   5.650  11.309  0.0500  0.3535  0.6359
12978TIP3    H260350   1.192   5.620  11.240  0.0796  0.1702  0.7715
12979TIP3   OH260351   0.560   5.226   1.613  0.3959 -0.1101  0.7963
12979TIP3    H160352   0.605   5.262   1.690 -0.7875 -0.6377  1.7699
12979TIP3    H260353   0.474   5.200   1.646  1.0264 -3.4884  0.0780
12980TIP3   OH260354   3.754   5.779  16.284 -0.2043 -0.5128 -0.1919
12980TIP3    H160355   3.746   5.854  16.226 -0.7765 -0.1456  0.3513
12980TIP3    H260356   3.752   5.703  16.225 -0.2754 -0.1316 -0.6865
12981TIP3   OH260357   1.302   0.048  13.267  0.1442 -0.0307 -0.3728
12981TIP3    H160358   1.341   0.092  13.192 -1.6479 -0.8234 -1.8446
12981TIP3    H260359   1.315  -0.045  13.250 -0.6973 -0.2362  0.0594
12982TIP3   OH260360   4.312   0.733  15.675 -0.8671  0.3618 -0.1462
12982TIP3    H160361   4.354   0.785  15.744 -0.4721  0.4619 -0.4564
12982TIP3    H260362   4.385   0.706  15.618 -0.7312 -2.4095  1.1945
12983TIP3   OH260363   5.951   1.957  11.617 -0.0614 -0.5351  0.0994
12983TIP3    H160364   5.870   1.928  11.574 -0.2723  0.6871 -0.3793
12983TIP3    H260365   6.016   1.891  11.593  0.0456  0.4928 -2.8727
12984TIP3   OH260366   0.347   2.811   1.535 -0.1926 -0.2852  0.2714
12984TIP3    H160367   0.316   2.793   1.446  1.3573 -0.0284 -0.3657
12984TIP3    H260368   0.423   2.753   1.546  0.0015  0.1283  1.1980
12985TIP3   OH260369   4.523   1.753   6.360 -0.2233  0.4002  0.1175
12985TIP3    H160370   4.518   1.695   6.436 -0.8274 -1.0203 -0.9472
12985TIP3    H260371   4.617   1.766   6.345 -0.0797 -0.2054  0.4617
12986TIP3   OH260372   0.394   1.803  17.227  0.5432  0.3630 -0.4545
12986TIP3    H160373   0.405   1.857  17.148  2.2726 -0.3814 -0.7633
12986TIP3    H260374   0.472   1.821  17.279  0.6241 -1.0328 -0.0742
12987TIP3   OH260375   5.132   1.946  15.239  0.6370 -0.6492 -1.1335
12987TIP3    H160376   5.115   1.951  15.145  1.1739  1.3676 -1.1607
12987TIP3    H260377   5.136   2.037  15.268 -0.9921 -1.2168  1.1445
12988TIP3   OH260378   5.654   2.825   5.518  0.0496  0.4247 -0.2378
12988TIP3    H160379   5.738   2.798   5.481 -0.0057  0.2957 -0.2710
12988TIP3    H260380   5.611   2.743   5.541 -0.4816  0.4392 -1.1282
12989TIP3   OH260381   3.045   0.975   2.020  0.5834 -0.5658  0.1101
12989TIP3    H160382   3.064   0.881   2.024  1.6303 -0.4503 -1.3182
12989TIP3    H260383   2.951   0.981   2.038 -0.2386 -2.2491 -2.8072
12990TIP3   OH260384   5.237   3.562  12.068  0.3724  0.0501  0.2933
12990TIP3    H160385   5.157   3.573  12.016 -0.0274  1.2217  1.1140
12990TIP3    H260386   5.221   3.614  12.147  0.9806 -1.6518  1.5910
12991TIP3   OH260387   1.918   1.982  13.136 -0.3286 -0.4245 -0.4392
12991TIP3    H160388   1.921   2.074  13.109  0.0449 -0.2116  0.3134
12991TIP3    H260389   1.826   1.967  13.158 -0.4745 -0.3612 -0.9720
12992TIP3   OH260390   4.650   0.767   1.043  0.4203  0.8675  0.3044
12992TIP3    H160391   4.595   0.720   1.106  0.3896  0.8645  0.2753
12992TIP3    H260392   4.591   0.785   0.969  1.0833 -1.5057 -0.9228
12993TIP3   OH260393   3.854   3.189   2.641 -0.4016 -0.2868  0.3745
12993TIP3    H160394   3.780   3.208   2.699 -0.3031 -0.7934  0.6752
12993TIP3    H260395   3.813   3.163   2.559 -0.6610 -2.8649  1.2300
12994TIP3   OH260396   0.987   6.262  16.051 -0.5835 -0.4131  0.0838
12994TIP3    H160397   1.043   6.333  16.081 -0.3409 -1.1996  1.5685
12994TIP3    H260398   0.907   6.305  16.022  0.0926  0.5684 -0.3555
12995TIP3   OH260399   4.790   4.843   3.655 -0.2114  0.5313 -0.2113
12995TIP3    H160400   4.713   4.799   3.691  1.6421 -1.5701  1.5082
12995TIP3    H260401   4.863   4.785   3.675  1.6764  1.5155 -3.3641
12996TIP3   OH260402   4.210   4.158  12.097  0.2492 -0.3612 -0.3646
12996TIP3    H160403   4.185   4.086  12.040  1.7915  0.3489 -2.0540
12996TIP3    H260404   4.229   4.117  12.181  0.0168 -1.7636 -0.9721
12997TIP3   OH260405   0.392   4.293  16.842  0.1441  0.4134  0.2429
12997TIP3    H160406   0.298   4.308  16.837  0.3197  1.4073 -0.3235
12997TIP3    H260407   0.415   4.255  16.757  0.3433  0.7967  0.1173
12998TIP3   OH260408   5.624   6.009   2.818 -0.2744 -0.2031 -0.1927
12998TIP3    H160409   5.553   5.946   2.832 -1.2209  1.1525  1.5682
12998TIP3    H260410   5.579   6.090   2.795  0.8466  0.2066 -1.0146
12999TIP3   OH260411   3.067   5.915   2.366 -0.2017  0.0471 -0.0441
12999TIP3    H160412   3.044   5.844   2.306  2.3486 -0.4524 -0.5409
12999TIP3    H260413   3.155   5.893   2.397  0.1574  2.3575  0.7784
13000TIP3   OH260414   2.674   4.560   6.075  0.2192 -0.9124  0.3327
13000TIP3    H160415   2.763   4.586   6.098 -1.1601  3.6354  1.4211
13000TIP3    H260416   2.684   4.515   5.991  3.5712 -1.6627  0.9627
13001TIP3   OH260417   1.740   5.152   3.719 -0.0676  0.1949 -0.1916
13001TIP3    H160418   1.800   5.078   3.731  1.4023  1.4760  0.6572
13001TIP3    H260419   1.785   5.209   3.656 -0.7768  0.8029 -0.1593
13002TIP3   OH260420   0.087   2.931  12.183 -0.0902  0.0964  0.6901
13002TIP3    H160421   0.052   2.860  12.130  0.2512  1.5708 -1.6792
13002TIP3    H260422   0.009   2.979  12.213 -0.2637  0.2267  0.0513
13003TIP3   OH260423   2.946   0.115  11.561 -0.0017  0.1486  0.2563
13003TIP3    H160424   3.007   0.189  11.562 -0.1815  0.3045  1.8516
13003TIP3    H260425   2.860   0.156  11.560 -0.1145 -0.0727 -1.0328
13004TIP3   OH260426   6.406   0.847  12.286 -0.0823  0.1092 -0.3375
13004TIP3    H160427   6.339   0.906  12.320  0.0645  1.0126 -1.5613
13004TIP3    H260428   6.463   0.830  12.361 -0.1129  1.5430  0.0481
13005TIP3   OH260429   4.456   2.186  12.012  0.3459 -0.0473  0.1864
13005TIP3    H160430   4.499   2.119  11.959  0.0829 -0.4067  0.4294
13005TIP3    H260431   4.480   2.164  12.102  0.5322  0.3792  0.2441
13006TIP3   OH260432   4.153   4.224  17.193  0.0911 -0.1628  0.1652
13006TIP3    H160433   4.143   4.187  17.105 -0.6053 -0.4255  0.3412
13006TIP3    H260434   4.234   4.275  17.190 -0.3540  0.5055 -0.8686
13007TIP3   OH260435   6.052   3.138  12.085  0.1611  0.3881  0.4963
13007TIP3    H160436   6.111   3.091  12.026 -1.3723 -1.1281  0.1123
13007TIP3    H260437   6.097   3.136  12.170 -0.4080 -3.1185  0.8775
13008TIP3   OH260438   2.255   6.644  15.184  0.2456 -0.5877 -0.0386
13008TIP3    H160439   2.262   6.724  15.132  0.2431 -0.5771 -0.0227
13008TIP3    H260440   2.163   6.618  15.177  0.1823 -0.4298  0.1914
13009TIP3   OH260441   0.719   3.420   1.112  0.1117 -0.3979  0.4962
13009TIP3    H160442   0.813   3.413   1.131  0.0735 -0.7713  0.5409
13009TIP3    H260443   0.709   3.381   1.025  0.0939  0.2130  0.2127
13010TIP3   OH260444   6.242   5.065   1.027 -0.3771 -0.0406  0.2960
13010TIP3    H160445   6.281   5.149   1.003  1.3551 -0.8616  0.1170
13010TIP3    H260446   6.223   5.073   1.120  0.8182  0.1727  0.5343
13011TIP3   OH260447   4.328   5.009   0.869  0.6870 -0.5405 -0.1709
13011TIP3    H160448   4.351   5.057   0.790 -0.6427 -0.8298 -0.7615
13011TIP3    H260449   4.312   5.077   0.935  1.1061 -0.2699 -0.3465
13012TIP3   OH260450   1.310   6.326   0.450 -0.5054 -0.2075  0.4151
13012TIP3    H160451   1.248   6.287   0.388  0.2722 -2.8261  1.1487
13012TIP3    H260452   1.396   6.309   0.411 -0.1097  0.2930  1.0561
13013TIP3   OH260453   3.698   4.429   0.758  0.0741 -0.4448  0.5324
13013TIP3    H160454   3.614   4.470   0.737  0.2088 -0.3965  0.0884
13013TIP3    H260455   3.706   4.357   0.695 -0.2899 -1.3434  1.4739
13014TIP3   OH260456   5.353   5.043  16.452 -0.0843  0.2721  0.3607
13014TIP3    H160457   5.448   5.049  16.442 -0.1584 -0.0862 -0.7210
13014TIP3    H260458   5.320   5.128  16.424  0.0582  1.5983  3.7120
13015TIP3   OH260459   0.883   0.194  10.869  0.2018 -0.0461  0.3427
13015TIP3    H160460   0.824   0.126  10.836  1.1413 -0.7164 -0.0216
13015TIP3    H260461   0.908   0.245  10.792  0.4431 -0.0539  0.4130
13016TIP3   OH260462   5.545   6.143   4.145  0.2227  0.0136 -0.0501
13016TIP3    H160463   5.615   6.083   4.170  1.1968  1.4928  0.8678
13016TIP3    H260464   5.587   6.205   4.085 -0.3700  0.7378  0.2736
13017TIP3   OH260465   6.632   3.009  13.207 -0.0136 -0.0557  0.1060
13017TIP3    H160466   6.713   2.970  13.175 -0.0736  0.4207 -0.6585
13017TIP3    H260467   6.634   2.996  13.302  1.5022  0.9894  0.2461
13018TIP3   OH260468   1.263   6.453  12.715 -0.7639 -0.5815  0.4513
13018TIP3    H160469   1.182   6.486  12.754  0.3173  1.1560  1.3877
13018TIP3    H260470   1.282   6.373  12.763 -1.2174 -0.2624  1.1830
13019TIP3   OH260471   3.236   6.014   3.531  0.4016  0.1158  0.3404
13019TIP3    H160472   3.210   5.957   3.603  0.6022  0.0187  0.3367
13019TIP3    H260473   3.223   6.103   3.565 -0.8001  0.0854  0.0271
13020TIP3   OH260474   5.489   0.848   5.931  0.3010 -0.2128 -0.0299
13020TIP3    H160475   5.513   0.909   5.861  1.3817 -0.0371  0.4792
13020TIP3    H260476   5.571   0.806   5.956 -0.2066 -0.8636  0.5859
13021TIP3   OH260477   6.763   5.394   3.179 -0.9837 -0.0184 -0.3380
13021TIP3    H160478   6.749   5.481   3.142 -1.1864 -0.4736 -1.3738
13021TIP3    H260479   6.715   5.335   3.121 -0.7896 -0.8356  0.3032
13022TIP3   OH260480   2.886   2.790   5.564  0.8346  0.6234 -0.2223
13022TIP3    H160481   2.968   2.823   5.601  0.6049  0.7824  0.1553
13022TIP3    H260482   2.821   2.855   5.590  0.4815  0.1838 -0.0057
13023TIP3   OH260483   1.638   5.379   1.127  0.2796  0.9571 -0.6788
13023TIP3    H160484   1.621   5.287   1.148 -2.6518  1.7719  1.0986
13023TIP3    H260485   1.656   5.420   1.212 -0.6589  2.4025 -1.1565
13024TIP3   OH260486   0.786   3.048  12.199  0.0513  0.2481 -0.8559
13024TIP3    H160487   0.710   3.103  12.220  0.3558  1.1880 -2.1366
13024TIP3    H260488   0.831   3.036  12.283 -2.4313 -1.8250  0.3259
13025TIP3   OH260489   1.248   1.978   3.440  0.2426  0.1894  0.5263
13025TIP3    H160490   1.179   1.990   3.505  0.6591 -0.0759  1.0215
13025TIP3    H260491   1.231   2.046   3.374 -0.5081  0.0983  0.6198
13026TIP3   OH260492   6.449   4.713   3.045 -0.9438  0.2856 -0.4033
13026TIP3    H160493   6.495   4.797   3.048  0.0201 -0.1978 -1.2648
13026TIP3    H260494   6.383   4.720   3.114  1.2522  0.5095  1.8292
13027TIP3   OH260495   6.530   1.289   5.258 -0.1222  0.1321 -0.5191
13027TIP3    H160496   6.486   1.213   5.296  1.4029  0.5277  2.2895
13027TIP3    H260497   6.476   1.312   5.182 -2.1935 -2.0412  0.1604
13028TIP3   OH260498   2.107   0.716   2.698  0.5826 -0.5098 -0.1572
13028TIP3    H160499   2.108   0.735   2.792 -1.5724 -1.8701  0.2327
13028TIP3    H260500   2.168   0.643   2.688  1.2157 -0.0201  0.0922
13029TIP3   OH260501   4.892   1.948  13.300 -0.0729 -0.1582 -0.4656
13029TIP3    H160502   4.825   1.983  13.241  0.1017 -0.4345 -0.8347
13029TIP3    H260503   4.916   1.863  13.261  0.2519 -0.2096 -0.1563
13030TIP3   OH260504   0.424   5.771  16.775 -0.5043 -0.0306 -0.2036
13030TIP3    H160505   0.484   5.771  16.700  1.1238 -1.5915  1.0405
13030TIP3    H260506   0.461   5.835  16.836 -1.6872  1.0420 -0.5376
13031TIP3   OH260507   3.757   0.457  11.753 -0.3046  0.4260 -0.5128
13031TIP3    H160508   3.820   0.385  11.762  0.2267  1.1141  1.7259
13031TIP3    H260509   3.811   0.536  11.756 -1.2612  1.0431  1.8737
13032TIP3   OH260510   5.192   4.289   0.884 -0.5162 -0.2270 -0.8624
13032TIP3    H160511   5.155   4.204   0.862  0.1832 -0.2118 -2.2233
13032TIP3    H260512   5.278   4.290   0.841  0.3093  0.4258  0.7341
13033TIP3   OH260513   3.611   5.779   4.419  0.8213 -0.7526 -0.2033
13033TIP3    H160514   3.553   5.704   4.402  0.0746  0.1112 -1.6763
13033TIP3    H260515   3.626   5.777   4.514 -2.1161 -0.7006  0.3589
13034TIP3   OH260516   6.304   0.415  16.209 -0.3924  0.0961 -0.2091
13034TIP3    H160517   6.260   0.354  16.268  0.0971  0.0832  0.1529
13034TIP3    H260518   6.257   0.497  16.220 -1.4398 -0.3602 -1.1553
13035TIP3   OH260519   0.039   0.500   4.125 -0.5611  0.3464 -0.1570
13035TIP3    H160520  -0.026   0.557   4.164  0.3711  0.3579  1.4495
13035TIP3    H260521   0.060   0.541   4.041 -2.3210  0.5193 -0.5610
13036TIP3   OH260522   3.386   4.501   5.654 -0.0065 -0.8786 -0.1434
13036TIP3    H160523   3.438   4.552   5.716 -0.6954 -0.9216  0.4934
13036TIP3    H260524   3.363   4.562   5.584  2.2711 -1.2627 -1.3258
13037TIP3   OH260525   0.123   0.486  17.192 -0.6695 -0.6562 -0.2777
13037TIP3    H160526   0.113   0.556  17.127  1.1027 -0.1571 -0.0701
13037TIP3    H260527   0.033   0.462  17.215 -1.3347  0.0018 -1.9944
13038TIP3   OH260528   4.603   5.726  16.236 -0.1102 -0.1147  0.0738
13038TIP3    H160529   4.579   5.819  16.242  2.1626  0.5064  0.6045
13038TIP3    H260530   4.639   5.716  16.148 -2.2873 -1.0590 -0.7658
13039TIP3   OH260531   5.423   4.355  13.386  0.2038  0.0464 -0.2176
13039TIP3    H160532   5.452   4.414  13.317  0.2269  1.1217  0.6931
13039TIP3    H260533   5.441   4.267  13.351  0.4175  0.5664 -1.4755
13040TIP3   OH260534   2.898   5.863  10.414 -0.6490 -0.1714 -0.5213
13040TIP3    H160535   2.890   5.767  10.421 -1.0371 -0.1015  0.1318
13040TIP3    H260536   2.986   5.882  10.446  0.0790 -0.4467 -2.2615
13041TIP3   OH260537   4.969   1.019   3.040  0.7236  0.2469  0.0022
13041TIP3    H160538   4.954   0.929   3.066  2.6915 -1.1259 -2.9612
13041TIP3    H260539   5.047   1.046   3.090 -0.4853  0.7772  1.6869
13042TIP3   OH260540   0.676   2.984  13.325  0.3266 -0.2280 -0.8225
13042TIP3    H160541   0.608   3.008  13.388  1.5733  1.1813  0.0411
13042TIP3    H260542   0.644   3.018  13.241 -0.0034  0.5025 -0.4102
13043TIP3   OH260543   1.754   2.603  12.257  0.2484 -0.0110  0.2585
13043TIP3    H160544   1.737   2.671  12.322  1.8232  0.8488 -0.1590
13043TIP3    H260545   1.745   2.647  12.173 -2.2530 -1.2350 -0.1871
13044TIP3   OH260546   5.782   5.093  11.208  0.2433 -0.1398 -0.6533
13044TIP3    H160547   5.832   5.139  11.140 -0.5657 -1.7282 -2.4243
13044TIP3    H260548   5.834   5.015  11.228 -0.1776 -0.3718 -0.4576
13045TIP3   OH260549   2.476   6.057  13.926  0.0146 -0.1644 -0.0126
13045TIP3    H160550   2.393   6.084  13.965 -0.4849  0.5478 -1.4740
13045TIP3    H260551   2.514   5.995  13.988 -1.8606 -0.9046  0.4527
13046TIP3   OH260552   4.095   2.786   6.565 -0.1820  0.5640 -0.0876
13046TIP3    H160553   4.021   2.841   6.589 -0.6384  0.1641 -0.5515
13046TIP3    H260554   4.055   2.706   6.530  0.4272 -0.7988  2.0974
13047TIP3   OH260555   5.853   2.563  12.064  0.1783  0.1960 -0.1856
13047TIP3    H160556   5.865   2.633  12.129 -1.4288  0.6667 -0.3289
13047TIP3    H260557   5.863   2.482  12.113 -1.9066  0.5349  0.9188
13048TIP3   OH260558   0.582   2.339  11.935  0.0421  0.7350 -0.6644
13048TIP3    H160559   0.608   2.312  12.024  0.5577 -1.5069 -1.4336
13048TIP3    H260560   0.649   2.403  11.910  2.2216 -1.4127 -0.7860
13049TIP3   OH260561   1.824   0.633   1.531 -0.0965 -0.0173  0.2390
13049TIP3    H160562   1.863   0.694   1.594 -1.8413  0.3236  1.0471
13049TIP3    H260563   1.898   0.582   1.498  1.0307  0.6434  1.6374
13050TIP3   OH260564   4.285   5.383  13.011 -0.3565  0.0462 -0.6386
13050TIP3    H160565   4.314   5.292  13.017 -0.0517  0.1504 -0.5275
13050TIP3    H260566   4.197   5.382  13.050 -0.1702 -0.1142 -0.2081
13051TIP3   OH260567   2.948   4.392   2.356 -0.1384  0.3427  0.1724
13051TIP3    H160568   2.987   4.466   2.402  1.3604 -0.0745 -0.3693
13051TIP3    H260569   3.018   4.360   2.299 -1.0003 -1.0305 -0.1524
13052TIP3   OH260570   0.594   4.849  12.912 -0.2277 -0.0723 -0.2102
13052TIP3    H160571   0.686   4.844  12.888 -0.3120  1.8957 -1.1655
13052TIP3    H260572   0.591   4.819  13.003  1.6173  1.3754  0.3875
13053TIP3   OH260573   5.365   4.278  14.385 -0.2345 -0.5164 -0.3250
13053TIP3    H160574   5.408   4.228  14.454  2.6480  1.3988 -0.5337
13053TIP3    H260575   5.411   4.252  14.305 -0.0045  0.9803 -0.7045
13054TIP3   OH260576   5.114   2.659  17.111  0.3144 -0.3785  0.3284
13054TIP3    H160577   5.142   2.748  17.091  1.0342 -0.2945  1.6008
13054TIP3    H260578   5.180   2.603  17.072 -1.2489 -0.5143 -2.3565
13055TIP3   OH260579   6.516   4.330  17.150  0.2822 -0.2403  0.6230
13055TIP3    H160580   6.601   4.291  17.129 -1.8739 -4.0759 -2.3028
13055TIP3    H260581   6.490   4.288  17.233  0.0579 -1.4013 -0.0125
13056TIP3   OH260582   6.731   0.350  13.788 -0.1272  0.3675  0.0350
13056TIP3    H160583   6.640   0.371  13.767 -0.0247  0.4121 -0.3735
13056TIP3    H260584   6.783   0.405  13.730  0.1864  1.1996  1.0757
13057TIP3   OH260585   4.164   0.681  13.526  0.4985  0.0161 -0.2648
13057TIP3    H160586   4.205   0.737  13.460  0.7449 -0.1635 -0.2666
13057TIP3    H260587   4.074   0.712  13.531  0.5700  0.2577 -0.4363
13058TIP3   OH260588   2.992   2.927  15.527  0.1173 -0.5078 -0.0841
13058TIP3    H160589   3.051   3.003  15.531 -0.2539 -0.2208 -0.0276
13058TIP3    H260590   2.916   2.959  15.479 -0.9865 -0.1962  1.7698
13059TIP3   OH260591   6.421   6.219  15.954  0.4318  0.1972 -0.0268
13059TIP3    H160592   6.507   6.197  15.919  2.2103  0.4018  3.6889
13059TIP3    H260593   6.380   6.135  15.971  0.0658  0.0958 -1.3070
13060TIP3   OH260594   6.212   4.625   2.861  0.1514 -0.2648 -0.4331
13060TIP3    H160595   6.156   4.549   2.847 -1.0633  0.4057  0.5013
13060TIP3    H260596   6.256   4.607   2.944 -0.6517  0.3216  0.1345
13061TIP3   OH260597   2.231   3.441   0.521  0.1415  0.1661 -0.4748
13061TIP3    H160598   2.306   3.485   0.483  0.7195 -0.6039 -0.2497
13061TIP3    H260599   2.163   3.447   0.454  0.6496  0.1962 -0.9958
13062TIP3   OH260600   2.742   4.358   2.532  0.2615  0.0294 -0.2061
13062TIP3    H160601   2.668   4.339   2.475 -0.0374  0.0767  0.1616
13062TIP3    H260602   2.819   4.334   2.480 -0.0843 -2.6787  0.3462
13063TIP3   OH260603   1.940   6.535  16.167 -0.0107  0.1158  0.1647
13063TIP3    H160604   1.973   6.467  16.226  0.6456  0.8473  0.6630
13063TIP3    H260605   1.865   6.572  16.214 -0.6991 -0.5874 -0.3380
13064TIP3   OH260606   4.163   1.335  16.522 -0.0513 -0.2406  0.6545
13064TIP3    H160607   4.189   1.343  16.614  1.8522 -3.2493  0.5133
13064TIP3    H260608   4.241   1.359  16.473 -0.7798  0.4755 -0.1933
13065TIP3   OH260609   5.977   3.085   5.959 -0.3438  0.5393 -0.0836
13065TIP3    H160610   5.945   3.082   5.869  1.9737 -0.8874 -0.9554
13065TIP3    H260611   5.900   3.067   6.012 -1.1219 -2.6158 -2.0071
13066TIP3   OH260612   4.839   1.959  15.180  0.5629  0.4526 -0.4532
13066TIP3    H160613   4.919   1.953  15.129  1.4218 -1.7344  0.9945
13066TIP3    H260614   4.867   1.949  15.271 -1.3221 -0.2629  0.1045
13067TIP3   OH260615   0.614   1.313  16.206  0.5698  0.2930  0.0604
13067TIP3    H160616   0.590   1.353  16.289 -0.1434  1.4051 -0.6510
13067TIP3    H260617   0.671   1.240  16.230  0.4918  0.6756  1.5031
13068TIP3   OH260618   1.897   3.177  15.368 -0.3718  0.5859  0.5041
13068TIP3    H160619   1.814   3.169  15.415  0.2903 -1.0687  1.5058
13068TIP3    H260620   1.955   3.115  15.412  0.7832  0.1460 -1.5038
13069TIP3   OH260621   1.381   5.074  11.909 -0.4795  0.4231 -0.2858
13069TIP3    H160622   1.412   5.080  11.819  1.9316 -1.8095  0.2766
13069TIP3    H260623   1.285   5.079  11.902 -0.3258  0.8707 -2.8702
13070TIP3   OH260624   1.694   0.140  15.882  0.4811 -0.3347  0.2844
13070TIP3    H160625   1.706   0.199  15.808  0.2345  0.2889  0.7343
13070TIP3    H260626   1.751   0.065  15.863  0.2142 -0.3026 -0.6581
13071TIP3   OH260627   1.789   1.586  10.755  0.4294 -0.2682 -0.4211
13071TIP3    H160628   1.822   1.516  10.811  0.3165 -0.0618 -0.0930
13071TIP3    H260629   1.694   1.572  10.751  0.2916  0.3902  0.3828
13072TIP3   OH260630   2.354   3.472   2.863  0.5121 -0.0572 -0.0609
13072TIP3    H160631   2.341   3.407   2.794 -0.4834 -0.3350  0.3660
13072TIP3    H260632   2.430   3.523   2.835 -0.1856  0.1793 -1.6325
13073TIP3   OH260633   6.447   5.846  11.562 -0.1397  0.4750  0.0417
13073TIP3    H160634   6.410   5.900  11.493  2.5969  2.0726 -0.3239
13073TIP3    H260635   6.468   5.908  11.633  0.5091 -0.5212  0.7543
13074TIP3   OH260636   2.641   1.702  17.220  0.6578  0.5042  0.3302
13074TIP3    H160637   2.657   1.613  17.252 -2.3754 -0.9830 -1.8381
13074TIP3    H260638   2.563   1.731  17.267 -1.0103  0.1434 -1.9929
13075TIP3   OH260639   6.296   5.006  14.568  0.9802  0.5172  0.2226
13075TIP3    H160640   6.251   5.089  14.547  0.8076  0.9478  2.1564
13075TIP3    H260641   6.226   4.948  14.599  0.9221 -0.7727 -2.0744
13076TIP3   OH260642   4.360   1.416  15.284 -0.9443  0.0763 -0.2074
13076TIP3    H160643   4.357   1.351  15.354  0.9433 -0.7468 -0.7932
13076TIP3    H260644   4.411   1.488  15.321  0.8774 -0.7561 -0.9385
13077TIP3   OH260645   2.842   3.592   5.856 -0.0841  0.2194  0.1659
13077TIP3    H160646   2.923   3.629   5.893 -0.5901  0.8739  0.6323
13077TIP3    H260647   2.811   3.532   5.924 -0.5700  0.7956  0.4618
13078TIP3   OH260648   6.466   6.145   5.410 -1.2707 -0.0814 -0.1133
13078TIP3    H160649   6.519   6.167   5.487 -0.8061 -1.5950  0.0164
13078TIP3    H260650   6.439   6.231   5.375  3.5979  1.1386 -1.8453
13079TIP3   OH260651   3.855   5.405   5.023 -0.6797 -0.2988 -0.0552
13079TIP3    H160652   3.941   5.363   5.015 -0.8968 -0.7300 -0.1937
13079TIP3    H260653   3.832   5.391   5.115 -0.5760 -0.1297 -0.0028
13080TIP3   OH260654   1.479   5.623  13.705  0.8503  0.4287  0.2143
13080TIP3    H160655   1.403   5.680  13.715 -0.8407 -1.3946 -1.3440
13080TIP3    H260656   1.463   5.576  13.623  2.2163 -2.1437  1.2958
13081TIP3   OH260657   5.046   2.117  13.440 -0.0501 -0.0909  0.1692
13081TIP3    H160658   4.992   2.068  13.379  0.9907 -0.3670 -0.5654
13081TIP3    H260659   5.039   2.208  13.411  0.6173 -0.2511 -0.5077
13082TIP3   OH260660   3.435   0.628   4.795  0.2205 -0.0708  0.0863
13082TIP3    H160661   3.370   0.571   4.837 -0.8939  0.9638 -0.1973
13082TIP3    H260662   3.420   0.714   4.833  0.9742  0.3283 -0.5008
13083TIP3   OH260663   1.460   3.407   4.916 -0.9841 -0.9616 -0.4034
13083TIP3    H160664   1.463   3.337   4.850  0.5913 -0.4369 -0.9332
13083TIP3    H260665   1.493   3.365   4.996 -1.3137 -1.1658 -0.3719
13084TIP3   OH260666   4.003   3.204  10.777 -0.3627  0.1592 -0.1703
13084TIP3    H160667   4.072   3.218  10.713  0.7649  0.0885  0.9861
13084TIP3    H260668   3.923   3.193  10.725  0.3657  0.9839 -1.4988
13085TIP3   OH260669   5.601   2.609  12.674 -0.5321 -0.0909 -0.2444
13085TIP3    H160670   5.674   2.630  12.615  1.6488  1.2862  2.6645
13085TIP3    H260671   5.631   2.531  12.721 -0.4677  0.9916  1.6015
13086TIP3   OH260672   3.344   4.552  16.835  0.3727 -0.7031  0.0404
13086TIP3    H160673   3.399   4.552  16.913  0.6683 -0.4382 -0.1651
13086TIP3    H260674   3.255   4.545  16.868  0.5340 -1.2511  0.3743
13087TIP3   OH260675   6.736   4.096  11.493 -0.2283  0.2650  0.7946
13087TIP3    H160676   6.760   4.112  11.584  0.7906 -1.0626  0.7945
13087TIP3    H260677   6.692   4.011  11.495  2.2027 -1.1217 -0.2526
13088TIP3   OH260678   4.417   4.528   3.328 -0.0144  0.6013  0.5985
13088TIP3    H160679   4.437   4.503   3.238  0.4814  0.6848  0.6800
13088TIP3    H260680   4.450   4.618   3.335 -0.5393  0.7876  0.7077
13089TIP3   OH260681   3.951   6.012  16.659 -0.2977 -0.4457  0.6472
13089TIP3    H160682   3.949   6.085  16.597 -0.3177 -1.0354 -0.0460
13089TIP3    H260683   4.041   6.012  16.692 -0.5672  0.5384  1.4421
13090TIP3   OH260684   0.958   6.265  12.646  0.5149 -0.0808 -0.2205
13090TIP3    H160685   1.053   6.251  12.639  0.3031 -2.2788  0.4441
13090TIP3    H260686   0.921   6.201  12.585 -0.5647  0.5146 -0.2052
13091TIP3   OH260687   0.935   5.992  12.152 -0.1209 -0.5639  0.2479
13091TIP3    H160688   1.019   5.996  12.199 -0.1807  0.0885  0.3170
13091TIP3    H260689   0.953   5.940  12.074  0.2032 -0.9136  0.5532
13092TIP3   OH260690   4.219   1.851   0.057  0.5261 -0.8487 -0.2627
13092TIP3    H160691   4.251   1.773   0.102  2.9493  0.5883  0.7486
13092TIP3    H260692   4.297   1.907   0.049 -1.4286  2.2821  0.8922
13093TIP3   OH260693   2.687   1.097   4.766  0.5116 -0.4601  0.1833
13093TIP3    H160694   2.754   1.081   4.832 -0.9319  1.3213  2.2335
13093TIP3    H260695   2.605   1.073   4.809 -0.4344  0.2063 -1.1629
13094TIP3   OH260696   5.516   6.353   4.392 -0.2271 -0.1569 -0.2064
13094TIP3    H160697   5.473   6.275   4.357  1.3810 -1.1149 -0.1748
13094TIP3    H260698   5.610   6.335   4.381  0.2099  1.2671  0.9026
13095TIP3   OH260699   0.363   1.378  13.133 -0.3866 -0.4916  0.6055
13095TIP3    H160700   0.341   1.450  13.192 -0.1309  1.6361 -1.7459
13095TIP3    H260701   0.286   1.322  13.133 -0.7681 -0.0217  2.1595
13096TIP3   OH260702   0.442   1.110   1.378  0.1337  0.4953  0.2164
13096TIP3    H160703   0.529   1.075   1.359 -0.0951 -0.3026  0.5625
13096TIP3    H260704   0.382   1.048   1.335 -0.2803  0.5435  0.7208
13097TIP3   OH260705   2.794   1.643  15.879  0.4124 -0.9294  0.0715
13097TIP3    H160706   2.738   1.575  15.916  0.8795 -1.2034  0.2846
13097TIP3    H260707   2.881   1.625  15.914  0.9847 -1.4890 -1.5143
13098TIP3   OH260708   4.688   0.810   2.227  0.5197  0.3969  0.5020
13098TIP3    H160709   4.631   0.870   2.275  2.4085  3.0966 -0.4173
13098TIP3    H260710   4.777   0.837   2.251  1.5014  0.0708 -2.3496
13099TIP3   OH260711   1.457   5.508   1.949  0.4160 -0.2477 -0.1035
13099TIP3    H160712   1.507   5.470   1.877  1.7437  0.1453  0.5706
13099TIP3    H260713   1.417   5.587   1.912  0.1306 -0.6613 -0.6995
13100TIP3   OH260714   3.710   4.704   2.383  0.2838 -0.1155  0.1189
13100TIP3    H160715   3.706   4.644   2.309  0.0355  0.8688 -0.6933
13100TIP3    H260716   3.799   4.739   2.381  1.0036 -1.6960  1.6400
13101TIP3   OH260717   4.058   0.020  13.307  0.2579 -0.3926  0.6049
13101TIP3    H160718   4.153   0.017  13.313  0.2437  0.2395  1.4170
13101TIP3    H260719   4.036   0.113  13.322 -0.5656 -0.7806  2.0415
13102TIP3   OH260720   3.304   4.440   1.966 -0.1670 -0.0515 -0.0057
13102TIP3    H160721   3.376   4.377   1.967 -0.3078 -0.2159  0.7439
13102TIP3    H260722   3.303   4.476   2.055 -1.8507 -1.0441  0.4276
13103TIP3   OH260723   6.063   2.201   3.892  1.0513  0.3141 -0.5711
13103TIP3    H160724   6.125   2.233   3.957 -0.8685  1.3157  0.8725
13103TIP3    H260725   6.001   2.148   3.942  1.5919 -2.0338 -2.2248
13104TIP3   OH260726   4.649   6.502  11.748 -0.5804  0.5906 -0.2274
13104TIP3    H160727   4.702   6.459  11.816  1.0827  0.9931 -1.2090
13104TIP3    H260728   4.655   6.444  11.673  0.0983  1.5523 -0.9542
13105TIP3   OH260729   0.607   5.449  13.327  0.3172  0.7997  0.0959
13105TIP3    H160730   0.593   5.538  13.361  1.9938  0.4086  2.0545
13105TIP3    H260731   0.519   5.416  13.310 -0.3701  2.6817 -0.3539
13106TIP3   OH260732   2.432   5.154   3.450 -0.7686  0.1177  0.0299
13106TIP3    H160733   2.415   5.097   3.525  0.6130  0.5325  0.6959
13106TIP3    H260734   2.496   5.105   3.397 -2.0763 -0.3818 -1.1596
13107TIP3   OH260735   5.708   3.566  13.909 -0.0707 -0.2177 -0.0186
13107TIP3    H160736   5.670   3.616  13.837 -0.4189 -0.5308 -0.0585
13107TIP3    H260737   5.751   3.492  13.866 -0.3009 -0.4194  0.0938
13108TIP3   OH260738   1.915   3.994   0.799  0.4058 -0.0660 -0.4189
13108TIP3    H160739   1.983   3.946   0.847  0.3353 -0.6026 -0.8454
13108TIP3    H260740   1.855   3.927   0.768  0.2275  0.3124 -0.9117
13109TIP3   OH260741   6.303   3.516   3.135  0.0887 -0.1278 -0.2133
13109TIP3    H160742   6.307   3.567   3.215  0.7748 -0.2458 -0.1613
13109TIP3    H260743   6.281   3.580   3.067 -0.7484 -0.0757  0.1008
13110TIP3   OH260744   3.864   1.936  13.375  0.0068  0.1778  0.3730
13110TIP3    H160745   3.821   1.902  13.297  0.6708 -0.4321  0.2680
13110TIP3    H260746   3.809   1.905  13.448  0.8057 -1.4756  0.3042
13111TIP3   OH260747   1.162   2.141  10.174  0.1404  0.5351 -0.9056
13111TIP3    H160748   1.099   2.206  10.146 -1.1440 -0.3992 -0.2682
13111TIP3    H260749   1.245   2.169  10.135 -0.8005  1.3930 -2.3548
13112TIP3   OH260750   1.070   0.567   5.431  0.5126 -0.1706 -0.1227
13112TIP3    H160751   1.071   0.620   5.351  0.2565  2.0802  1.2870
13112TIP3    H260752   0.978   0.545   5.443  0.5911 -0.7764 -0.6024
13113TIP3   OH260753   0.222   5.398   6.265  0.0015 -0.0740  0.0240
13113TIP3    H160754   0.214   5.475   6.208  1.4681  1.0497  1.2583
13113TIP3    H260755   0.143   5.347   6.248  0.1429  0.4480 -2.6416
13114TIP3   OH260756   0.258   0.760   5.232 -0.0885  0.2022 -0.2395
13114TIP3    H160757   0.305   0.783   5.312 -0.5174  0.2869 -0.0080
13114TIP3    H260758   0.170   0.738   5.261 -0.8462  2.2072 -0.8971
13115TIP3   OH260759   3.679   5.122   1.644 -0.0738 -0.3789  0.5702
13115TIP3    H160760   3.642   5.101   1.730 -0.2914 -1.7111  0.1684
13115TIP3    H260761   3.763   5.164   1.663 -0.1257 -0.6606  1.4404
13116TIP3   OH260762   1.716   5.602  11.541  0.3199 -0.0642  0.4438
13116TIP3    H160763   1.806   5.611  11.511 -0.6399 -1.1866 -3.4552
13116TIP3    H260764   1.675   5.686  11.521  0.1056 -0.1766  0.3957
13117TIP3   OH260765   2.335   6.113  10.784  0.1291  0.2887  0.2253
13117TIP3    H160766   2.321   6.048  10.715 -0.3216 -1.1507  1.6162
13117TIP3    H260767   2.331   6.197  10.738 -0.7646 -0.5796 -1.4055
13118TIP3   OH260768   2.522   0.917   0.923  0.0816 -0.2473  0.1219
13118TIP3    H160769   2.589   0.961   0.976  1.6783 -0.9741 -1.1896
13118TIP3    H260770   2.536   0.952   0.834 -2.5849  1.0328  0.1286
13119TIP3   OH260771   2.376   5.333   6.249 -0.3571  0.0585 -0.0725
13119TIP3    H160772   2.466   5.307   6.272 -0.6561 -1.6315 -0.6836
13119TIP3    H260773   2.369   5.424   6.280  1.3555  0.0236  0.5419
13120TIP3   OH260774   2.241   6.102  12.422 -0.6931  0.1135  0.2134
13120TIP3    H160775   2.277   6.015  12.440 -0.7026  0.4485  1.9866
13120TIP3    H260776   2.285   6.160  12.485 -1.1140  1.2987 -0.5480
13121TIP3   OH260777   1.527   3.608  11.099  0.3928  0.8891  0.3637
13121TIP3    H160778   1.497   3.612  11.190 -1.1105  1.7918 -0.1361
13121TIP3    H260779   1.461   3.657  11.050  2.2773  2.2755 -0.9362
13122TIP3   OH260780   0.543   1.295   0.445  0.3982 -0.1217  0.5827
13122TIP3    H160781   0.564   1.380   0.406 -0.2260 -0.7177 -1.1562
13122TIP3    H260782   0.603   1.287   0.519 -1.2378  2.9771  2.4925
13123TIP3   OH260783   0.076   6.653  11.973 -0.0642  0.2027 -0.1228
13123TIP3    H160784   0.084   6.703  11.892  1.1061 -1.7207 -1.2839
13123TIP3    H260785   0.156   6.601  11.977 -1.5532 -2.2401  0.4586
13124TIP3   OH260786   5.977   2.803  15.965  0.4529  0.1139  0.4597
13124TIP3    H160787   5.886   2.830  15.951  0.5981  0.6573  0.5105
13124TIP3    H260788   5.971   2.728  16.024  0.0177 -0.0860  0.1635
13125TIP3   OH260789   3.524   6.226   0.383  0.2088  0.4535  0.2371
13125TIP3    H160790   3.552   6.311   0.417  0.6868 -0.1640  1.4620
13125TIP3    H260791   3.603   6.190   0.342 -0.3720  1.2080 -1.6550
13126TIP3   OH260792   5.939   5.631   5.295 -0.2617  0.1684 -0.0954
13126TIP3    H160793   5.905   5.596   5.213 -0.2934  1.4375 -0.6399
13126TIP3    H260794   5.868   5.684   5.330 -0.4512 -0.7967  1.0523
13127TIP3   OH260795   3.733   2.869  15.030 -0.8712  0.8398  0.5410
13127TIP3    H160796   3.810   2.849  14.977  0.4238  0.7555  2.3607
13127TIP3    H260797   3.660   2.866  14.969  0.2677 -1.3909 -0.8104
13128TIP3   OH260798   5.639   4.367   1.626  0.3070  0.2148 -0.2605
13128TIP3    H160799   5.616   4.418   1.704  0.2100 -0.4932  0.1870
13128TIP3    H260800   5.696   4.425   1.576  2.5811 -0.2385  1.6175
13129TIP3   OH260801   3.616   0.620  12.236 -0.0778  0.0456 -0.3923
13129TIP3    H160802   3.678   0.682  12.199  0.7855 -0.8631 -0.5074
13129TIP3    H260803   3.574   0.580  12.160 -1.1981  1.0012 -0.3159
13130TIP3   OH260804   0.602   3.121  16.143 -0.0446 -0.0334 -0.4590
13130TIP3    H160805   0.654   3.200  16.131 -0.3876  0.8204  2.6749
13130TIP3    H260806   0.666   3.050  16.147  0.5007  0.4407 -0.6614
13131TIP3   OH260807   2.781   4.618  16.446  0.1435  0.9171 -0.0838
13131TIP3    H160808   2.768   4.524  16.434 -1.4348  1.1147 -0.0613
13131TIP3    H260809   2.863   4.624  16.495  0.4922 -0.4138 -0.4425
13132TIP3   OH260810   1.449   4.444   0.453  0.2109  0.3165 -0.1287
13132TIP3    H160811   1.403   4.442   0.370 -3.4099 -0.5474  1.6742
13132TIP3    H260812   1.513   4.373   0.447 -0.0705  0.1862 -2.1025
13133TIP3   OH260813   3.625   6.459   1.466  0.1887 -0.3961  0.2162
13133TIP3    H160814   3.642   6.397   1.395  0.1915 -0.7885  0.5523
13133TIP3    H260815   3.546   6.426   1.508  0.3326 -0.3099  0.5547
13134TIP3   OH260816   0.310   1.973   5.957  0.1681 -0.2424 -0.2080
13134TIP3    H160817   0.285   2.049   6.009  0.5567 -0.2995  0.0667
13134TIP3    H260818   0.342   2.010   5.875  0.6600 -0.0901  0.0500
13135TIP3   OH260819   0.408   1.047   5.892 -0.1069 -0.1478  0.2475
13135TIP3    H160820   0.425   1.134   5.928 -1.9133  1.6014 -2.7165
13135TIP3    H260821   0.492   1.019   5.857  0.4342  0.6018  0.9193
13136TIP3   OH260822   3.690   5.044  13.866 -0.7642 -0.1958 -0.4001
13136TIP3    H160823   3.729   4.981  13.926 -1.2800 -1.0063 -0.9070
13136TIP3    H260824   3.706   5.129  13.908 -0.7618 -0.7107  0.6857
13137TIP3   OH260825   2.128   3.288   2.972  0.1987 -0.0305  0.0755
13137TIP3    H160826   2.109   3.382   2.976  0.7580  0.1307 -0.7040
13137TIP3    H260827   2.080   3.257   2.896  1.2303 -0.0541 -0.5874
13138TIP3   OH260828   0.882   2.053   2.379 -0.4872 -0.1312  0.1034
13138TIP3    H160829   0.945   1.992   2.416  0.5129 -1.0835 -2.8633
13138TIP3    H260830   0.927   2.091   2.303 -3.2730 -0.5131 -1.9005
13139TIP3   OH260831   4.475   0.750   4.817 -0.3321  0.7371 -0.5035
13139TIP3    H160832   4.414   0.797   4.874 -0.0028 -0.0743  0.5597
13139TIP3    H260833   4.420   0.695   4.762 -0.6111 -1.5375  1.8143
13140TIP3   OH260834   2.625   4.192   1.734  0.0080  0.0019  0.0600
13140TIP3    H160835   2.681   4.206   1.658 -0.1185 -0.1253 -0.0570
13140TIP3    H260836   2.686   4.183   1.808  0.2228 -1.5249 -0.2621
13141TIP3   OH260837   0.553   3.021   2.845 -0.6172 -0.2922 -0.5793
13141TIP3    H160838   0.478   2.988   2.794  1.1697 -0.9012 -3.0071
13141TIP3    H260839   0.542   3.116   2.845 -1.6994 -0.3986 -0.3349
13142TIP3   OH260840   5.936   3.754   0.092 -0.3608 -0.5886 -0.9234
13142TIP3    H160841   5.854   3.724   0.131 -0.7870  0.3894 -1.0386
13142TIP3    H260842   5.942   3.846   0.117  1.4112 -0.9731  0.2657
13143TIP3   OH260843   0.691   4.654  16.562  0.1699  0.3140  0.1720
13143TIP3    H160844   0.630   4.587  16.592  0.3565 -3.0509 -5.5468
13143TIP3    H260845   0.643   4.702  16.494  2.3898  0.6645 -1.2735
13144TIP3   OH260846   4.810   3.715  12.498 -0.0626  0.1426  0.0979
13144TIP3    H160847   4.831   3.736  12.589 -1.9076  0.2343  0.5473
13144TIP3    H260848   4.865   3.773  12.446 -0.2800  1.3625  1.1914
13145TIP3   OH260849   6.589   2.827  17.186  0.3691  0.9227  0.6378
13145TIP3    H160850   6.654   2.895  17.167  1.0235 -0.0393 -0.7177
13145TIP3    H260851   6.635   2.765  17.243  1.3825 -0.7654 -1.8424
13146TIP3   OH260852   5.276   0.990   0.760  0.4301 -0.0030 -0.2305
13146TIP3    H160853   5.187   0.989   0.795  0.3837  1.8828 -0.1910
13146TIP3    H260854   5.265   1.013   0.668  0.9059  1.2898  0.0126
13147TIP3   OH260855   2.893   4.682  12.841  0.0096  0.2346  0.3119
13147TIP3    H160856   2.915   4.720  12.926 -0.7543 -1.6390  1.4242
13147TIP3    H260857   2.925   4.592  12.846 -1.4823 -0.4041 -0.7340
13148TIP3   OH260858   3.964   2.441   1.612  0.7741  0.0708  0.4146
13148TIP3    H160859   4.052   2.478   1.604  1.2775 -0.8614  1.3976
13148TIP3    H260860   3.975   2.349   1.588  0.2069 -0.2027  1.1722
13149TIP3   OH260861   5.103   2.113   4.483  0.0068 -0.1656 -0.1369
13149TIP3    H160862   5.093   2.020   4.463 -0.7471 -0.2733  0.6955
13149TIP3    H260863   5.188   2.136   4.444  2.2933 -2.2114  3.1221
13150TIP3   OH260864   6.210   3.654   5.380 -0.2395 -0.4843  0.1639
13150TIP3    H160865   6.273   3.595   5.423 -1.9892 -2.9565 -0.4461
13150TIP3    H260866   6.208   3.624   5.289 -0.8345  0.8992 -0.3023
13151TIP3   OH260867   5.891   3.726  15.007 -0.4597 -0.7078  0.4911
13151TIP3    H160868   5.897   3.821  14.995 -0.9766 -0.7833 -0.4424
13151TIP3    H260869   5.982   3.697  15.010 -0.2968 -0.2113  0.5556
13152TIP3   OH260870   5.495   3.252   5.268 -1.0989  0.6524  0.3203
13152TIP3    H160871   5.488   3.251   5.364 -0.1560 -1.0095  0.4063
13152TIP3    H260872   5.430   3.317   5.240 -2.8331 -0.2755  1.9853
13153TIP3   OH260873   5.420   1.911   5.600 -0.0380 -0.1020  0.0728
13153TIP3    H160874   5.346   1.933   5.656 -0.2630 -1.0249  0.1520
13153TIP3    H260875   5.474   1.853   5.653 -0.8038 -1.8730 -1.0035
13154TIP3   OH260876   5.286   3.198   1.925  0.0288 -0.0637  0.7293
13154TIP3    H160877   5.336   3.172   2.003 -1.2791 -0.3937  1.5029
13154TIP3    H260878   5.202   3.153   1.935 -0.3170  0.2329 -0.6744
13155TIP3   OH260879   1.550   0.678  14.648 -0.4604  0.2428 -0.4285
13155TIP3    H160880   1.496   0.711  14.719 -0.4820  0.2298 -0.4396
13155TIP3    H260881   1.613   0.748  14.632 -1.6620  1.0884 -1.6996
13156TIP3   OH260882   4.295   3.496   6.028 -0.1125  0.2418  0.5352
13156TIP3    H160883   4.243   3.417   6.042 -0.9285  1.0203  2.2100
13156TIP3    H260884   4.345   3.507   6.109  0.5158  1.0639  0.0529
13157TIP3   OH260885   5.191   2.368   1.326  0.1672  0.1833  0.6940
13157TIP3    H160886   5.141   2.399   1.250  0.7620  0.6343  0.4736
13157TIP3    H260887   5.125   2.334   1.386 -0.2673 -0.8559 -0.3252
13158TIP3   OH260888   4.566   2.258   0.130 -0.0013  0.1669  0.2477
13158TIP3    H160889   4.509   2.316   0.180 -1.2874 -0.6140 -0.2552
13158TIP3    H260890   4.655   2.289   0.148 -0.6839  3.3452 -1.3044
13159TIP3   OH260891   4.044   2.549   3.290  0.4105  0.0997  0.1022
13159TIP3    H160892   4.019   2.641   3.296 -0.4958 -0.1205 -0.1852
13159TIP3    H260893   4.121   2.542   3.346 -0.8389  0.5777  2.0100
13160TIP3   OH260894   6.399   4.243  16.075 -0.3046 -0.4850  0.0295
13160TIP3    H160895   6.346   4.212  16.148 -1.4449 -0.5200 -0.7861
13160TIP3    H260896   6.449   4.165  16.047 -0.2962 -0.6125  0.3929
13161TIP3   OH260897   4.538   1.823  12.896 -0.7324  0.2410 -0.2954
13161TIP3    H160898   4.605   1.882  12.863  0.8072 -1.1343  0.2109
13161TIP3    H260899   4.455   1.869  12.881 -0.0337  0.5370 -4.2278
13162TIP3   OH260900   2.504   4.289  12.877 -0.1767  0.3516  0.2418
13162TIP3    H160901   2.542   4.370  12.845 -0.0989  0.8726  1.5914
13162TIP3    H260902   2.506   4.297  12.972 -1.7289 -0.4960  0.3882
13163TIP3   OH260903   1.265   3.494  12.736  0.5767 -0.9554 -0.0039
13163TIP3    H160904   1.342   3.514  12.683  0.4341  0.1547  0.1730
13163TIP3    H260905   1.258   3.569  12.796 -0.2364 -1.3798  0.4438
13164TIP3   OH260906   6.724   4.909  13.220 -0.0034  0.4359 -0.0362
13164TIP3    H160907   6.629   4.913  13.218 -0.0895 -0.2634  1.1987
13164TIP3    H260908   6.753   4.961  13.145 -1.3430  0.9376 -0.2199
13165TIP3   OH260909   3.303   4.905  11.788  0.5229  0.4634 -0.6006
13165TIP3    H160910   3.220   4.921  11.743  1.0432 -0.2915 -1.8713
13165TIP3    H260911   3.367   4.895  11.718  0.9161 -3.3993  0.0800
13166TIP3   OH260912   1.590   6.075   4.693  0.0428  0.0486 -0.5414
13166TIP3    H160913   1.673   6.042   4.658  0.1667  1.1682 -1.3744
13166TIP3    H260914   1.614   6.121   4.773  0.4720  1.5589 -1.4817
13167TIP3   OH260915   5.579   2.793   1.193 -0.0633 -0.0798 -0.1513
13167TIP3    H160916   5.573   2.753   1.106 -1.3194 -0.5858  0.1496
13167TIP3    H260917   5.630   2.730   1.245 -2.1941 -1.4863  0.3729
13168TIP3   OH260918   3.259   1.941  15.066  0.1840 -0.2127  0.0996
13168TIP3    H160919   3.343   1.895  15.069 -0.5028 -1.4565  1.5371
13168TIP3    H260920   3.193   1.871  15.074 -0.9502  0.8352  0.1987
13169TIP3   OH260921   1.181   4.722  11.259  0.3947 -0.2667 -0.0538
13169TIP3    H160922   1.122   4.646  11.251 -0.8142  0.6962 -0.6534
13169TIP3    H260923   1.173   4.749  11.350 -1.1626  0.6422 -0.4197
13170TIP3   OH260924   2.057   6.651   5.628  0.0464 -0.0713  0.1352
13170TIP3    H160925   2.148   6.631   5.648  0.3299 -0.0300 -1.0243
13170TIP3    H260926   2.029   6.581   5.569 -0.2383  0.6587 -0.6178
13171TIP3   OH260927   5.200   6.700  14.518  0.5696  0.5557  0.8581
13171TIP3    H160928   5.258   6.756  14.467  1.2567 -0.6751  0.2378
13171TIP3    H260929   5.157   6.645  14.453  2.1745 -1.7238  1.5782
13172TIP3   OH260930   1.478   5.567   0.736 -0.1596  0.0738  0.0385
13172TIP3    H160931   1.431   5.504   0.681  1.7737  0.2984 -2.0082
13172TIP3    H260932   1.545   5.516   0.780 -1.0111  0.0905  1.4116
13173TIP3   OH260933   4.715   1.255  17.223  0.1172 -0.3612 -0.4407
13173TIP3    H160934   4.808   1.275  17.207 -0.0083 -0.4293 -1.2534
13173TIP3    H260935   4.707   1.260  17.319  0.8358  0.2015 -0.3935
13174TIP3   OH260936   5.425   5.033   0.955 -0.0484 -0.0286 -0.2244
13174TIP3    H160937   5.405   4.944   0.983  0.7053 -0.1280  0.0071
13174TIP3    H260938   5.519   5.042   0.968 -0.2502  1.1155  0.6889
13175TIP3   OH260939   0.771   5.155  16.714  0.1797 -0.2736  0.5876
13175TIP3    H160940   0.758   5.060  16.711  1.5416 -0.5349  1.6903
13175TIP3    H260941   0.724   5.188  16.638  1.0400 -2.0032 -0.7715
13176TIP3   OH260942   2.390   1.863   5.145  0.3190 -0.2476  0.2991
13176TIP3    H160943   2.398   1.928   5.215 -1.5007 -0.9052  1.1783
13176TIP3    H260944   2.330   1.904   5.082  0.1237 -0.5961  0.2602
13177TIP3   OH260945   2.947   5.688  12.434  0.0761  0.0717  0.1557
13177TIP3    H160946   2.873   5.626  12.433  0.5900 -0.5639  0.6092
13177TIP3    H260947   3.025   5.632  12.441  0.5757  0.7522  0.0944
13178TIP3   OH260948   0.087   2.830   4.514  0.5193 -0.3004  0.0401
13178TIP3    H160949   0.110   2.848   4.605  0.0278 -0.1228  0.1365
13178TIP3    H260950   0.010   2.772   4.520  1.0559 -1.0586 -0.2643
13179TIP3   OH260951   4.605   4.087  10.418 -0.0761 -0.0755 -0.6423
13179TIP3    H160952   4.544   4.095  10.345  0.8121 -0.3109 -1.4354
13179TIP3    H260953   4.684   4.049  10.380  0.7951  0.7889  0.2154
13180TIP3   OH260954   5.321   3.258  11.596  0.3779  0.3709 -0.3585
13180TIP3    H160955   5.320   3.166  11.622 -0.7066  0.7764  1.2050
13180TIP3    H260956   5.248   3.265  11.533  0.1284  0.2548 -0.0862
13181TIP3   OH260957   6.197   0.289  14.703 -0.3401 -0.0693  0.1394
13181TIP3    H160958   6.227   0.363  14.649  0.5769 -0.6909 -0.2238
13181TIP3    H260959   6.114   0.319  14.740  0.6932  1.6978  1.1443
13182TIP3   OH260960   2.435   5.595   3.036  0.3372 -0.1907 -0.1367
13182TIP3    H160961   2.405   5.671   3.086  0.9658  0.3336 -0.5578
13182TIP3    H260962   2.367   5.529   3.051  0.5544 -0.0850  1.4916
13183TIP3   OH260963   6.726   3.853  15.812  0.7445 -0.5653  0.3033
13183TIP3    H160964   6.687   3.850  15.724  0.9430 -1.1498  0.2305
13183TIP3    H260965   6.780   3.932  15.811 -0.0600 -0.0048  0.2467
13184TIP3   OH260966   1.264   0.467   3.616  0.1186 -0.4557  0.4439
13184TIP3    H160967   1.198   0.446   3.550  0.5456 -0.0197 -0.1287
13184TIP3    H260968   1.232   0.547   3.658  0.7206  0.2539 -0.4403
13185TIP3   OH260969   1.895   2.126   3.191 -0.1914 -0.2462  0.1387
13185TIP3    H160970   1.803   2.107   3.211 -0.3672 -1.0319 -1.2535
13185TIP3    H260971   1.901   2.113   3.096  1.5046 -0.7995  0.3030
13186TIP3   OH260972   1.168   5.329  16.877  0.1716  0.0192 -0.0559
13186TIP3    H160973   1.080   5.306  16.904 -0.1792  0.3441 -0.8758
13186TIP3    H260974   1.210   5.362  16.956 -0.8699  1.1183  0.0697
13187TIP3   OH260975   3.419   3.270  12.462 -0.2768 -0.5245  0.0701
13187TIP3    H160976   3.384   3.277  12.373  1.7180  0.2649 -0.6911
13187TIP3    H260977   3.511   3.295  12.454 -0.5521  1.8462  2.7222
13188TIP3   OH260978   5.071   3.230   2.201 -0.7134 -0.3936  0.5037
13188TIP3    H160979   5.074   3.164   2.131  0.5657  0.2026 -0.0285
13188TIP3    H260980   5.090   3.313   2.157 -2.1711  0.3386  1.1880
13189TIP3   OH260981   4.873   5.592  15.723 -0.1006 -0.1441  0.5501
13189TIP3    H160982   4.908   5.540  15.795  1.1776 -1.0952 -0.7144
13189TIP3    H260983   4.834   5.528  15.664 -0.9575  0.6079  0.2784
13190TIP3   OH260984   3.297   0.212  16.855 -0.0074 -0.6765  0.0527
13190TIP3    H160985   3.331   0.300  16.844 -2.1004  0.4314  1.7557
13190TIP3    H260986   3.252   0.193  16.772 -0.9280  0.5490  0.2446
13191TIP3   OH260987   0.414   3.891   0.469  0.2361  0.1433  0.2228
13191TIP3    H160988   0.348   3.934   0.523 -0.2871 -0.2138 -0.1132
13191TIP3    H260989   0.485   3.954   0.463 -0.3435  0.8017  0.0774
13192TIP3   OH260990   4.289   2.330  10.915  0.0205  0.6372 -1.0058
13192TIP3    H160991   4.250   2.342  11.001 -1.4985 -1.8916 -1.2523
13192TIP3    H260992   4.375   2.373  10.921  0.2325  0.0091  1.9492
13193TIP3   OH260993   5.752   2.113  13.195  0.2796  0.4211  0.4900
13193TIP3    H160994   5.824   2.051  13.212  0.0669 -0.0345 -0.2513
13193TIP3    H260995   5.744   2.162  13.277  0.8626 -0.1095  0.8796
13194TIP3   OH260996   1.617   0.737   0.727  0.3955 -0.0775 -0.3152
13194TIP3    H160997   1.560   0.685   0.783 -0.8752  2.0814  0.5152
13194TIP3    H260998   1.558   0.794   0.678  1.7143  3.3098  1.6630
13195TIP3   OH260999   1.294   4.013  13.366 -0.1944  0.4049 -0.5210
13195TIP3    H161000   1.271   4.070  13.292  0.0216  1.2211  0.0217
13195TIP3    H261001   1.215   4.011  13.420 -0.9677 -1.6231 -1.6205
13196TIP3   OH261002   3.640   2.035  15.157  0.3119  0.1333  0.4391
13196TIP3    H161003   3.632   2.114  15.211  3.4293  0.7976  0.1731
13196TIP3    H261004   3.593   2.057  15.077  0.4872  1.4690  0.6640
13197TIP3   OH261005   5.269   6.069  16.311 -0.5132  0.1352  0.5358
13197TIP3    H161006   5.288   6.135  16.245  1.4295  0.6288  1.5221
13197TIP3    H261007   5.266   6.118  16.393 -0.7707 -0.7626  1.0732
13198TIP3   OH261008   1.447   4.056  12.745 -0.5827 -0.0531  0.2410
13198TIP3    H161009   1.448   3.972  12.699  0.9574  0.0152  0.0802
13198TIP3    H261010   1.451   4.122  12.675 -1.0357  0.1309  0.3877
13199TIP3   OH261011   1.741   1.046   5.530  0.6161 -0.4754 -0.5518
13199TIP3    H161012   1.771   0.959   5.558 -1.2504 -0.3168  2.2901
13199TIP3    H261013   1.680   1.028   5.458  1.2238 -1.3941 -0.8577
13200TIP3   OH261014   5.656   0.818  13.395 -0.4824 -0.2024  0.0589
13200TIP3    H161015   5.722   0.749  13.405  2.1891  2.0206 -1.0428
13200TIP3    H261016   5.631   0.814  13.303 -0.0799  0.4942 -0.0826
13201TIP3   OH261017   4.188   4.988   5.494 -0.6455 -0.1199 -0.4444
13201TIP3    H161018   4.239   4.992   5.413 -2.7577  1.1413 -1.8066
13201TIP3    H261019   4.191   4.896   5.520  3.9347  0.1161  0.7666
13202TIP3   OH261020   4.896   6.425  11.895 -0.6252  0.2904  0.4341
13202TIP3    H161021   4.883   6.503  11.949 -1.1739 -0.6829  1.7765
13202TIP3    H261022   4.989   6.404  11.906 -1.1913 -1.3198  3.1499
13203TIP3   OH261023   0.724   1.238  17.093  0.0937  0.3502  0.1105
13203TIP3    H161024   0.704   1.147  17.073  1.2866  0.1733 -0.3618
13203TIP3    H261025   0.726   1.242  17.189 -1.0467  0.1429  0.1538
13204TIP3   OH261026   1.770   4.142   2.041  0.1626  0.2250 -0.0735
13204TIP3    H161027   1.739   4.071   2.097  0.0309  1.0494  0.9415
13204TIP3    H261028   1.696   4.203   2.037 -0.0976 -0.1707 -1.7831
13205TIP3   OH261029   1.183   2.827  15.935  0.0792 -0.1676  0.1081
13205TIP3    H161030   1.159   2.836  15.843 -0.7422  0.6244  0.3845
13205TIP3    H261031   1.216   2.913  15.960  2.1446 -0.8903  0.0697
13206TIP3   OH261032   0.276   5.807  11.121  0.0515  0.0559 -0.4521
13206TIP3    H161033   0.236   5.847  11.044 -0.5653  1.6053  0.6294
13206TIP3    H261034   0.207   5.805  11.186  1.0652  0.5397  0.6782
13207TIP3   OH261035   4.361   1.733   4.459  0.0620  0.2114  0.1503
13207TIP3    H161036   4.335   1.823   4.480 -1.4904 -0.3597  0.8381
13207TIP3    H261037   4.381   1.734   4.366 -0.6086  1.1213  0.0085
13208TIP3   OH261038   0.524   2.042  14.129 -0.1663  0.2325  0.1375
13208TIP3    H161039   0.454   2.055  14.066 -0.3783 -1.1080  0.0686
13208TIP3    H261040   0.591   1.994  14.081  0.2565  0.3972  0.5543
13209TIP3   OH261041   1.933   4.804   0.612 -0.3309 -0.0442  0.1925
13209TIP3    H161042   1.896   4.805   0.701  1.2465 -0.5288  0.8990
13209TIP3    H261043   2.013   4.856   0.619  1.1623 -2.1470 -0.2806
13210TIP3   OH261044   5.954   1.044   6.021 -0.1366 -0.0869  0.6254
13210TIP3    H161045   5.936   1.091   6.102  1.4245 -0.5571  1.2780
13210TIP3    H261046   5.887   1.074   5.960 -0.0624  1.8740  1.4543
13211TIP3   OH261047   6.654   5.651   4.940  0.0087  0.2472 -0.2905
13211TIP3    H161048   6.642   5.558   4.923 -1.5843  0.2845  0.4168
13211TIP3    H261049   6.748   5.662   4.952  0.0779 -1.5346  1.1260
13212TIP3   OH261050   4.269   6.286   2.702 -0.1508 -0.0948  0.2870
13212TIP3    H161051   4.282   6.351   2.634  0.9895 -0.5744  0.0224
13212TIP3    H261052   4.292   6.331   2.783 -2.8815  0.9253  0.6048
13213TIP3   OH261053   2.478   0.533  12.635 -0.4333 -0.8104  0.2358
13213TIP3    H161054   2.412   0.542  12.705  0.3335 -2.4620  1.2334
13213TIP3    H261055   2.552   0.489  12.678  1.1352  0.5395 -0.9865
13214TIP3   OH261056   4.596   5.123   2.156 -0.1814  0.1187 -0.4542
13214TIP3    H161057   4.524   5.093   2.100 -0.3688 -1.3312  0.4905
13214TIP3    H261058   4.606   5.053   2.221  0.8072  1.1940  0.6040
13215TIP3   OH261059   1.864   5.173   1.279 -0.3744 -0.4060  0.0468
13215TIP3    H161060   1.798   5.181   1.211  1.4886  0.1229 -1.8010
13215TIP3    H261061   1.897   5.083   1.269  0.5743 -0.0184 -0.4392
13216TIP3   OH261062   0.685   5.285   5.620 -0.3004  0.3199  0.0298
13216TIP3    H161063   0.606   5.235   5.638  0.3908 -0.7768  0.1278
13216TIP3    H261064   0.682   5.302   5.526  0.3882 -1.6252 -0.3925
13217TIP3   OH261065   0.041   6.310   5.050 -0.5715  0.0155 -0.0221
13217TIP3    H161066   0.055   6.318   5.145  1.0143  0.6595 -0.2807
13217TIP3    H261067  -0.045   6.270   5.042 -0.8293  0.1453  1.6940
13218TIP3   OH261068   1.453   2.245  12.079 -0.5794  0.2352 -0.4065
13218TIP3    H161069   1.483   2.281  12.162 -0.0839 -0.7577 -0.1377
13218TIP3    H261070   1.372   2.292  12.060  0.3350  1.8924 -0.3876
13219TIP3   OH261071   0.894   3.112  16.830 -0.1027  0.7966 -0.7578
13219TIP3    H161072   0.967   3.079  16.882 -1.0855  0.5930  0.5667
13219TIP3    H261073   0.868   3.193  16.874 -0.7460  0.8030 -1.1283
13220TIP3   OH261074   5.037   0.367  12.181 -0.3828 -0.0658 -0.5842
13220TIP3    H161075   5.014   0.345  12.091 -0.7289  1.0926 -0.7935
13220TIP3    H261076   5.061   0.460  12.178 -1.1561  0.1951  0.6514
13221TIP3   OH261077   0.997   4.944  17.098  0.2813  0.0244 -0.3513
13221TIP3    H161078   1.025   4.884  17.167 -1.6484 -0.7706 -0.2017
13221TIP3    H261079   0.949   4.889  17.036  0.3760  1.0512 -1.3728
13222TIP3   OH261080   4.888   5.125  16.073  0.4996 -0.2363  0.0853
13222TIP3    H161081   4.822   5.192  16.091  0.7099  0.1193 -0.4767
13222TIP3    H261082   4.841   5.042  16.085 -0.1686  0.0109 -0.7368
13223TIP3   OH261083   4.832   5.222  14.131 -0.2214 -0.4785  0.4630
13223TIP3    H161084   4.824   5.200  14.038 -0.5184 -1.6319  0.7529
13223TIP3    H261085   4.763   5.173  14.174  0.0726 -0.1486  1.3347
13224TIP3   OH261086   1.901   5.873   1.746  0.5228  0.4480  0.4247
13224TIP3    H161087   1.891   5.848   1.654 -2.3150 -0.4361  0.8540
13224TIP3    H261088   1.952   5.801   1.784 -0.5980 -0.5945  0.0316
13225TIP3   OH261089   2.813   4.710  17.099  0.9325 -0.0450 -0.8882
13225TIP3    H161090   2.901   4.720  17.135  1.3387 -0.4001 -1.7572
13225TIP3    H261091   2.769   4.793  17.118  1.0577 -0.2854  0.5938
13226TIP3   OH261092   3.022   3.503  15.328  0.0064 -0.4806  0.6557
13226TIP3    H161093   3.075   3.433  15.291 -0.4208 -0.1410 -0.6277
13226TIP3    H261094   3.084   3.556  15.379  1.0152  0.1698 -1.1701
13227TIP3   OH261095   1.752   0.059   2.272 -0.5976  0.2457  0.1666
13227TIP3    H161096   1.820   0.069   2.338  0.2223  1.6691 -0.8489
13227TIP3    H261097   1.783   0.110   2.197 -1.7425 -0.8789 -1.1382
13228TIP3   OH261098   6.670   6.185   0.204 -0.1145 -0.2561  0.3053
13228TIP3    H161099   6.580   6.194   0.234 -0.1281 -1.6249  0.7496
13228TIP3    H261100   6.670   6.222   0.115 -1.3395 -1.1085 -0.0719
13229TIP3   OH261101   1.281   5.737   0.070  0.0438 -0.0602 -0.2504
13229TIP3    H161102   1.227   5.680   0.126 -0.6977  1.5469  0.7293
13229TIP3    H261103   1.248   5.825   0.087  0.4445  0.5917 -2.5260
13230TIP3   OH261104   2.312   6.628   4.409 -0.5430  0.3880  0.7902
13230TIP3    H161105   2.260   6.665   4.338 -0.2350  1.0617  0.9078
13230TIP3    H261106   2.326   6.537   4.384 -0.1013  0.7161 -0.2027
13231TIP3   OH261107   5.713   3.728  14.671 -0.2063  0.2808 -0.1015
13231TIP3    H161108   5.656   3.724  14.748 -0.6070  2.6749 -0.1971
13231TIP3    H261109   5.777   3.796  14.692  1.6048 -1.1528 -0.7031
13232TIP3   OH261110   6.427   1.196  16.551 -0.1754  0.2794 -0.3769
13232TIP3    H161111   6.456   1.270  16.497 -1.8584  1.6781  0.5100
13232TIP3    H261112   6.334   1.186  16.531 -0.3617 -0.4854  0.7472
13233TIP3   OH261113   5.036   0.368   0.239  0.2795  0.5787  0.4640
13233TIP3    H161114   5.016   0.295   0.297  2.6117 -0.0655  0.5759
13233TIP3    H261115   5.070   0.436   0.297 -0.0472  1.0030  0.1551
13234TIP3   OH261116   2.882   6.579   4.218 -0.3290 -0.0207 -0.2895
13234TIP3    H161117   2.857   6.561   4.128  0.6311 -0.0407 -0.5634
13234TIP3    H261118   2.864   6.673   4.230  0.1231  0.1215 -0.7013
13235TIP3   OH261119   3.648   2.364   4.056  0.2150  0.2504  0.2004
13235TIP3    H161120   3.630   2.459   4.056 -0.8150  0.1214 -1.9578
13235TIP3    H261121   3.563   2.324   4.069  0.1154 -0.3482 -1.9123
13236TIP3   OH261122   2.774   3.828  11.902 -0.1120 -0.3342 -0.4228
13236TIP3    H161123   2.800   3.798  11.989 -1.3151 -1.0750 -0.2795
13236TIP3    H261124   2.855   3.832  11.852  0.6037  0.1442  0.7367
13237TIP3   OH261125   1.739   3.693   3.562 -0.2868 -0.5170  0.3671
13237TIP3    H161126   1.828   3.658   3.555 -0.3699 -1.1283  1.8744
13237TIP3    H261127   1.688   3.620   3.596 -1.6968 -0.5959 -1.7571
13238TIP3   OH261128   4.840   2.773   0.730  0.2075 -0.3324 -0.1728
13238TIP3    H161129   4.775   2.783   0.660 -1.1550 -1.3909  0.8767
13238TIP3    H261130   4.919   2.813   0.695 -1.4149  2.5594 -0.8781
13239TIP3   OH261131   2.300   6.303  13.704 -0.3000  0.2692 -0.1248
13239TIP3    H161132   2.300   6.346  13.790 -0.6840  0.5437 -0.2597
13239TIP3    H261133   2.207   6.287  13.686 -0.3241  1.3599 -1.0533
13240TIP3   OH261134   1.046   6.751   4.999  0.0949  0.8057 -0.2521
13240TIP3    H161135   0.978   6.683   4.989 -0.9995  1.7082  0.7031
13240TIP3    H261136   1.062   6.782   4.910 -0.1977  0.0557 -0.5770
13241TIP3   OH261137   0.867   2.375  13.864 -0.2736  0.2722 -0.4502
13241TIP3    H161138   0.935   2.442  13.854 -0.8271  0.8642 -0.3426
13241TIP3    H261139   0.822   2.398  13.946 -0.1300 -0.5511 -0.1281
13242TIP3   OH261140   5.957   6.721   6.601  0.0516  0.5245 -0.2801
13242TIP3    H161141   6.033   6.709   6.658 -1.3716  4.8693  3.1735
13242TIP3    H261142   5.983   6.790   6.539 -0.7294  1.5879  0.5171
13243TIP3   OH261143   5.219   0.432  14.362  0.0453  0.1206  0.1939
13243TIP3    H161144   5.191   0.378  14.436  2.0375 -2.4905 -0.8075
13243TIP3    H261145   5.174   0.394  14.286 -0.9680  1.9545 -0.2032
13244TIP3   OH261146   5.827   4.433  10.393 -0.0487  0.2242  0.5147
13244TIP3    H161147   5.862   4.512  10.352 -0.2702  0.5328  0.9187
13244TIP3    H261148   5.734   4.435  10.373 -0.1225  0.2678  0.8547
13245TIP3   OH261149   2.863   0.251  16.757  0.6238 -0.1557  0.0100
13245TIP3    H161150   2.800   0.272  16.825 -2.0874  1.6771 -2.8030
13245TIP3    H261151   2.907   0.333  16.737 -0.6138  0.0768 -2.1713
13246TIP3   OH261152   4.094   5.069  15.099 -0.5285  0.4425  0.5790
13246TIP3    H161153   4.176   5.038  15.060  0.8267  2.4126  1.6819
13246TIP3    H261154   4.083   5.157  15.064 -2.4839  0.0296  0.0673
13247TIP3   OH261155   4.868   2.728   1.202  0.4241  0.0941 -0.2880
13247TIP3    H161156   4.772   2.729   1.197  0.3800 -0.4788  0.3414
13247TIP3    H261157   4.895   2.807   1.155 -0.3988  0.8013  0.3938
13248TIP3   OH261158   0.323   4.599  11.561 -0.1055  0.4337  0.6371
13248TIP3    H161159   0.257   4.662  11.593  1.7166  1.1538  3.3068
13248TIP3    H261160   0.405   4.648  11.563  0.5902 -0.3835 -2.8191
13249TIP3   OH261161   1.053   3.029  12.774  0.2075 -0.0894  0.1499
13249TIP3    H161162   1.081   2.959  12.715 -1.1582 -0.4645 -0.0890
13249TIP3    H261163   1.134   3.074  12.798  0.9132 -0.5993 -1.1509
13250TIP3   OH261164   0.485   3.470  16.809 -0.2518 -0.1911 -0.1702
13250TIP3    H161165   0.422   3.400  16.830  0.4977 -0.8732 -0.1258
13250TIP3    H261166   0.562   3.423  16.779 -0.0287  0.6673 -0.9584
13251TIP3   OH261167   0.003   5.082  10.437  0.3527  0.1203 -0.8875
13251TIP3    H161168  -0.082   5.089  10.394 -0.4074  0.2708  0.5934
13251TIP3    H261169   0.014   5.165  10.483  1.0892 -0.0797 -0.6806
13252TIP3   OH261170   5.392   2.365  10.508  0.3596  1.1007 -0.3797
13252TIP3    H161171   5.452   2.298  10.542  0.9257  2.3266  1.1590
13252TIP3    H261172   5.307   2.343  10.546 -0.5531 -1.2260 -3.3466
13253TIP3   OH261173   5.926   2.998   2.818 -0.0614 -0.2181  0.3985
13253TIP3    H161174   5.853   3.036   2.770 -1.5938 -0.9744  2.0202
13253TIP3    H261175   5.940   3.057   2.892  1.3871  0.2281 -0.2023
13254TIP3   OH261176   2.765   0.380  15.628 -0.2864 -0.4502 -0.1354
13254TIP3    H161177   2.792   0.393  15.538 -0.7284  0.2050 -0.1765
13254TIP3    H261178   2.764   0.285  15.639  1.1905 -0.5242 -0.3724
13255TIP3   OH261179   3.417   2.053   4.333  0.1298 -0.3077 -0.0455
13255TIP3    H161180   3.393   2.143   4.312  0.0038 -0.2865  0.1832
13255TIP3    H261181   3.336   2.013   4.363  0.2145 -0.4584 -0.0165
13256TIP3   OH261182   1.957   4.484  14.568  0.3435 -0.4412 -0.0950
13256TIP3    H161183   1.988   4.493  14.658  0.0802  0.5381 -0.0964
13256TIP3    H261184   1.909   4.401  14.567 -1.3608  0.4917  1.1685
13257TIP3   OH261185   1.394   5.113   1.386 -0.7290  0.2577 -0.4898
13257TIP3    H161186   1.392   5.141   1.295 -1.0399  0.2054 -0.4980
13257TIP3    H261187   1.403   5.194   1.436  2.1301  0.1536 -0.6692
13258TIP3   OH261188   5.583   6.468   1.204  0.3188  0.3202 -0.1067
13258TIP3    H161189   5.665   6.430   1.237 -0.2899  0.6249  1.8450
13258TIP3    H261190   5.588   6.560   1.227  0.0332  0.6392 -1.2696
13259TIP3   OH261191   2.622   5.253  15.714 -0.0980  0.2555  0.3243
13259TIP3    H161192   2.660   5.219  15.633 -0.0295 -1.7437  1.1598
13259TIP3    H261193   2.561   5.321  15.684 -1.1560 -1.4102 -1.5189
13260TIP3   OH261194   5.491   4.686   1.737  0.0239  0.1604  0.3454
13260TIP3    H161195   5.483   4.634   1.658  0.1818 -0.0441  0.4630
13260TIP3    H261196   5.403   4.690   1.773  0.2766 -1.4688  1.2465
13261TIP3   OH261197   1.369   5.395   4.191  0.0533 -0.4510 -0.2232
13261TIP3    H161198   1.454   5.377   4.233  1.3305 -1.6337 -3.0494
13261TIP3    H261199   1.305   5.354   4.249  1.5108 -0.5602  1.4020
13262TIP3   OH261200   6.193   0.804  11.436  0.4311  0.7297  0.1432
13262TIP3    H161201   6.242   0.849  11.368  0.4238 -0.0427 -0.3796
13262TIP3    H261202   6.260   0.774  11.497  0.4354  1.4428  0.5098
13263TIP3   OH261203   6.769   5.350   1.381  0.2289 -0.5863 -0.1555
13263TIP3    H161204   6.821   5.391   1.312  1.3964 -1.3715  0.2438
13263TIP3    H261205   6.719   5.422   1.420  0.9739  0.1667 -0.5820
13264TIP3   OH261206   5.607   6.112  12.216  1.2120 -0.8894  0.2060
13264TIP3    H161207   5.575   6.202  12.229 -0.2155 -1.0702 -1.5071
13264TIP3    H261208   5.701   6.122  12.204  1.2926  0.1913  1.5461
13265TIP3   OH261209   2.878   4.713  13.294  0.0269  0.2364 -0.2044
13265TIP3    H161210   2.898   4.791  13.243 -1.3192  0.0287 -1.1055
13265TIP3    H261211   2.963   4.679  13.321  0.6246  2.7094  1.3329
13266TIP3   OH261212   0.248   1.967  12.370  0.6261 -0.1296  0.7310
13266TIP3    H161213   0.258   1.914  12.290 -3.4995  0.1924 -0.2149
13266TIP3    H261214   0.246   1.902  12.441  1.1647 -0.7203  0.2211
13267TIP3   OH261215   3.695   4.341  13.188  0.1191 -0.3156  0.2434
13267TIP3    H161216   3.694   4.411  13.253 -1.1876  0.0474 -0.1486
13267TIP3    H261217   3.704   4.261  13.240 -1.3757 -0.0633  0.9308
13268TIP3   OH261218   2.121   5.733  10.849  0.0315 -0.1115 -0.5677
13268TIP3    H161219   2.087   5.697  10.767  0.7877  1.4311 -1.6031
13268TIP3    H261220   2.216   5.723  10.842  0.0883 -0.1827  0.2371
13269TIP3   OH261221   0.981   3.503  15.499  0.4833 -0.6751  0.5818
13269TIP3    H161222   1.053   3.539  15.550  1.4759 -0.8871 -0.6148
13269TIP3    H261223   0.978   3.411  15.524  1.0110 -0.7941  0.2253
13270TIP3   OH261224   4.788   4.873  16.960 -0.6611 -0.0020  0.0782
13270TIP3    H161225   4.834   4.886  16.877  3.7797  0.6795  2.3076
13270TIP3    H261226   4.779   4.778  16.968  1.7485 -0.3154 -0.0007
13271TIP3   OH261227   1.789   0.788   4.963 -0.5436 -0.4113 -0.0300
13271TIP3    H161228   1.822   0.844   5.033  0.9860 -0.1695 -0.8992
13271TIP3    H261229   1.705   0.756   4.995  0.9807 -1.9775  2.8595
13272TIP3   OH261230   5.462   1.685  15.802 -0.6397 -0.1311  0.6265
13272TIP3    H161231   5.426   1.771  15.820  1.7802  0.8458  1.1270
13272TIP3    H261232   5.385   1.627  15.798 -2.3455  2.0497 -0.0467
13273TIP3   OH261233   6.436   4.210  11.979  0.5482  0.5787  0.4977
13273TIP3    H161234   6.522   4.170  11.987  0.9491  1.1856 -0.5599
13273TIP3    H261235   6.412   4.199  11.886 -1.6569 -1.8234  1.2366
13274TIP3   OH261236   3.470   2.734  14.017  0.5731  0.2692  0.8082
13274TIP3    H161237   3.504   2.813  14.061  1.2701  1.2717 -1.3926
13274TIP3    H261238   3.548   2.693  13.979 -0.0620 -0.2537  0.0518
13275TIP3   OH261239   6.101   4.553   4.653  0.4232  0.3019 -0.7900
13275TIP3    H161240   6.091   4.639   4.694  3.9336  0.1525  0.7236
13275TIP3    H261241   6.048   4.495   4.706 -0.4691  1.2197 -0.6548
13276TIP3   OH261242   2.982   4.772   2.117  0.0194 -0.0624  0.1334
13276TIP3    H161243   2.914   4.811   2.172  0.2944 -1.1281  1.2674
13276TIP3    H261244   2.947   4.778   2.028 -0.2816  1.9991  0.3485
13277TIP3   OH261245   4.527   3.371   6.403 -0.3821  0.2172  0.1118
13277TIP3    H161246   4.439   3.408   6.400 -0.7083 -0.5820 -0.2248
13277TIP3    H261247   4.582   3.440   6.366 -0.8692  0.6965  0.2631
13278TIP3   OH261248   6.586   4.018  16.271 -0.0948  0.2052 -0.2053
13278TIP3    H161249   6.575   4.102  16.315 -0.5641  0.0804 -0.0690
13278TIP3    H261250   6.589   3.954  16.342 -0.0216  0.0813 -0.3208
13279TIP3   OH261251   1.678   6.414  11.561 -0.4583  0.2289 -0.1685
13279TIP3    H161252   1.756   6.458  11.597  0.4264 -1.0411 -0.4911
13279TIP3    H261253   1.638   6.480  11.504  1.3451  0.3659 -1.3528
13280TIP3   OH261254   3.946   4.857   1.831  0.3506  0.1178  0.4447
13280TIP3    H161255   3.919   4.769   1.804 -2.4171  0.6627  1.1729
13280TIP3    H261256   3.934   4.858   1.926 -1.7804  1.8659  0.2434
13281TIP3   OH261257   5.234   4.113   3.973  0.8142  0.4589 -0.4020
13281TIP3    H161258   5.304   4.177   3.990  0.9367  0.6240 -1.4523
13281TIP3    H261259   5.272   4.052   3.910  0.2313  0.1609 -0.4702
13282TIP3   OH261260   0.919   4.674   1.139  0.2298  0.1606 -0.7731
13282TIP3    H161261   0.933   4.750   1.196  0.7673  0.7264 -1.6250
13282TIP3    H261262   0.826   4.676   1.118  0.2154  0.5095 -0.6792
13283TIP3   OH261263   5.857   1.850   1.592  0.3229  0.1008 -0.3261
13283TIP3    H161264   5.946   1.842   1.627 -0.1211 -1.0552  0.6077
13283TIP3    H261265   5.801   1.821   1.664 -0.8498  1.2329 -0.7502
13284TIP3   OH261266   6.602   1.683  15.833 -0.1307 -0.1274 -0.1524
13284TIP3    H161267   6.661   1.730  15.892  1.3732 -1.6794 -0.3013
13284TIP3    H261268   6.648   1.682  15.749 -0.6850 -0.7594 -0.4612
13285TIP3   OH261269   4.556   3.210  14.386  0.3981  0.0990  0.6425
13285TIP3    H161270   4.595   3.217  14.298  3.3583  0.5150  1.8818
13285TIP3    H261271   4.512   3.125  14.385 -0.5508  0.5211 -1.5126
13286TIP3   OH261272   6.228   5.440  14.885  0.5108  0.1053  0.3992
13286TIP3    H161273   6.160   5.507  14.880  0.5864  0.1261 -0.4633
13286TIP3    H261274   6.284   5.469  14.957 -0.0971  0.3576  0.7807
13287TIP3   OH261275   6.009   0.234   5.442  0.1426 -0.4463 -0.6257
13287TIP3    H161276   5.929   0.231   5.495  0.4825 -0.6315 -0.1127
13287TIP3    H261277   5.981   0.273   5.359 -0.6349 -1.1826 -0.7262
13288TIP3   OH261278   3.914   0.958  14.962  0.0598 -0.1526 -0.1155
13288TIP3    H161279   3.913   0.999  14.876 -1.0882  1.3154  0.5499
13288TIP3    H261280   3.895   0.865  14.945  0.3193  0.0163 -1.4572
13289TIP3   OH261281   4.214   5.333   0.016  0.4750  0.1263 -0.3603
13289TIP3    H161282   4.244   5.424   0.008 -0.1019  0.2965 -0.6374
13289TIP3    H261283   4.202   5.304  -0.075  1.6983 -0.5880 -0.3169
13290TIP3   OH261284   1.245   1.449   1.243  0.4295  0.2843  0.3210
13290TIP3    H161285   1.319   1.506   1.223 -0.4156  0.5112 -2.6109
13290TIP3    H261286   1.171   1.509   1.255 -0.0446 -0.0758 -0.7097
13291TIP3   OH261287   3.669   1.900  13.950 -0.6717  0.4277  0.3103
13291TIP3    H161288   3.740   1.849  13.989  1.1675  1.9735 -0.8128
13291TIP3    H261289   3.627   1.839  13.889 -0.2010 -0.4850  0.8805
13292TIP3   OH261290   3.927   0.055  15.133  0.4375  0.2061 -0.1529
13292TIP3    H161291   3.906   0.147  15.147  1.6488  0.6436 -1.1237
13292TIP3    H261292   3.985   0.033  15.206  0.2697  0.2414 -0.0058
13293TIP3   OH261293   5.639   6.745  16.011 -0.1992  0.0091  0.2472
13293TIP3    H161294   5.714   6.772  16.064  0.1156  0.6383 -0.4907
13293TIP3    H261295   5.668   6.757  15.921 -0.6979 -1.1121 -0.0839
13294TIP3   OH261296   3.553   6.312  17.223  0.2804 -0.2283  0.4929
13294TIP3    H161297   3.644   6.315  17.192  0.2165 -0.5064  0.2878
13294TIP3    H261298   3.514   6.394  17.191 -0.2186 -1.1740 -1.4612
13295TIP3   OH261299   1.846   2.013  10.983  0.1284 -0.0109  0.2640
13295TIP3    H161300   1.806   2.098  10.963 -0.9299 -0.8080 -1.2199
13295TIP3    H261301   1.930   2.015  10.937  0.4288  0.5060  0.8320
13296TIP3   OH261302   2.477   1.334   1.412  0.1480  0.8627  0.3584
13296TIP3    H161303   2.547   1.369   1.467  0.1994  0.9695  0.2282
13296TIP3    H261304   2.401   1.330   1.469  1.1357 -3.0116  1.7021
13297TIP3   OH261305   6.760   4.461  11.592 -0.3441 -0.1311 -0.2273
13297TIP3    H161306   6.712   4.389  11.551  0.0468 -0.1309 -0.7027
13297TIP3    H261307   6.739   4.537  11.539 -2.2143  0.5235  1.3429
13298TIP3   OH261308   2.660   5.143  15.425  0.5769  0.0392 -0.2114
13298TIP3    H161309   2.681   5.049  15.426  2.0015  0.3227  1.2589
13298TIP3    H261310   2.734   5.182  15.378  1.1652  0.6216  1.1504
13299TIP3   OH261311   3.500   4.886   4.119  0.4963 -0.2501 -0.2149
13299TIP3    H161312   3.500   4.928   4.205  0.6042  0.4971 -0.5738
13299TIP3    H261313   3.516   4.794   4.138 -0.2247 -0.2214  0.6250
13300TIP3   OH261314   5.302   1.164  13.055  0.2649 -1.0221 -0.2895
13300TIP3    H161315   5.324   1.124  13.140  2.7348  0.4252 -0.1617
13300TIP3    H261316   5.386   1.194  13.020 -0.8945 -0.1998 -2.5641
13301TIP3   OH261317   0.224   4.756   1.613 -0.5378 -0.5238 -0.0270
13301TIP3    H161318   0.199   4.832   1.667 -0.9202 -0.1916 -0.6626
13301TIP3    H261319   0.178   4.682   1.653 -0.4217 -0.3681  0.4032
13302TIP3   OH261320   5.520   1.300   1.404  0.4858 -0.4889  0.4919
13302TIP3    H161321   5.464   1.351   1.464 -0.2449 -1.5310  0.7180
13302TIP3    H261322   5.493   1.210   1.417  0.7131 -0.7985 -1.0100
13303TIP3   OH261323   5.206   3.950  14.982  0.6160 -0.0691 -0.0463
13303TIP3    H161324   5.221   4.033  14.938 -0.1330  0.9028  1.4482
13303TIP3    H261325   5.249   3.961  15.067  0.5020 -1.2212  0.1730
13304TIP3   OH261326   3.488   0.753   1.452 -0.9980 -0.4169  0.1336
13304TIP3    H161327   3.582   0.759   1.434 -1.2405 -0.7495 -1.4170
13304TIP3    H261328   3.473   0.815   1.523  0.3283 -0.0613  0.1270
13305TIP3   OH261329   6.045   5.604  15.172 -0.0317  0.4997  0.4675
13305TIP3    H161330   5.969   5.597  15.230  0.4481  1.9710  1.3424
13305TIP3    H261331   6.086   5.517  15.175  0.8046  0.8683  3.5671
13306TIP3   OH261332   0.992   1.221   3.411 -0.2205 -0.1418  0.5677
13306TIP3    H161333   0.911   1.261   3.442 -0.6084  0.5760 -1.2135
13306TIP3    H261334   0.969   1.129   3.397 -0.8034  0.0923 -0.0901
13307TIP3   OH261335   0.893   3.089  16.549 -0.0401  0.1876  0.1102
13307TIP3    H161336   0.967   3.144  16.522  1.0306 -0.5520  1.3725
13307TIP3    H261337   0.885   3.107  16.643 -0.0451 -1.3549  0.4212
13308TIP3   OH261338   4.588   6.636   5.068 -0.2326  0.4166  0.0074
13308TIP3    H161339   4.533   6.676   5.000 -0.5063  0.7793  0.4374
13308TIP3    H261340   4.582   6.697   5.142 -1.4355 -0.8897  1.0305
13309TIP3   OH261341   3.492   0.294   0.519  0.3350  0.3603 -0.2067
13309TIP3    H161342   3.544   0.306   0.599 -1.1679  3.3758  0.4640
13309TIP3    H261343   3.404   0.322   0.543  0.0239  2.3017 -3.1032
13310TIP3   OH261344   4.808   6.709  13.421  0.1879 -0.1968  0.1473
13310TIP3    H161345   4.763   6.674  13.497  2.1304 -1.0798  0.9513
13310TIP3    H261346   4.901   6.700  13.441  0.7649  0.9735 -1.6894
13311TIP3   OH261347   6.671   5.977  15.473 -0.7600 -0.3875 -0.0593
13311TIP3    H161348   6.656   5.994  15.566 -0.4599 -1.4602  0.2029
13311TIP3    H261349   6.584   5.985  15.433 -1.5034 -2.9296  0.8480
13312TIP3   OH261350   3.374   3.534   3.563 -0.1946  0.3395  0.4973
13312TIP3    H161351   3.355   3.625   3.541 -0.6281 -0.3789 -2.4449
13312TIP3    H261352   3.468   3.526   3.554 -0.3611  0.0645 -1.3103
13313TIP3   OH261353   1.344   5.430  17.108  0.9282 -0.3832 -0.3153
13313TIP3    H161354   1.308   5.379  17.180 -0.5258 -0.7418 -1.2521
13313TIP3    H261355   1.439   5.428  17.122  0.6823 -0.0221  1.8389
13314TIP3   OH261356   6.263   0.087   5.051  0.3691  0.2316  0.2540
13314TIP3    H161357   6.294   0.036   4.975 -1.6101 -1.8451  0.7453
13314TIP3    H261358   6.243   0.173   5.015  0.5071 -0.3736 -1.3643
13315TIP3   OH261359   5.499   2.970   1.506 -0.2857  1.0084 -0.4182
13315TIP3    H161360   5.406   2.970   1.481 -0.1962 -1.5835 -1.0312
13315TIP3    H261361   5.508   2.894   1.564  1.3219  1.6620  0.2422
13316TIP3   OH261362   2.492   0.508  14.363 -0.3655  0.2321 -0.5453
13316TIP3    H161363   2.438   0.430  14.353 -0.0852  0.0361 -0.5437
13316TIP3    H261364   2.454   0.555  14.437 -0.8806  0.3856 -0.9035
13317TIP3   OH261365   6.100   2.698   2.410  0.1097 -0.2197 -0.0985
13317TIP3    H161366   6.153   2.754   2.467 -2.0679  2.1733 -0.2521
13317TIP3    H261367   6.161   2.668   2.343  1.4386  1.8921  0.0696
13318TIP3   OH261368   3.688   5.904  16.515 -0.0242 -0.2903 -0.0825
13318TIP3    H161369   3.766   5.958  16.502 -0.0847 -0.2355 -0.2140
13318TIP3    H261370   3.683   5.849  16.437  1.1852 -1.9320  0.9234
13319TIP3   OH261371   4.324   2.676  13.517 -0.8396  0.2735  0.3217
13319TIP3    H161372   4.351   2.623  13.441  0.4920  1.3699 -0.0168
13319TIP3    H261373   4.309   2.612  13.586 -0.4164 -0.6396 -0.3978
13320TIP3   OH261374   4.664   1.738  15.102  0.1414  0.0870 -0.4147
13320TIP3    H161375   4.633   1.778  15.021  0.2756  0.5213 -0.2583
13320TIP3    H261376   4.747   1.782  15.120  1.2500 -1.5547 -1.2228
13321TIP3   OH261377   4.920   1.647  11.448 -0.0981  0.2143 -0.3652
13321TIP3    H161378   4.890   1.724  11.399  0.2290 -0.0520 -0.9975
13321TIP3    H261379   4.869   1.574  11.411  0.7916 -0.1271 -0.9460
13322TIP3   OH261380   3.581   4.406   3.189  0.1376 -0.2712 -0.8169
13322TIP3    H161381   3.568   4.324   3.235  0.1146 -1.8570 -3.4581
13322TIP3    H261382   3.506   4.460   3.214  0.7259 -0.5565  1.8184
13323TIP3   OH261383   1.121   4.251   4.268  0.8024  0.3781  0.3928
13323TIP3    H161384   1.107   4.341   4.298 -0.7191  1.1546 -2.3032
13323TIP3    H261385   1.040   4.205   4.290  1.6112 -0.4346  1.8528
13324TIP3   OH261386   4.912   2.195  16.212 -0.7839 -0.1187  0.1028
13324TIP3    H161387   4.939   2.179  16.302  0.8602 -0.9422 -0.4936
13324TIP3    H261388   4.888   2.288  16.210  2.2714  0.7967  0.7195
13325TIP3   OH261389   5.529   5.798   5.048  0.4162  0.1123  0.5070
13325TIP3    H161390   5.437   5.771   5.046  0.3493  0.3070  0.9867
13325TIP3    H261391   5.531   5.874   5.106  0.2243  2.6656 -2.5603
13326TIP3   OH261392   4.899   6.536  15.644  0.2163 -0.2823 -0.2411
13326TIP3    H161393   4.922   6.469  15.580 -1.3635 -0.9304 -0.1959
13326TIP3    H261394   4.966   6.604  15.634  0.9964 -1.1772 -1.3346
13327TIP3   OH261395   5.484   3.384  11.803 -0.2044  0.4092 -0.2186
13327TIP3    H161396   5.450   3.370  11.715 -0.3143  0.4613 -0.1846
13327TIP3    H261397   5.478   3.479  11.815  2.0513  0.7287 -1.0823
13328TIP3   OH261398   4.867   6.753   1.681  0.5958 -0.1656  0.2271
13328TIP3    H161399   4.827   6.838   1.699  0.9549  0.1099 -0.2450
13328TIP3    H261400   4.795   6.700   1.645  0.5823  0.2396 -0.3651
13329TIP3   OH261401   5.483   5.209  16.224 -0.4788  0.4660 -0.3921
13329TIP3    H161402   5.489   5.161  16.142  0.9199  1.0325 -0.6446
13329TIP3    H261403   5.530   5.155  16.288  1.2410  1.5288 -0.7122
13330TIP3   OH261404   3.178   4.018  12.717 -0.1880  0.1036  0.3668
13330TIP3    H161405   3.107   3.997  12.778 -0.4694  1.2855  0.4691
13330TIP3    H261406   3.199   3.934  12.675 -0.6052 -0.5471  1.4266
13331TIP3   OH261407   3.812   5.809  13.112 -0.0173  0.1924  0.0074
13331TIP3    H161408   3.890   5.852  13.148  0.4011  0.5004 -1.2090
13331TIP3    H261409   3.773   5.763  13.186  0.5402  1.1838  0.9514
13332TIP3   OH261410   3.567   4.602   6.438 -0.5721 -0.1464 -0.8585
13332TIP3    H161411   3.631   4.549   6.487 -0.3161  1.2697  0.3910
13332TIP3    H261412   3.531   4.541   6.373  1.0536 -1.3519 -0.7006
13333TIP3   OH261413   2.531   2.569   2.981 -0.3822 -0.2199  0.4837
13333TIP3    H161414   2.464   2.520   2.933 -1.8215  2.4437 -0.4213
13333TIP3    H261415   2.528   2.533   3.070 -1.7657 -1.3482  0.0128
13334TIP3   OH261416   2.863   0.160  13.640 -0.1105  0.1642 -0.1667
13334TIP3    H161417   2.799   0.225  13.667 -0.1651  0.8237 -1.8148
13334TIP3    H261418   2.820   0.076  13.658 -0.9429  0.5867 -0.1273
13335TIP3   OH261419   0.545   6.449  13.478  0.1290  0.5851  0.0710
13335TIP3    H161420   0.587   6.373  13.517  0.3576  0.6443 -0.0621
13335TIP3    H261421   0.531   6.509  13.551  2.9862  1.8559 -0.2965
13336TIP3   OH261422   1.741   1.507   5.951  0.8253 -0.4482  0.3583
13336TIP3    H161423   1.687   1.537   6.024 -0.0587  3.7179 -1.6978
13336TIP3    H261424   1.706   1.420   5.929 -2.4726  0.4283  1.5845
13337TIP3   OH261425   3.503   1.970   2.788  0.8298  0.0626 -0.8277
13337TIP3    H161426   3.440   2.037   2.762  1.2229  0.4331 -0.8381
13337TIP3    H261427   3.450   1.892   2.806  0.4147  0.2405 -1.2665
13338TIP3   OH261428   4.249   0.494   1.346 -0.4343 -0.4228 -0.3049
13338TIP3    H161429   4.328   0.525   1.301 -0.8758  1.2375 -0.0268
13338TIP3    H261430   4.242   0.551   1.423 -2.4377  0.1616 -0.8555
13339TIP3   OH261431   5.413   4.074  13.330 -0.1500 -0.2265  0.0764
13339TIP3    H161432   5.499   4.033  13.336  0.9251  1.9549  0.4235
13339TIP3    H261433   5.355   4.014  13.378  1.3531 -1.2260  0.7204
13340TIP3   OH261434   1.393   3.216   3.951 -1.0549  0.3038  0.7148
13340TIP3    H161435   1.409   3.208   4.045 -1.6633  0.6008  0.8436
13340TIP3    H261436   1.438   3.296   3.926  1.3001 -1.0492  0.2482
13341TIP3   OH261437   5.957   0.936   5.297  0.0461  0.0660  0.2495
13341TIP3    H161438   5.901   0.887   5.357  1.3714 -1.9102 -0.0408
13341TIP3    H261439   5.951   0.888   5.214 -0.0330  1.4920 -0.6181
13342TIP3   OH261440   0.312   6.505  17.108 -0.0321  0.0973  0.6335
13342TIP3    H161441   0.276   6.421  17.134 -1.0441  0.5154  0.6386
13342TIP3    H261442   0.338   6.546  17.190  1.1147 -0.4771  0.5781
13343TIP3   OH261443   0.356   1.072  15.991  0.2567  0.0735  0.3473
13343TIP3    H161444   0.342   0.977  15.997 -0.2218  0.2272  2.0152
13343TIP3    H261445   0.318   1.096  15.906 -0.6251 -1.0469  0.4030
13344TIP3   OH261446   3.090   6.190  11.525  0.2436 -0.3990  0.9499
13344TIP3    H161447   3.078   6.122  11.592 -1.6377 -1.2309 -0.1472
13344TIP3    H261448   3.032   6.163  11.454  1.3036  1.0887 -0.5395
13345TIP3   OH261449   4.689   5.724  15.088  0.1809 -0.3501  0.7304
13345TIP3    H161450   4.597   5.722  15.063  0.2573  1.3173  0.1655
13345TIP3    H261451   4.701   5.810  15.128  2.0003  0.5829 -1.5320
13346TIP3   OH261452   1.895   0.541   2.677  0.1522  0.4493 -0.1713
13346TIP3    H161453   1.941   0.468   2.718 -1.7686 -0.7822 -0.0634
13346TIP3    H261454   1.954   0.616   2.688  2.0874 -1.0063 -0.0708
13347TIP3   OH261455   5.173   1.510   3.683 -0.4455 -0.4545 -0.1496
13347TIP3    H161456   5.096   1.559   3.713  0.1467 -0.0554  0.8046
13347TIP3    H261457   5.150   1.418   3.696 -0.8788 -0.3519 -0.1725
13348TIP3   OH261458   0.171   5.958  15.450 -0.5585 -0.0367  1.0883
13348TIP3    H161459   0.186   5.953  15.356  2.1067 -0.3275  1.4577
13348TIP3    H261460   0.078   5.937  15.461 -2.3059  4.5773 -1.8396
13349TIP3   OH261461   1.109   0.075  14.677  0.0403  0.5282  0.0509
13349TIP3    H161462   1.090   0.169  14.670 -1.7237  0.3424  1.5876
13349TIP3    H261463   1.194   0.065  14.635  1.6137  3.3024  2.2434
13350TIP3   OH261464   6.511   6.636   1.781 -0.0622 -0.2586 -0.2779
13350TIP3    H161465   6.570   6.689   1.835  0.3029 -2.7027  1.9147
13350TIP3    H261466   6.426   6.645   1.823  0.3394 -2.6405  1.2296
13351TIP3   OH261467   1.505   5.928   2.176 -0.0741  0.6228 -0.2693
13351TIP3    H161468   1.471   5.842   2.149  0.7357  0.2314 -0.0536
13351TIP3    H261469   1.428   5.976   2.207 -0.1890 -0.9466  2.1100
13352TIP3   OH261470   0.675   0.948  17.165 -0.0420  0.4414 -0.5118
13352TIP3    H161471   0.586   0.913  17.167  0.9440 -2.2573 -0.4065
13352TIP3    H261472   0.716   0.905  17.090  1.3096  1.3001 -0.2909
13353TIP3   OH261473   1.416   4.306  13.033  0.2722  0.1195 -0.1373
13353TIP3    H161474   1.502   4.270  13.053  0.1579  0.8313  1.8705
13353TIP3    H261475   1.433   4.370  12.964  0.7738 -2.1507 -2.2689
13354TIP3   OH261476   5.772   1.308   1.009 -0.0428 -0.0331  0.1898
13354TIP3    H161477   5.862   1.282   1.031 -0.2535 -1.0046 -0.0647
13354TIP3    H261478   5.738   1.236   0.956 -1.1556  0.0741  0.7212
13355TIP3   OH261479   4.734   5.540   5.231 -0.4714  0.0707 -0.4836
13355TIP3    H161480   4.776   5.559   5.147 -0.7951 -0.3111 -0.7340
13355TIP3    H261481   4.640   5.537   5.211 -0.5258 -0.3533 -0.1728
13356TIP3   OH261482   4.248   6.532   0.781 -0.3807  0.2402 -0.0317
13356TIP3    H161483   4.301   6.608   0.758  0.0071 -0.0729 -0.1873
13356TIP3    H261484   4.197   6.560   0.857  0.4978  0.3437  0.5484
13357TIP3   OH261485   5.300   5.770  16.000 -0.0654 -0.1977  0.1117
13357TIP3    H161486   5.336   5.682  16.008 -0.4849 -0.4589 -0.7492
13357TIP3    H261487   5.214   5.757  15.961 -0.4229  0.5461  0.6407
13358TIP3   OH261488   3.031   3.281   1.182 -0.1530  0.1894  0.7999
13358TIP3    H161489   3.044   3.244   1.270  0.4021  0.4922  0.8527
13358TIP3    H261490   3.097   3.237   1.128 -0.9119 -0.4646  0.3839
13359TIP3   OH261491   1.944   0.458   0.656 -0.5914  0.5778 -0.3841
13359TIP3    H161492   1.896   0.438   0.736 -1.1507  0.1766 -0.8075
13359TIP3    H261493   1.879   0.448   0.586 -0.1934  1.2298 -0.8607
13360TIP3   OH261494   4.089   2.132  15.597  0.0709  0.2203 -0.4867
13360TIP3    H161495   4.068   2.212  15.646  0.8692  0.2682 -0.1992
13360TIP3    H261496   4.075   2.061  15.660  0.5804  0.2402 -0.3446
13361TIP3   OH261497   4.468   4.724  14.195 -0.6556 -0.6450 -0.0435
13361TIP3    H161498   4.423   4.640  14.183 -1.4232 -0.2336 -0.1546
13361TIP3    H261499   4.524   4.733  14.118 -1.5173 -0.4968 -0.6790
13362TIP3   OH261500   4.367   5.465   1.947  0.1807  0.4888 -0.1754
13362TIP3    H161501   4.306   5.421   1.888  0.5825 -0.1710 -0.1164
13362TIP3    H261502   4.450   5.419   1.934 -0.1577 -0.9945  2.2822
13363TIP3   OH261503   3.601   4.890   3.532  0.5114 -0.4547  0.3948
13363TIP3    H161504   3.578   4.969   3.581  0.4027 -0.6753  0.7030
13363TIP3    H261505   3.617   4.824   3.599  0.0494 -0.8440  0.1270
13364TIP3   OH261506   5.659   6.042   3.234 -0.2403 -0.5016 -0.0722
13364TIP3    H161507   5.581   5.996   3.203 -0.2895 -0.4535 -0.0206
13364TIP3    H261508   5.650   6.131   3.200 -0.9955 -0.0476  1.2089
13365TIP3   OH261509   0.968   3.603  16.842 -0.0299 -0.1134 -0.0390
13365TIP3    H161510   0.952   3.674  16.779 -0.6254  0.0201  0.2599
13365TIP3    H261511   1.017   3.645  16.913 -1.9014  0.4284  0.9820
13366TIP3   OH261512   0.701   5.030  10.953 -0.0751  0.2835  0.3029
13366TIP3    H161513   0.755   5.108  10.941 -1.3364  0.9650 -1.3310
13366TIP3    H261514   0.713   4.980  10.872  0.5623 -1.1586  1.2438
13367TIP3   OH261515   5.915   3.122   3.133 -0.0688 -0.7372 -0.4732
13367TIP3    H161516   5.991   3.172   3.163 -0.0938 -0.6799 -0.5042
13367TIP3    H261517   5.915   3.043   3.187 -0.1302 -0.6220 -0.3000
13368TIP3   OH261518   2.767   6.106  16.944 -0.1010  0.3427 -0.5959
13368TIP3    H161519   2.825   6.145  17.010  0.4441 -0.6596 -0.4574
13368TIP3    H261520   2.681   6.144  16.962 -0.0195 -0.1097  0.8640
13369TIP3   OH261521   3.979   6.596  16.153  0.0466 -0.2978  0.2998
13369TIP3    H161522   4.004   6.688  16.156  1.3415 -0.5339 -1.5042
13369TIP3    H261523   3.915   6.591  16.083  0.9031 -0.9280 -0.4685
13370TIP3   OH261524   3.147   5.012  16.244 -0.7718 -0.1479  0.4554
13370TIP3    H161525   3.160   5.101  16.210  0.6103 -0.9836 -1.3869
13370TIP3    H261526   3.112   4.963  16.169  0.5992 -1.6419  0.7510
13371TIP3   OH261527   6.253   2.142  11.303  0.4791  0.0516 -0.6159
13371TIP3    H161528   6.322   2.075  11.300  1.3956  0.9836 -0.6740
13371TIP3    H261529   6.298   2.224  11.288 -0.6986  0.6623 -0.9482
13372TIP3   OH261530   0.720   2.956   5.041  0.0348 -0.3446  0.1160
13372TIP3    H161531   0.812   2.931   5.045  0.9955  2.7757  0.4642
13372TIP3    H261532   0.676   2.897   5.103  1.8576 -1.6089  0.2653
13373TIP3   OH261533   0.831   0.092   4.117 -0.2376 -0.5998 -0.0758
13373TIP3    H161534   0.737   0.076   4.117 -0.2122 -0.8222 -0.9970
13373TIP3    H261535   0.856   0.089   4.025  0.8981 -1.9122  0.2365
13374TIP3   OH261536   0.702   1.688   6.185 -0.1808  0.1748  0.3313
13374TIP3    H161537   0.652   1.711   6.107 -0.9354  0.6795  0.9470
13374TIP3    H261538   0.647   1.715   6.258  1.3288  1.5110  1.0447
13375TIP3   OH261539   2.753   0.407   4.988  0.2837  0.6011  0.3899
13375TIP3    H161540   2.737   0.320   4.951  1.3611 -0.0158  1.3087
13375TIP3    H261541   2.706   0.467   4.930  0.0219 -0.5368 -0.6125
13376TIP3   OH261542   1.886   1.179   5.158 -0.1041  0.4236  0.2552
13376TIP3    H161543   1.891   1.258   5.212 -0.4303  0.6940 -0.1018
13376TIP3    H261544   1.971   1.137   5.169 -0.6012 -0.1895  1.9726
13377TIP3   OH261545   6.543   0.081  17.177  0.1596 -0.0032 -0.1853
13377TIP3    H161546   6.554   0.083  17.272  0.4024 -0.6375 -0.1920
13377TIP3    H261547   6.583   0.162  17.146 -1.5257  1.1030  0.3956
13378TIP3   OH261548   0.973   4.109  13.871 -0.6062 -0.4140 -0.0223
13378TIP3    H161549   0.895   4.149  13.909 -1.7452 -2.2496 -0.2621
13378TIP3    H261550   0.938   4.048  13.806  1.0478 -1.1912 -0.2288
13379TIP3   OH261551   2.272   3.931  13.585  0.3562 -0.0999 -0.4201
13379TIP3    H161552   2.299   3.903  13.672 -1.2151 -1.3340 -0.2910
13379TIP3    H261553   2.220   4.010  13.599 -1.7102 -1.4717  0.0378
13380TIP3   OH261554   2.095   2.014   0.752 -0.8777  0.6059  1.0268
13380TIP3    H161555   2.005   1.980   0.753 -0.7676  0.3174  1.8760
13380TIP3    H261556   2.087   2.105   0.779 -1.0845  1.0782 -0.5011
13381TIP3   OH261557   3.505   3.351  13.784  0.3700 -0.0042  0.1187
13381TIP3    H161558   3.565   3.318  13.851  0.7279  1.3459  0.5105
13381TIP3    H261559   3.420   3.357  13.828  0.2410 -0.6361 -0.0354
13382TIP3   OH261560   1.366   2.941  14.095 -0.5164 -0.3865  0.8386
13382TIP3    H161561   1.430   2.878  14.129 -0.3430  0.8346  2.9902
13382TIP3    H261562   1.315   2.967  14.172 -2.9611 -0.5494 -0.6326
13383TIP3   OH261563   3.781   2.635  15.430  0.4091  0.0844 -0.3028
13383TIP3    H161564   3.792   2.581  15.352  0.2711 -0.6694  0.1858
13383TIP3    H261565   3.841   2.597  15.494 -2.6972 -2.3075  1.4903
13384TIP3   OH261566   5.500   1.563  14.789 -0.1714 -0.1138  0.5370
13384TIP3    H161567   5.439   1.542  14.860  1.2147  2.3358  2.6126
13384TIP3    H261568   5.495   1.658  14.780  0.7482 -0.2141 -1.7139
13385TIP3   OH261569   6.770   3.187  13.579  0.5038  0.7381 -0.7263
13385TIP3    H161570   6.864   3.207  13.581  0.7860 -0.5556  0.2880
13385TIP3    H261571   6.738   3.212  13.666  0.4436 -1.0895 -0.1726
13386TIP3   OH261572   1.749   4.853  15.107  0.0921  0.4359 -0.1779
13386TIP3    H161573   1.672   4.893  15.146 -1.0841 -0.7185 -1.1960
13386TIP3    H261574   1.714   4.796  15.038  1.5429 -2.8582  1.5638
13387TIP3   OH261575   4.015   1.816   4.299 -0.6104  0.1946  0.1755
13387TIP3    H161576   4.087   1.794   4.358  2.2396  3.3576 -1.7379
13387TIP3    H261577   4.011   1.742   4.238 -0.0227 -0.7074  1.1878
13388TIP3   OH261578   4.275   2.737  14.444  0.0102 -0.2241 -0.4697
13388TIP3    H161579   4.325   2.792  14.384 -0.6884 -1.9307 -2.7717
13388TIP3    H261580   4.320   2.653  14.442  0.3137 -0.1762  1.9641
13389TIP3   OH261581   1.636   6.253  12.043 -0.4503 -0.2331  0.5168
13389TIP3    H161582   1.550   6.212  12.053  0.2552 -1.6911  0.8655
13389TIP3    H261583   1.693   6.182  12.014  0.2309  1.1289 -1.7463
13390TIP3   OH261584   3.593   2.011  11.052  0.4249  0.5091 -0.2142
13390TIP3    H161585   3.686   2.012  11.030  0.4869 -1.3987 -0.1816
13390TIP3    H261586   3.587   2.054  11.137  0.7552  3.9252 -1.7265
13391TIP3   OH261587   1.146   0.256   0.843  0.0648  0.0101  0.0401
13391TIP3    H161588   1.084   0.253   0.915  0.3976  0.1152  0.3356
13391TIP3    H261589   1.146   0.167   0.808 -0.7016  0.1591 -0.3554
13392TIP3   OH261590   1.143   3.972   6.363 -0.6430 -0.0069 -0.1657
13392TIP3    H161591   1.062   4.024   6.367 -0.7258  0.2889 -3.1413
13392TIP3    H261592   1.114   3.881   6.374 -1.6520 -0.0159 -2.2540
13393TIP3   OH261593   0.982   5.164  13.785  0.0059 -0.5928 -0.1171
13393TIP3    H161594   0.897   5.188  13.748  0.8938  1.8720 -0.7740
13393TIP3    H261595   1.045   5.193  13.719  1.3955 -2.6191  0.2234
13394TIP3   OH261596   4.304   6.627   1.060 -0.1652  0.1854  0.1640
13394TIP3    H161597   4.284   6.603   1.150 -0.4819 -0.6988 -0.1261
13394TIP3    H261598   4.372   6.565   1.034 -1.5597 -1.0177 -0.8599
13395TIP3   OH261599   5.124   0.797   5.907 -0.3409 -0.5433  0.2057
13395TIP3    H161600   5.045   0.749   5.929  0.4584 -1.5250  1.0322
13395TIP3    H261601   5.125   0.871   5.968 -1.1488  0.0798 -0.5172
13396TIP3   OH261602   2.512   0.496   3.088 -0.0509 -0.2824  0.4781
13396TIP3    H161603   2.450   0.472   3.157 -0.8947  0.3213 -0.0608
13396TIP3    H261604   2.514   0.419   3.030  1.4418 -1.2192  1.6722
13397TIP3   OH261605   4.983   5.649  16.826  0.5014  0.0188  0.2925
13397TIP3    H161606   5.038   5.570  16.829  1.0378  0.3763 -0.0169
13397TIP3    H261607   4.965   5.662  16.733 -1.8686 -1.2860  0.4951
13398TIP3   OH261608   4.970   0.474  13.369  0.0998  0.3730  0.7730
13398TIP3    H161609   4.906   0.491  13.437  1.3074  0.3821  1.9434
13398TIP3    H261610   4.966   0.380  13.354 -1.2349  0.5607 -0.2761
13399TIP3   OH261611   2.367   3.883   5.697  0.0536 -0.0854 -0.3985
13399TIP3    H161612   2.279   3.912   5.722 -0.3160  0.1627 -1.8950
13399TIP3    H261613   2.353   3.823   5.623  1.1689  0.6659 -1.2612
13400TIP3   OH261614   5.784   4.768  12.953 -0.2142  0.3048 -0.0733
13400TIP3    H161615   5.783   4.833  12.883 -0.3282 -1.0441 -1.3598
13400TIP3    H261616   5.866   4.721  12.941 -0.8151 -0.7660 -0.1039
13401TIP3   OH261617   3.550   1.430   3.066  0.1460 -0.0042 -0.5289
13401TIP3    H161618   3.596   1.444   2.983  0.8178  1.3129  0.0364
13401TIP3    H261619   3.618   1.405   3.128 -0.3021 -0.6209 -0.2736
13402TIP3   OH261620   5.398   5.573  13.920 -0.3725 -0.3316 -0.2196
13402TIP3    H161621   5.494   5.572  13.913 -0.2935 -2.8251  0.2172
13402TIP3    H261622   5.382   5.563  14.014 -1.0972  1.2671 -0.1560
13403TIP3   OH261623   1.205   4.002  17.253 -0.5713 -0.3000  0.1171
13403TIP3    H161624   1.222   3.909  17.235  0.6210  0.0400 -0.6844
13403TIP3    H261625   1.204   4.009  17.349 -0.9632 -1.1774  0.1836
13404TIP3   OH261626   6.765   3.784  13.010  0.1175  0.1633 -0.4452
13404TIP3    H161627   6.820   3.742  12.944 -1.6063 -1.3725 -1.0028
13404TIP3    H261628   6.698   3.830  12.959 -1.6020 -1.5520  0.1588
13405TIP3   OH261629   3.848   0.968  11.805  0.2147 -0.3611  0.4091
13405TIP3    H161630   3.779   1.006  11.752 -0.2286 -0.5718  0.8220
13405TIP3    H261631   3.825   0.991  11.895  0.7676 -0.2977  0.5400
13406TIP3   OH261632   4.137   2.769   4.761  0.2392  0.4623  0.8019
13406TIP3    H161633   4.060   2.730   4.803 -0.9808 -0.2486 -1.9093
13406TIP3    H261634   4.145   2.855   4.803 -0.1441 -0.6162  3.2518
13407TIP3   OH261635   4.717   3.580  11.065 -0.3248  0.4442  0.3882
13407TIP3    H161636   4.638   3.631  11.049  0.4336  1.5547  0.0279
13407TIP3    H261637   4.788   3.644  11.060  0.4474 -0.1118  2.7458
13408TIP3   OH261638   4.145   5.898  16.321 -0.9023  0.4693 -0.0817
13408TIP3    H161639   4.215   5.833  16.324  1.4648  2.8785  0.9879
13408TIP3    H261640   4.080   5.865  16.383  0.8735 -0.2544  1.5124
13409TIP3   OH261641   6.773   0.452  12.188  0.1436  0.1588  0.1390
13409TIP3    H161642   6.785   0.373  12.137 -0.6893 -0.4709  0.8796
13409TIP3    H261643   6.854   0.502  12.176  1.0626 -1.2264  0.4028
13410TIP3   OH261644   5.235   0.557  16.562 -0.3503 -0.0262  0.5174
13410TIP3    H161645   5.288   0.626  16.523 -1.3829  0.0322 -0.8503
13410TIP3    H261646   5.206   0.594  16.646 -0.1664  0.8520  0.2045
13411TIP3   OH261647   2.188   4.813  13.609  0.2585 -0.0050  0.8781
13411TIP3    H161648   2.167   4.804  13.702  0.1230  0.2160  0.8706
13411TIP3    H261649   2.252   4.883  13.605 -0.8876  1.0742  0.6664
13412TIP3   OH261650   3.736   2.517  14.246  0.0114 -0.2407 -0.7971
13412TIP3    H161651   3.640   2.522  14.246  0.0066 -0.2477 -0.3431
13412TIP3    H261652   3.761   2.547  14.334  0.4083 -0.5811 -0.7938
13413TIP3   OH261653   3.732   3.839   0.574 -0.2945 -0.5164  0.0634
13413TIP3    H161654   3.774   3.923   0.594 -0.3035 -0.4223 -0.3111
13413TIP3    H261655   3.772   3.777   0.635 -2.4621  0.3082  2.5613
13414TIP3   OH261656   1.537   0.434   3.667  0.4664  0.4264  0.2582
13414TIP3    H161657   1.587   0.423   3.586  0.0954 -0.1233  0.0999
13414TIP3    H261658   1.448   0.406   3.645  0.1648  1.0785  0.6292
13415TIP3   OH261659   5.190   0.550  13.220  0.7025 -0.3942 -0.0011
13415TIP3    H161660   5.127   0.540  13.292  0.6329  1.2658  0.1869
13415TIP3    H261661   5.137   0.578  13.145  1.0409 -0.3166 -0.2128
13416TIP3   OH261662   5.512   3.929   1.385 -0.0294 -0.1201  0.2052
13416TIP3    H161663   5.495   4.022   1.399  0.6245  0.2290 -1.1205
13416TIP3    H261664   5.425   3.890   1.373 -0.2461  0.5604 -0.5196
13417TIP3   OH261665   2.441   5.321   2.399 -0.0401 -0.4564  0.4504
13417TIP3    H161666   2.481   5.270   2.469 -2.8543 -0.4486  2.2438
13417TIP3    H261667   2.356   5.279   2.383 -0.2677  0.6531 -1.6823
13418TIP3   OH261668   5.491   5.799   3.942 -0.3117  0.7074 -0.7084
13418TIP3    H161669   5.437   5.816   4.020  0.1829  3.6726 -0.8760
13418TIP3    H261670   5.428   5.777   3.874 -1.1885  2.1084 -0.4080
13419TIP3   OH261671   3.906   5.787   2.283  0.0153  0.2122 -0.4059
13419TIP3    H161672   3.905   5.705   2.332  1.2148  0.6545  0.4143
13419TIP3    H261673   3.910   5.855   2.351 -1.6095  1.0042 -1.0454
13420TIP3   OH261674   1.884   5.024  14.948  0.3846 -0.5676  0.7686
13420TIP3    H161675   1.938   4.963  14.898  0.8120  0.6186 -0.2845
13420TIP3    H261676   1.818   4.969  14.990 -1.8911 -1.5110 -3.4111
13421TIP3   OH261677   5.220   0.180   0.164 -0.2768 -0.2082  0.3967
13421TIP3    H161678   5.175   0.247   0.216  0.8609  0.0326  1.1085
13421TIP3    H261679   5.301   0.222   0.137 -0.9989 -0.1948 -1.9621
13422TIP3   OH261680   6.420   1.446  11.557 -0.2634 -0.0496 -0.2880
13422TIP3    H161681   6.362   1.370  11.555  2.0062 -1.9103 -0.4987
13422TIP3    H261682   6.398   1.491  11.638 -1.5385 -1.0379 -0.0517
13423TIP3   OH261683   0.801   5.566   5.800  0.2030  0.1809  0.0137
13423TIP3    H161684   0.856   5.547   5.724  1.0543  0.7605  0.4655
13423TIP3    H261685   0.852   5.533   5.874 -0.7614 -0.6651  0.3200
13424TIP3   OH261686   4.211   0.934   5.635  0.0584  0.0799  0.5666
13424TIP3    H161687   4.277   1.003   5.631  1.2001 -0.9381  0.9905
13424TIP3    H261688   4.230   0.888   5.717 -0.9991 -0.4135  0.5444
13425TIP3   OH261689   1.115   3.551   1.731  0.0136 -0.3871  0.3490
13425TIP3    H161690   1.028   3.583   1.752 -0.6347 -1.1351 -1.0344
13425TIP3    H261691   1.116   3.460   1.762 -0.4084 -0.9966 -1.3082
13426TIP3   OH261692   2.202   4.380   6.224 -0.7928  0.1752  0.2198
13426TIP3    H161693   2.180   4.459   6.273 -1.8188  0.3691 -0.5174
13426TIP3    H261694   2.295   4.391   6.202 -0.7578  0.8628  0.6863
13427TIP3   OH261695   6.719   5.448  13.024  0.0168  0.4339 -0.3728
13427TIP3    H161696   6.724   5.353  13.034 -1.0456  0.4882  0.8033
13427TIP3    H261697   6.743   5.463  12.932  0.4061 -0.9412 -0.5190
13428TIP3   OH261698   1.419   5.819  16.058 -0.1058 -0.7430  0.3479
13428TIP3    H161699   1.407   5.724  16.049 -3.7963 -0.4805  0.8244
13428TIP3    H261700   1.356   5.857  15.997  1.1414  1.4366  0.3136
13429TIP3   OH261701   3.934   2.703   4.957 -0.3061  0.2201 -0.1175
13429TIP3    H161702   3.918   2.738   5.045 -0.1133  1.5428 -0.5886
13429TIP3    H261703   3.862   2.736   4.905  1.0932  1.9261 -1.0944
13430TIP3   OH261704   1.450   1.837   1.766 -0.4981 -0.5709 -0.1351
13430TIP3    H161705   1.488   1.872   1.846  0.8946 -0.2844 -0.8911
13430TIP3    H261706   1.457   1.742   1.774 -0.4686 -0.5449  0.1271
13431TIP3   OH261707   4.845   5.201  14.996 -0.0744  0.1482  0.1431
13431TIP3    H161708   4.808   5.284  14.966  1.3163  0.5063 -0.6649
13431TIP3    H261709   4.810   5.190  15.084 -0.5846  1.4053  0.1205
13432TIP3   OH261710   2.349   0.552   3.677 -0.2561 -0.2670 -0.3759
13432TIP3    H161711   2.293   0.475   3.672  0.6880 -0.9275 -1.2898
13432TIP3    H261712   2.310   0.615   3.617 -0.8952 -0.1181  0.1906
13433TIP3   OH261713   2.965   0.262   1.796  0.5811 -0.4292 -0.3318
13433TIP3    H161714   2.916   0.195   1.748  1.6219 -1.0812 -0.5297
13433TIP3    H261715   2.988   0.221   1.879 -0.0164  0.2056  0.1579
13434TIP3   OH261716   4.821   6.574   1.134 -0.1447  0.4702 -0.2594
13434TIP3    H161717   4.814   6.478   1.137  1.6065  0.3106  2.0676
13434TIP3    H261718   4.775   6.604   1.212 -2.2657  1.7454 -1.9104
13435TIP3   OH261719   2.128   6.152  15.796  0.2889 -0.5638 -0.8591
13435TIP3    H161720   2.050   6.208  15.802  0.8772  0.3553 -1.5045
13435TIP3    H261721   2.188   6.190  15.859  0.3636 -1.0408 -0.6391
13436TIP3   OH261722   6.664   2.893   4.332 -0.2058  0.2642  0.5310
13436TIP3    H161723   6.646   2.980   4.297 -0.2381  1.0352  2.3878
13436TIP3    H261724   6.746   2.903   4.381 -0.1933 -0.7581  0.7400
13437TIP3   OH261725   2.467   6.467  15.243  0.0822  0.3618 -0.4648
13437TIP3    H161726   2.469   6.382  15.200  1.0478  0.5165 -0.7628
13437TIP3    H261727   2.418   6.523  15.182  0.7218  0.3732 -0.9882
13438TIP3   OH261728   1.543   2.977  13.163  0.0844  0.1988 -0.3226
13438TIP3    H161729   1.588   2.915  13.106 -2.2624 -0.5696 -1.4698
13438TIP3    H261730   1.529   2.929  13.245  1.4500  0.5302  0.1417
13439TIP3   OH261731   6.104   5.223  13.245 -0.4660  0.5440  0.0824
13439TIP3    H161732   6.015   5.203  13.216 -0.0785 -0.1090 -0.6930
13439TIP3    H261733   6.160   5.165  13.193  0.4712  1.4289  0.0720
13440TIP3   OH261734   2.061   4.549   4.279 -0.3206  0.2482 -0.4624
13440TIP3    H161735   1.979   4.572   4.323  0.4941  0.8553  0.7818
13440TIP3    H261736   2.038   4.474   4.223 -1.4025 -0.4996  0.9311
13441TIP3   OH261737   0.769   6.039  15.943 -1.1290 -0.5092 -0.1244
13441TIP3    H161738   0.819   5.959  15.955 -1.5600 -0.5512  1.6951
13441TIP3    H261739   0.681   6.018  15.975 -1.3199  0.6049  0.1562
13442TIP3   OH261740   3.284   1.094  16.678 -0.4052  0.2409  0.4497
13442TIP3    H161741   3.269   1.162  16.612  0.1244  0.0357  0.1023
13442TIP3    H261742   3.373   1.064  16.661 -1.0848 -1.4996 -0.3056
13443TIP3   OH261743   5.222   2.749  11.244 -0.2341  0.1545 -0.0372
13443TIP3    H161744   5.265   2.768  11.161  0.7995 -0.6728  0.2825
13443TIP3    H261745   5.267   2.671  11.277 -0.9830  0.1555  1.0480
13444TIP3   OH261746   1.170   3.076   4.342 -0.6149 -0.2521  0.3576
13444TIP3    H161747   1.097   3.133   4.317 -1.1807 -0.1603  2.0948
13444TIP3    H261748   1.209   3.119   4.418  1.8076  0.1210 -1.0108
13445TIP3   OH261749   0.532   1.504   0.634 -0.5546  0.2027  0.4270
13445TIP3    H161750   0.608   1.533   0.583  1.9526 -3.1538  1.8511
13445TIP3    H261751   0.555   1.528   0.724 -0.5594 -1.8394  1.0213
13446TIP3   OH261752   2.144   2.160  13.690 -0.0698  0.1385 -0.2574
13446TIP3    H161753   2.233   2.159  13.655  0.3465  0.3220  0.7606
13446TIP3    H261754   2.154   2.187  13.781 -1.3225  1.6334 -0.5191
13447TIP3   OH261755   5.441   1.017   2.388 -0.1877  0.3208  0.2928
13447TIP3    H161756   5.525   1.063   2.395 -0.0914 -0.1094  2.6879
13447TIP3    H261757   5.432   0.998   2.295  2.3932  0.3520 -0.0308
13448TIP3   OH261758   2.501   1.375   2.787  0.2459 -0.0209  0.1475
13448TIP3    H161759   2.556   1.370   2.865 -0.6638 -1.6006  0.7170
13448TIP3    H261760   2.555   1.335   2.718  0.6259  0.3947  0.1953
13449TIP3   OH261761   1.406   3.890   4.237  0.1327  0.4517  0.2049
13449TIP3    H161762   1.334   3.891   4.299  0.6195 -1.0944  0.8638
13449TIP3    H261763   1.368   3.858   4.156  0.0410 -0.2445  0.5178
13450TIP3   OH261764   4.680   0.437   4.133 -0.2706 -0.1202  0.3203
13450TIP3    H161765   4.625   0.420   4.057 -1.1153 -0.0556  0.8975
13450TIP3    H261766   4.669   0.530   4.151 -1.8029 -0.5331  1.7874
13451TIP3   OH261767   6.474   3.150   2.449 -0.0002 -0.0863 -0.3838
13451TIP3    H161768   6.539   3.113   2.388 -0.5604 -0.1089 -0.9831
13451TIP3    H261769   6.524   3.205   2.508  0.4343  0.7287 -1.4952
13452TIP3   OH261770   6.201   0.182   5.618 -0.1817  0.3377 -0.3171
13452TIP3    H161771   6.168   0.233   5.691  2.2110  1.3759  0.1472
13452TIP3    H261772   6.145   0.207   5.544 -2.3766 -0.4292  1.0166
13453TIP3   OH261773   3.196   5.562  15.704 -0.6357  0.4466  0.3041
13453TIP3    H161774   3.283   5.525  15.714 -0.9061 -0.0660  0.7549
13453TIP3    H261775   3.203   5.651  15.740 -0.3563  0.3317  0.5343
13454TIP3   OH261776   2.399   2.396  15.502 -0.1236  0.3725 -0.2440
13454TIP3    H161777   2.398   2.341  15.424 -0.3154  2.1636 -1.5673
13454TIP3    H261778   2.490   2.396  15.531 -0.1523 -0.7386 -0.1102
13455TIP3   OH261779   2.686   4.627   3.530  0.0563  0.0795  0.4266
13455TIP3    H161780   2.758   4.607   3.590  1.0044  1.4228 -0.2052
13455TIP3    H261781   2.680   4.722   3.530 -1.2143  0.0308 -0.1540
13456TIP3   OH261782   4.953   4.612   5.222  0.4170 -0.0290  0.0871
13456TIP3    H161783   4.955   4.526   5.264 -1.0619  0.5822  1.5501
13456TIP3    H261784   5.042   4.645   5.228  1.2841 -1.9092 -1.5786
13457TIP3   OH261785   0.603   0.266   5.173  0.2240 -0.2247 -0.4212
13457TIP3    H161786   0.594   0.173   5.193  3.1035 -0.0808  2.3204
13457TIP3    H261787   0.545   0.310   5.235 -0.8102 -0.1422 -1.4260
13458TIP3   OH261788   5.452   2.882  16.760  0.6081 -0.2689  0.4217
13458TIP3    H161789   5.500   2.801  16.776  1.7809  0.4160  0.4643
13458TIP3    H261790   5.520   2.949  16.752 -0.3532  0.7708  0.7191
13459TIP3   OH261791   1.484   0.097  13.033 -0.2207 -0.1109 -0.3791
13459TIP3    H161792   1.462   0.004  13.025 -0.7992 -0.1481  1.2403
13459TIP3    H261793   1.468   0.133  12.946 -2.1779 -1.0973 -0.4767
13460TIP3   OH261794   5.962   5.151   2.418  0.6822 -0.2246 -0.2750
13460TIP3    H161795   5.887   5.210   2.412  0.0154 -1.0868 -0.4318
13460TIP3    H261796   5.966   5.125   2.510  1.8899  1.2117  0.1312
13461TIP3   OH261797   2.755   4.063  15.569  0.0328 -0.3044 -0.2922
13461TIP3    H161798   2.793   3.994  15.514 -2.8115 -1.9774 -0.3825
13461TIP3    H261799   2.720   4.127  15.507 -0.2169 -0.4832 -0.3386
13462TIP3   OH261800   6.740   2.261  11.351  0.0137 -0.6021 -0.4015
13462TIP3    H161801   6.777   2.201  11.286 -0.4865 -2.0427  0.5833
13462TIP3    H261802   6.795   2.250  11.429 -0.2797 -0.0145 -0.1013
13463TIP3   OH261803   1.067   5.980  11.627  0.0648  0.3021 -0.4728
13463TIP3    H161804   1.110   6.028  11.556  2.5504 -1.1492 -0.0530
13463TIP3    H261805   0.988   5.943  11.586 -0.6767  2.6991 -1.3942
13464TIP3   OH261806   3.534   2.832  14.824  0.3291 -0.5887 -0.3266
13464TIP3    H161807   3.546   2.860  14.734  0.9679 -0.0158 -0.0756
13464TIP3    H261808   3.441   2.848  14.843 -0.2748 -2.4671 -1.4459
13465TIP3   OH261809   6.037   3.390  11.770 -0.6298  0.3496  0.0817
13465TIP3    H161810   6.028   3.295  11.778  0.0104  0.0907 -1.7519
13465TIP3    H261811   6.049   3.420  11.860  1.1196 -1.5478  0.5725
13466TIP3   OH261812   4.800   6.572   5.386  0.0348 -0.4720  0.5509
13466TIP3    H161813   4.887   6.544   5.357  0.4782 -1.3045  2.5003
13466TIP3    H261814   4.749   6.491   5.392 -1.0373  0.0407 -0.9097
13467TIP3   OH261815   2.182   2.938  15.066 -0.2456 -0.1634 -0.1870
13467TIP3    H161816   2.088   2.924  15.056 -0.0672 -0.5630 -1.5329
13467TIP3    H261817   2.190   3.007  15.131 -1.5814  1.8540 -2.0242
13468TIP3   OH261818   5.237   1.780  12.808  0.0970  0.4620 -0.0671
13468TIP3    H161819   5.329   1.763  12.825  0.1389  1.1320  0.3996
13468TIP3    H261820   5.203   1.817  12.890 -0.3269  1.2295 -0.5709
13469TIP3   OH261821   2.822   4.671   1.610 -0.6863 -0.6692 -0.0352
13469TIP3    H161822   2.734   4.674   1.573 -0.4845  1.5494 -0.4764
13469TIP3    H261823   2.877   4.640   1.539 -0.8513 -0.2386 -0.3512
13470TIP3   OH261824   0.246   6.748  13.828 -0.3490  0.5621  0.0206
13470TIP3    H161825   0.244   6.725  13.921 -0.4300 -0.2986 -0.1944
13470TIP3    H261826   0.326   6.801  13.819  0.8157 -1.0848  0.1892
13471TIP3   OH261827   1.795   2.299  11.932 -0.4138  0.0361  0.5060
13471TIP3    H161828   1.881   2.328  11.902 -0.7815  1.8258  1.0325
13471TIP3    H261829   1.744   2.379  11.939 -1.1073 -0.5172  3.4159
13472TIP3   OH261830   6.602   2.537  15.962 -0.3141  0.1612 -0.3135
13472TIP3    H161831   6.688   2.544  15.920  1.4545 -1.1326  2.7550
13472TIP3    H261832   6.608   2.460  16.017 -2.5307  1.4726  1.9970
13473TIP3   OH261833   2.075   4.982  11.177  0.0207  0.1633  0.6429
13473TIP3    H161834   1.983   4.971  11.153  0.7633 -0.3123 -2.4245
13473TIP3    H261835   2.086   4.923  11.252 -1.8498 -0.9190  0.1619
13474TIP3   OH261836   6.596   2.636  14.935 -0.3205 -0.3727 -0.2826
13474TIP3    H161837   6.539   2.559  14.938  0.2268 -0.7582  0.4153
13474TIP3    H261838   6.577   2.677  14.851  2.3686 -3.5708 -2.6712
13475TIP3   OH261839   3.351   4.773  10.973 -0.0604  0.4641  0.0157
13475TIP3    H161840   3.367   4.754  11.066 -0.1970  0.7367  0.0970
13475TIP3    H261841   3.421   4.833  10.948  1.5472 -1.6595 -0.7743
13476TIP3   OH261842   4.383   5.491  11.311  0.7108  0.8405 -0.0192
13476TIP3    H161843   4.453   5.546  11.347  0.8907 -0.0440  1.0396
13476TIP3    H261844   4.415   5.463  11.226  1.0104  1.6115 -0.1711
13477TIP3   OH261845   4.389   4.158  13.439  0.7079 -0.4519  0.1158
13477TIP3    H161846   4.466   4.104  13.422  0.7537 -0.4165  0.2145
13477TIP3    H261847   4.339   4.109  13.504  1.1097 -0.0273  0.7548
13478TIP3   OH261848   0.843   1.486  16.099  0.4483  0.2719  0.1852
13478TIP3    H161849   0.769   1.430  16.123 -0.5641  0.3708 -2.3356
13478TIP3    H261850   0.913   1.460  16.159 -1.0605 -1.1452  1.4432
13479TIP3   OH261851   1.644   4.968   2.188 -0.5908 -0.9341  0.1952
13479TIP3    H161852   1.635   4.892   2.132 -1.0597 -1.0501  0.4180
13479TIP3    H261853   1.734   4.998   2.175 -1.2568  0.2975 -2.1997
13480TIP3   OH261854   3.106   4.370  12.362  0.0981 -0.2186 -0.4451
13480TIP3    H161855   3.150   4.441  12.314 -0.7817  0.3900 -0.3712
13480TIP3    H261856   3.035   4.343  12.305  1.1783 -1.9523 -1.0547
13481TIP3   OH261857   5.057   1.024   4.818  0.3068  0.1444 -0.0116
13481TIP3    H161858   5.016   1.107   4.842  1.3246  0.9571 -0.9774
13481TIP3    H261859   5.151   1.042   4.819  0.6733 -1.5034  1.5562
13482TIP3   OH261860   4.877   6.414   3.270  0.1876  0.1809  0.0510
13482TIP3    H161861   4.794   6.453   3.297  0.4220 -0.2838  1.5601
13482TIP3    H261862   4.877   6.327   3.310  0.8553 -0.3276 -0.9944
13483TIP3   OH261863   6.019   2.325  15.914  0.3965  0.1735 -0.5273
13483TIP3    H161864   5.953   2.286  15.971 -1.0592  0.7901 -1.7219
13483TIP3    H261865   5.984   2.314  15.825  1.1939  1.8017 -1.0913
13484TIP3   OH261866   5.464   3.229   3.554  0.1103 -0.6800  0.1318
13484TIP3    H161867   5.450   3.310   3.604 -0.3264  0.3157 -1.5182
13484TIP3    H261868   5.550   3.198   3.581 -0.1147 -0.1751  1.4806
13485TIP3   OH261869   0.294   5.804   5.278  0.1081  0.1998 -0.1368
13485TIP3    H161870   0.278   5.879   5.221  1.2407  0.0972 -0.6003
13485TIP3    H261871   0.282   5.839   5.367  0.6217  0.9278 -0.3468
13486TIP3   OH261872   4.118   2.087  15.025 -0.8137  0.1157 -0.1917
13486TIP3    H161873   4.201   2.084  15.072 -0.6524 -0.5872 -0.5030
13486TIP3    H261874   4.051   2.089  15.094 -0.5742 -0.6461  0.0768
13487TIP3   OH261875   2.106   1.246   1.588 -0.5338 -0.1253  0.0675
13487TIP3    H161876   2.078   1.193   1.663 -1.5650 -0.8231 -0.7709
13487TIP3    H261877   2.175   1.194   1.547 -1.1540 -0.5756 -0.4295
13488TIP3   OH261878   5.466   3.889  12.397 -0.4918  0.2280  0.6338
13488TIP3    H161879   5.478   3.880  12.492  1.9925  2.0295  0.5845
13488TIP3    H261880   5.412   3.813  12.373 -3.2363  0.9462  3.7564
13489TIP3   OH261881   5.352   3.638  12.325 -0.0687  0.2174  0.0750
13489TIP3    H161882   5.417   3.573  12.297 -0.0041  0.1528  0.3705
13489TIP3    H261883   5.281   3.587  12.363 -0.1461  0.3053  0.0495
13490TIP3   OH261884   6.435   2.450  16.517  0.2339  0.3480 -0.4746
13490TIP3    H161885   6.353   2.400  16.517 -1.0422  2.2674 -2.1270
13490TIP3    H261886   6.432   2.501  16.598  0.1229 -0.0793 -0.2061
13491TIP3   OH261887   3.638   0.250   3.947  0.3672 -0.2407 -0.0174
13491TIP3    H161888   3.707   0.225   3.886  2.3030  2.7829  0.6811
13491TIP3    H261889   3.683   0.266   4.030 -1.1715  1.4827  0.5734
13492TIP3   OH261890   5.993   2.573  12.423  0.3111  0.5408  0.1613
13492TIP3    H161891   6.043   2.646  12.387  0.4563 -0.1915 -1.2093
13492TIP3    H261892   5.902   2.596  12.404  0.4758 -0.7269 -2.5749
13493TIP3   OH261893   3.319   4.041  11.263 -0.3610  0.3701  0.0212
13493TIP3    H161894   3.228   4.027  11.239 -0.5037  1.2187  0.0376
13493TIP3    H261895   3.362   4.065  11.181 -0.0412 -0.5209 -0.0815
13494TIP3   OH261896   5.551   5.455   5.114  0.3018  0.1594 -0.1068
13494TIP3    H161897   5.566   5.362   5.097  1.9319  0.2744  0.4569
13494TIP3    H261898   5.565   5.497   5.029  2.2108  0.1094  0.1210
13495TIP3   OH261899   2.664   5.819   6.004  0.1204 -0.2448  0.5423
13495TIP3    H161900   2.582   5.797   6.047 -0.1210 -0.6488 -0.1180
13495TIP3    H261901   2.657   5.913   5.985 -0.5922 -0.4714 -0.3627
13496TIP3   OH261902   4.493   4.899  13.774  0.1441  0.3537 -0.0948
13496TIP3    H161903   4.493   4.920  13.868  0.9178 -1.7367  0.4255
13496TIP3    H261904   4.404   4.867  13.757  0.3910 -0.5616  0.2736
13497TIP3   OH261905   5.403   3.939  17.063  0.4550 -0.1411  0.2689
13497TIP3    H161906   5.412   3.844  17.073  0.7945  0.0546  2.0605
13497TIP3    H261907   5.433   3.956  16.973  0.6646 -1.6862  0.0170
13498TIP3   OH261908   6.666   4.872  15.693 -0.0091  0.5486 -0.1101
13498TIP3    H161909   6.630   4.811  15.757 -0.2589  0.2589 -0.5260
13498TIP3    H261910   6.600   4.878  15.625  0.6935  0.0659 -0.8455
13499TIP3   OH261911   0.103   4.154   1.087 -0.8768 -0.0448 -0.6390
13499TIP3    H161912   0.147   4.079   1.047  0.6707 -0.0564  0.9716
13499TIP3    H261913   0.148   4.231   1.051  0.3506 -0.0483  0.8354
13500TIP3   OH261914   0.793   2.961  14.639  0.2793 -0.1122  0.7210
13500TIP3    H161915   0.783   3.056  14.631 -1.4072 -0.2004  1.3230
13500TIP3    H261916   0.886   2.945  14.624  0.6997  1.6950  1.2051
13501TIP3   OH261917   0.838   6.201   3.688 -0.2010  0.2593  0.3498
13501TIP3    H161918   0.745   6.224   3.685 -0.2767  0.4215  2.7276
13501TIP3    H261919   0.848   6.145   3.764  1.3188 -1.6220 -1.1021
13502TIP3   OH261920   2.915   5.434  11.233 -0.0033  0.3515  0.8227
13502TIP3    H161921   2.989   5.389  11.192 -2.4199 -1.7803 -1.5097
13502TIP3    H261922   2.897   5.384  11.312 -0.0747 -0.2206  0.4444
13503TIP3   OH261923   5.378   4.350  16.489 -0.2465 -0.4974 -0.0174
13503TIP3    H161924   5.466   4.323  16.462 -0.1552  0.5335 -0.8086
13503TIP3    H261925   5.328   4.356  16.407 -0.8994 -0.5073  0.3690
13504TIP3   OH261926   4.324   2.317  16.938  0.2658 -0.6107 -0.2643
13504TIP3    H161927   4.374   2.393  16.968  1.2058 -0.8933 -1.0620
13504TIP3    H261928   4.343   2.311  16.844  0.1806 -1.7960 -0.2241
13505TIP3   OH261929   4.530   1.984   4.881 -0.3089 -0.0506 -0.0121
13505TIP3    H161930   4.612   2.032   4.893 -0.1212 -0.6690  1.4749
13505TIP3    H261931   4.554   1.907   4.830 -0.3876  0.7957 -1.3809
13506TIP3   OH261932   5.506   0.293  14.051 -0.5417 -0.0601 -0.1409
13506TIP3    H161933   5.506   0.389  14.053 -2.1251 -0.0213  2.7791
13506TIP3    H261934   5.585   0.268  14.097  0.2093 -0.2178 -1.4683
13507TIP3   OH261935   0.552   0.455   1.063  1.0434 -0.0369  0.1247
13507TIP3    H161936   0.613   0.427   1.131  0.7230  0.7713  0.7638
13507TIP3    H261937   0.492   0.382   1.052 -0.8426  0.9033  2.9815
13508TIP3   OH261938   2.534   0.341   3.519 -0.0937 -0.1489 -0.5335
13508TIP3    H161939   2.591   0.339   3.597 -2.0270 -1.4907  0.9585
13508TIP3    H261940   2.468   0.407   3.540 -0.6186 -0.5126 -1.0307
13509TIP3   OH261941   2.762   3.517  15.631 -0.1000 -0.0193 -0.1973
13509TIP3    H161942   2.737   3.455  15.699 -1.8535  0.6271 -0.2024
13509TIP3    H261943   2.854   3.536  15.649 -0.3040 -0.4596  1.5088
13510TIP3   OH261944   3.186   2.116   3.796 -0.1560 -0.4037 -0.3638
13510TIP3    H161945   3.195   2.088   3.705  2.5951  2.9657 -1.3865
13510TIP3    H261946   3.136   2.197   3.791  0.2563 -0.0322  1.0475
13511TIP3   OH261947   5.700   4.475  11.916 -0.0649 -0.2188 -0.0663
13511TIP3    H161948   5.679   4.422  11.839 -0.9704  0.7551 -0.5130
13511TIP3    H261949   5.671   4.422  11.991 -2.9407  0.4437 -0.5869
13512TIP3   OH261950   5.027   0.775   2.511 -0.3990 -0.1292  0.1694
13512TIP3    H161951   5.027   0.791   2.417  0.5727  2.5350  0.5443
13512TIP3    H261952   4.939   0.798   2.539 -0.2729  0.4552  0.0955
13513TIP3   OH261953   1.980   1.718  17.095 -0.1638  0.0140 -0.1228
13513TIP3    H161954   1.982   1.650  17.027 -1.0893  0.1485 -0.3036
13513TIP3    H261955   2.033   1.682  17.166  0.8720 -0.1062 -0.9245
13514TIP3   OH261956   3.229   0.539  13.969 -0.2996 -0.0336 -0.2325
13514TIP3    H161957   3.152   0.545  13.913  1.7380 -1.5288 -3.4416
13514TIP3    H261958   3.217   0.458  14.018 -2.3201  1.5230  2.0945
13515TIP3   OH261959   5.126   3.536  14.340  0.1061 -0.6533 -0.1438
13515TIP3    H161960   5.091   3.459  14.296 -1.5057  0.3213 -0.6720
13515TIP3    H261961   5.109   3.608  14.279 -0.3271  0.4221  1.2065
13516TIP3   OH261962   0.755   2.760  13.170 -0.2924  0.3519 -0.4003
13516TIP3    H161963   0.755   2.854  13.189 -0.2396  0.1084  0.9065
13516TIP3    H261964   0.843   2.731  13.192 -1.0578 -0.4765  1.9849
13517TIP3   OH261965   5.236   3.510   0.849 -0.0230 -0.4097  0.1514
13517TIP3    H161966   5.185   3.553   0.781  0.9012  1.7581  0.7539
13517TIP3    H261967   5.315   3.562   0.858  0.4557 -1.3436  2.0263
13518TIP3   OH261968   0.480   3.264   1.054  0.5201  0.7707 -0.1923
13518TIP3    H161969   0.389   3.282   1.081  0.5179  1.5393 -0.6839
13518TIP3    H261970   0.532   3.329   1.101  0.6672  1.2008 -0.9358
13519TIP3   OH261971   3.590   2.496  15.191  0.1491 -0.1234  0.8598
13519TIP3    H161972   3.536   2.509  15.270  0.2351  1.5718  0.6633
13519TIP3    H261973   3.538   2.534  15.120  0.7678 -0.2229  0.3490
13520TIP3   OH261974   3.197   2.971  14.397  0.4672 -0.2950  0.5216
13520TIP3    H161975   3.216   2.969  14.491  2.4492  0.4959  0.1844
13520TIP3    H261976   3.140   3.046  14.385  2.6103  1.4703  0.7639
13521TIP3   OH261977   3.401   6.555   1.221  0.0563  1.0104  0.3665
13521TIP3    H161978   3.383   6.462   1.229 -0.4109  1.0954  0.3412
13521TIP3    H261979   3.392   6.573   1.127  2.8218  0.5558 -0.0660
13522TIP3   OH261980   1.679   0.002  16.530  0.3553  0.0941  0.1136
13522TIP3    H161981   1.615   0.064  16.564 -0.2138 -0.2528 -0.3124
13522TIP3    H261982   1.762   0.030  16.568 -0.0052  0.7071  0.4610
13523TIP3   OH261983   6.244   4.843  15.274  0.1956  0.1942  0.1230
13523TIP3    H161984   6.291   4.903  15.217  0.8102  0.0227  0.4303
13523TIP3    H261985   6.307   4.772  15.291 -1.3838 -2.0179 -2.4548
13524TIP3   OH261986   3.347   4.018  16.171 -0.2626 -0.0804  0.1043
13524TIP3    H161987   3.258   4.040  16.145 -0.0154  1.6288  0.6013
13524TIP3    H261988   3.403   4.068  16.111  0.3918 -1.3357 -0.3804
13525TIP3   OH261989   5.700   0.632   5.047 -0.6903 -0.2372 -0.4849
13525TIP3    H161990   5.612   0.666   5.065 -1.2054 -1.1087 -1.2767
13525TIP3    H261991   5.687   0.568   4.977  0.3742 -1.4639  0.4068
13526TIP3   OH261992   5.269   5.237   3.865  0.0304  0.1262  0.1187
13526TIP3    H161993   5.182   5.259   3.898 -0.3341  0.3111 -0.9129
13526TIP3    H261994   5.329   5.258   3.937 -0.7789 -0.0623  0.8576
13527TIP3   OH261995   6.300   1.306  13.026 -0.6304 -0.7065 -0.8466
13527TIP3    H161996   6.322   1.355  13.105 -0.2615 -4.2145  1.4918
13527TIP3    H261997   6.379   1.308  12.973 -0.3390  0.4112 -0.4024
13528TIP3   OH261998   1.477   6.572  10.424 -0.0708  0.0300 -0.0127
13528TIP3    H161999   1.402   6.564  10.365 -0.0867  0.1152 -0.0045
13528TIP3    H262000   1.532   6.495  10.405  0.0417  0.1810 -0.3054
13529TIP3   OH262001   4.800   3.271   1.780  0.2352 -0.0271  0.3825
13529TIP3    H162002   4.707   3.282   1.799 -0.1550 -0.9481 -0.8294
13529TIP3    H262003   4.812   3.311   1.694  1.3925  1.7556  1.3089
13530TIP3   OH262004   4.276   6.127  16.103 -0.5062 -0.0002  0.0278
13530TIP3    H162005   4.345   6.152  16.163  0.0143 -0.5238 -0.3300
13530TIP3    H262006   4.237   6.209  16.074  1.4356  0.4794 -1.4614
13531TIP3   OH262007   1.620   0.419  12.781 -0.5244 -0.3600 -0.5138
13531TIP3    H162008   1.681   0.356  12.818 -1.1767 -0.5849  0.2003
13531TIP3    H262009   1.550   0.365  12.743 -1.5503 -0.0848  0.8943
13532TIP3   OH262010   1.690   0.056   4.412  0.4050  0.1964  0.0698
13532TIP3    H162011   1.654   0.131   4.366  1.7435 -0.5858 -2.4154
13532TIP3    H262012   1.785   0.063   4.399  0.9682  0.2807  3.3743
13533TIP3   OH262013   5.381   5.995  13.083  0.6695 -0.5039  0.0948
13533TIP3    H162014   5.423   6.075  13.052  1.1824 -1.1226 -0.8688
13533TIP3    H262015   5.366   6.011  13.176 -3.0056  2.3085 -0.7580
13534TIP3   OH262016   3.539   5.210   0.639 -0.0478  0.1929 -0.3668
13534TIP3    H162017   3.616   5.234   0.690 -1.0317  0.9829  0.7984
13534TIP3    H262018   3.479   5.171   0.703 -0.6295 -0.4112 -1.2531
13535TIP3   OH262019   5.978   5.559  11.944 -0.1150 -0.5164 -0.6295
13535TIP3    H162020   5.931   5.559  12.027  0.6265  0.6167 -0.1854
13535TIP3    H262021   5.927   5.618  11.888 -0.1367 -0.5824 -0.6787
13536TIP3   OH262022   3.188   2.320  14.033  0.0974  0.9348  0.2490
13536TIP3    H162023   3.207   2.331  14.126  0.5782 -1.1762  0.4554
13536TIP3    H262024   3.266   2.355  13.989  0.0492  1.5602  0.6391
13537TIP3   OH262025   2.916   3.970   3.585 -0.7885  0.5618  0.2206
13537TIP3    H162026   2.834   3.933   3.550  0.7712 -0.2906 -2.9398
13537TIP3    H262027   2.963   3.896   3.622 -0.4204  0.5854 -0.1931
13538TIP3   OH262028   3.182   1.707   5.064  0.0961 -0.1576 -0.5832
13538TIP3    H162029   3.096   1.688   5.102  0.6326 -1.4669  0.0562
13538TIP3    H262030   3.203   1.629   5.013  0.9775  0.0764 -0.5957
13539TIP3   OH262031   2.612   4.941  13.586  0.4055  0.3162  0.3893
13539TIP3    H162032   2.607   4.892  13.503  1.1115  0.1772  0.4243
13539TIP3    H262033   2.621   4.873  13.653  0.1335  0.4413  0.5506
13540TIP3   OH262034   3.113   0.498   2.847 -0.9636  0.1261  0.4296
13540TIP3    H162035   3.162   0.530   2.770 -2.1828 -0.0409 -0.4367
13540TIP3    H262036   3.158   0.539   2.922  0.7341 -0.3264 -0.2930
13541TIP3   OH262037   0.802   0.513   4.670 -0.3084 -0.3872  0.0126
13541TIP3    H162038   0.837   0.445   4.728 -0.4324  0.5405  1.2177
13541TIP3    H262039   0.727   0.549   4.718 -1.4544 -0.6984 -1.4617
13542TIP3   OH262040   2.283   2.128   4.640  0.3857 -0.2327  0.5306
13542TIP3    H162041   2.252   2.171   4.719 -0.0632  3.6865 -1.4925
13542TIP3    H262042   2.377   2.118   4.653  0.4243  0.9721  1.3548
13543TIP3   OH262043   3.665   6.618  14.752 -0.0484  0.3143 -0.0045
13543TIP3    H162044   3.649   6.696  14.804 -0.9697  1.5516 -2.0172
13543TIP3    H262045   3.702   6.651  14.670 -1.9216 -1.1643 -1.5461
13544TIP3   OH262046   3.290   2.396  16.277 -0.5792  0.0820 -0.5977
13544TIP3    H162047   3.226   2.382  16.347 -0.2456 -2.5321 -0.7005
13544TIP3    H262048   3.375   2.396  16.321 -0.5287  1.7988 -0.6580
13545TIP3   OH262049   1.276   1.494  14.868 -0.0043 -0.2260  0.0021
13545TIP3    H162050   1.335   1.532  14.933  0.3767 -0.4425 -0.2082
13545TIP3    H262051   1.215   1.564  14.846  0.7460  0.3059 -0.4571
13546TIP3   OH262052   6.757   3.126   3.790 -0.2678 -0.4473  0.0330
13546TIP3    H162053   6.773   3.089   3.877  0.0435 -0.3641  0.0113
13546TIP3    H262054   6.762   3.052   3.730 -2.5793 -0.8950  0.2976
13547TIP3   OH262055   2.072   2.937  15.702 -0.1718  0.1554 -0.2646
13547TIP3    H162056   2.145   2.912  15.759  0.9636  1.5646 -1.0441
13547TIP3    H262057   2.035   3.015  15.743  0.0508  0.6234 -0.9439
13548TIP3   OH262058   1.931   2.534   0.393  0.6370  0.3807 -0.2606
13548TIP3    H162059   1.883   2.610   0.426  0.2396 -0.6670  1.7221
13548TIP3    H262060   1.915   2.535   0.299 -0.7095  1.8253 -0.0573
13549TIP3   OH262061   1.009   2.926  11.780 -0.3936  0.7183  0.2859
13549TIP3    H162062   0.989   3.009  11.734  0.7966  0.4579 -0.7475
13549TIP3    H262063   1.016   2.861  11.710  0.7763  0.1605  0.8920
13550TIP3   OH262064   6.404   0.015   5.642 -0.0443  0.3234  0.2172
13550TIP3    H162065   6.437  -0.000   5.554 -0.2423 -0.3968  0.2621
13550TIP3    H262066   6.337   0.082   5.632 -0.1965  0.1037 -0.2008
13551TIP3   OH262067   5.300   2.674  13.472  0.1036 -0.0819  0.4810
13551TIP3    H162068   5.324   2.582  13.480  0.7071  0.1625  1.6152
13551TIP3    H262069   5.233   2.688  13.538  0.7392  0.5197  1.0154
13552TIP3   OH262070   5.632   1.312   4.664 -0.0942 -0.5510 -0.4104
13552TIP3    H162071   5.557   1.252   4.665  0.1214 -0.8450 -1.2978
13552TIP3    H262072   5.676   1.295   4.581  0.7078 -0.0621 -0.1006
13553TIP3   OH262073   3.910   0.430  13.081 -0.0718 -0.2417  0.0213
13553TIP3    H162074   3.975   0.489  13.119 -0.9217 -0.4633  1.9192
13553TIP3    H262075   3.842   0.487  13.047 -0.2732 -0.0764  0.6884
13554TIP3   OH262076   1.947   1.068  14.753  0.3138  0.3343  0.0852
13554TIP3    H162077   1.933   1.132  14.682  0.2487 -1.2619 -1.3971
13554TIP3    H262078   1.865   1.070  14.803 -0.8094 -0.5949 -1.6465
13555TIP3   OH262079   1.961   5.034   2.470  0.3295 -0.3097 -0.5417
13555TIP3    H162080   2.010   5.103   2.514 -0.8956  0.8672 -0.9487
13555TIP3    H262081   1.903   5.080   2.410 -3.7008 -1.2497  2.1991
13556TIP3   OH262082   6.778   3.947   0.626 -0.0809 -0.5770  0.2874
13556TIP3    H162083   6.705   3.999   0.661  0.3819 -0.1600  0.6305
13556TIP3    H262084   6.855   4.002   0.636  0.2280 -0.8566 -0.4579
13557TIP3   OH262085   5.397   5.096  14.503  0.1599  0.0648  0.0497
13557TIP3    H162086   5.391   5.131  14.414 -0.6795  0.1014  0.1173
13557TIP3    H262087   5.487   5.116  14.530 -0.1723  1.8468 -0.0488
13558TIP3   OH262088   6.537   6.639  14.602  0.1597  0.0287 -0.4897
13558TIP3    H162089   6.516   6.702  14.671  1.1846  0.0483 -0.1667
13558TIP3    H262090   6.456   6.629  14.553 -0.3183  0.7733  0.1149
13559TIP3   OH262091   5.044   5.853   6.572  0.0615  0.1255 -0.1354
13559TIP3    H162092   5.065   5.942   6.544  2.1073 -0.4793 -0.7469
13559TIP3    H262093   4.962   5.832   6.527 -2.1668  2.6616  2.3340
13560TIP3   OH262094   2.732   0.750  12.736  0.0779  0.0674  0.2591
13560TIP3    H162095   2.647   0.743  12.779  0.7942 -0.6004  1.6296
13560TIP3    H262096   2.783   0.806  12.794  0.0592  1.9901 -1.4578
13561TIP3   OH262097   4.161   3.987   3.377 -0.0178  0.5757 -0.4645
13561TIP3    H162098   4.240   3.980   3.431 -0.5129 -2.4093  0.0189
13561TIP3    H262099   4.188   4.043   3.303  2.2687  0.3721  0.1308
13562TIP3   OH262100   6.277   6.175   3.809  0.6230 -0.1218  0.4503
13562TIP3    H162101   6.338   6.225   3.755 -2.3515  1.2731 -1.9104
13562TIP3    H262102   6.255   6.099   3.755 -0.8544  0.2171  0.5593
13563TIP3   OH262103   0.758   3.342   2.408 -0.3823 -0.5082  0.2389
13563TIP3    H162104   0.701   3.292   2.466  1.6064 -1.5038  1.4369
13563TIP3    H262105   0.792   3.413   2.462  1.6749 -1.5837  0.4820
13564TIP3   OH262106   1.390   5.812  11.339  0.3145 -0.1091 -0.0217
13564TIP3    H162107   1.485   5.803  11.351  0.1549 -0.5832  0.9387
13564TIP3    H262108   1.378   5.805  11.244  1.5850  3.4865 -0.6154
13565TIP3   OH262109   1.630   1.916   0.726  0.0899 -0.3013 -0.3105
13565TIP3    H162110   1.713   1.875   0.748  0.8674 -0.1216 -2.5823
13565TIP3    H262111   1.586   1.929   0.810  2.5571  0.0410  1.0360
13566TIP3   OH262112   3.063   6.065   4.000  0.7066  0.1225 -0.5098
13566TIP3    H162113   3.013   5.990   4.032 -1.0345  0.7932 -1.5190
13566TIP3    H262114   3.098   6.037   3.916 -0.8173  0.7338 -1.3849
13567TIP3   OH262115   2.343   6.143  14.669  0.1832 -0.7255  0.1378
13567TIP3    H162116   2.353   6.167  14.577  0.4048  1.0715  0.5906
13567TIP3    H262117   2.250   6.158  14.687  0.5038  0.8364  0.6649
13568TIP3   OH262118   5.216   2.316   4.739 -0.0947 -0.3333 -0.8061
13568TIP3    H162119   5.295   2.366   4.761 -0.5878 -0.2954  1.0471
13568TIP3    H262120   5.222   2.301   4.644  2.0086 -0.1352 -0.7437
13569TIP3   OH262121   2.249   5.747   2.677 -0.0419 -0.4340 -0.1289
13569TIP3    H162122   2.266   5.667   2.628 -1.2899 -0.1806 -1.0324
13569TIP3    H262123   2.195   5.800   2.619  0.7296  1.0725  0.4564
13570TIP3   OH262124   4.746   3.599   3.979 -0.0138 -0.3349  0.0088
13570TIP3    H162125   4.693   3.621   4.055  1.4637  0.0882  0.9527
13570TIP3    H262126   4.804   3.674   3.967 -0.1041 -0.4662 -1.4413
13571TIP3   OH262127   3.436   4.311  14.102  0.1976  0.7096 -0.6391
13571TIP3    H162128   3.380   4.319  14.180 -0.5283 -1.4582 -0.8623
13571TIP3    H262129   3.524   4.330  14.134 -0.1088  0.0281  0.6904
13572TIP3   OH262130   6.220   5.157   0.133  0.4847 -0.5096 -0.2678
13572TIP3    H162131   6.277   5.113   0.070 -0.0215 -0.2421 -0.9255
13572TIP3    H262132   6.137   5.168   0.087  1.0931  2.7372 -0.8006
13573TIP3   OH262133   0.627   3.785  13.751  0.1022 -0.2486  0.0326
13573TIP3    H162134   0.647   3.777  13.844 -3.7978 -1.6629  0.9413
13573TIP3    H262135   0.623   3.694  13.720 -0.7082  0.1200 -0.9889
13574TIP3   OH262136   0.674   4.781   3.603  0.5600  0.1302  0.0302
13574TIP3    H162137   0.679   4.793   3.698  2.1518 -0.3557  0.0502
13574TIP3    H262138   0.581   4.774   3.584  0.1707  1.0787  1.4422
13575TIP3   OH262139   1.168   5.136  14.604 -0.2088 -0.4050 -0.5360
13575TIP3    H162140   1.124   5.208  14.561 -1.3507  0.7070  2.2333
13575TIP3    H262141   1.228   5.178  14.666 -0.7291 -1.7851  0.9838
13576TIP3   OH262142   1.754   3.476   4.893 -0.2600  0.2788  0.4354
13576TIP3    H162143   1.701   3.407   4.852  1.6378 -0.6611 -0.5845
13576TIP3    H262144   1.690   3.536   4.932 -2.0312 -0.9944 -0.3766
13577TIP3   OH262145   5.582   5.249  16.766 -0.4202 -0.1241  0.5003
13577TIP3    H162146   5.630   5.236  16.848 -0.7157  1.7205  1.0165
13577TIP3    H262147   5.490   5.248  16.792 -0.5001  1.2008  0.3629
13578TIP3   OH262148   3.870   6.359  10.541  0.5404  1.1905  0.4850
13578TIP3    H162149   3.853   6.310  10.622 -1.3984  1.1129  0.0850
13578TIP3    H262150   3.807   6.431  10.543  0.6379  1.3326 -0.8443
13579TIP3   OH262151   4.853   3.240   0.032 -0.2292  0.1987  0.3043
13579TIP3    H162152   4.937   3.194   0.032 -0.9146 -1.1036  0.5637
13579TIP3    H262153   4.790   3.174   0.002 -1.6843  0.1417  3.1357
13580TIP3   OH262154   3.957   4.176  16.115  0.0171  0.2082 -0.4566
13580TIP3    H162155   3.967   4.088  16.079  0.8343 -0.0827  0.4264
13580TIP3    H262156   3.905   4.164  16.194  0.8929  0.3627  0.1660
13581TIP3   OH262157   5.182   3.539   4.590  0.1485  0.3876  0.3884
13581TIP3    H162158   5.229   3.622   4.598 -0.1072  0.4975  0.8140
13581TIP3    H262159   5.090   3.562   4.604 -0.0541  0.1991 -0.6239
13582TIP3   OH262160   0.087   0.382  15.647 -0.4310  0.7112 -0.2191
13582TIP3    H162161   0.105   0.288  15.648 -1.5874  0.4522 -1.2121
13582TIP3    H262162   0.051   0.400  15.734  2.7913  0.9332  1.2021
13583TIP3   OH262163   4.428   0.395   2.488 -0.2417 -0.9871 -0.4468
13583TIP3    H162164   4.381   0.473   2.517 -0.7013 -0.3454 -2.7674
13583TIP3    H262165   4.439   0.406   2.394 -1.4985 -4.3107 -1.1417
13584TIP3   OH262166   1.254   2.152   0.848 -0.2110  0.0087 -0.4422
13584TIP3    H162167   1.328   2.212   0.850  0.0135 -0.2544  1.3621
13584TIP3    H262168   1.197   2.182   0.919 -1.1718 -0.6120 -0.9259
13585TIP3   OH262169   3.766   6.218   2.540 -0.2082 -0.1883 -0.2887
13585TIP3    H162170   3.859   6.206   2.556 -0.3072 -1.0577 -0.3262
13585TIP3    H262171   3.722   6.178   2.616 -0.5498  0.0713 -0.3452
13586TIP3   OH262172   5.052   0.670   0.119  0.7076 -0.7118  0.6778
13586TIP3    H162173   5.105   0.748   0.131  0.9583 -0.8541  0.5135
13586TIP3    H262174   5.032   0.640   0.208 -0.5685  0.3179  0.7663
13587TIP3   OH262175   1.026   4.292  12.731  0.3286 -0.1906  0.6646
13587TIP3    H162176   1.078   4.235  12.788 -0.8927 -0.2692  1.7507
13587TIP3    H262177   1.089   4.353  12.693  1.7016 -2.2712 -0.6048
13588TIP3   OH262178   3.087   0.018  12.434  0.6238 -0.1022 -0.5442
13588TIP3    H162179   3.089   0.013  12.530  0.8626 -0.4143 -0.5664
13588TIP3    H262180   3.159   0.077  12.412  0.2200  0.4147 -0.5030
13589TIP3   OH262181   1.396   6.486  13.692  0.3541 -0.3516  0.0683
13589TIP3    H162182   1.434   6.557  13.641  0.9075 -1.6035 -1.3500
13589TIP3    H262183   1.401   6.516  13.783  0.1808  1.5687 -0.5075
13590TIP3   OH262184   3.819   4.515  15.333 -0.4990  0.3530 -0.0345
13590TIP3    H162185   3.866   4.453  15.278  1.0667 -0.0529  1.6409
13590TIP3    H262186   3.833   4.600  15.291  0.2013 -0.0145 -0.5542
13591TIP3   OH262187   4.207   5.006  12.550 -0.1340 -0.1449 -0.2942
13591TIP3    H162188   4.233   5.022  12.459 -0.8589 -1.7717 -0.8250
13591TIP3    H262189   4.178   4.915  12.551 -1.4141  0.2325  1.2787
13592TIP3   OH262190   2.110   6.446  17.011  0.4105  0.2393  0.5827
13592TIP3    H162191   2.043   6.494  17.059 -0.0065 -1.0635  1.3497
13592TIP3    H262192   2.069   6.362  16.990  0.8986  0.4087 -1.2733
13593TIP3   OH262193   5.097   0.850   2.773 -0.0694  0.0643 -0.7540
13593TIP3    H162194   5.015   0.829   2.816  0.3480 -1.7383 -0.7698
13593TIP3    H262195   5.093   0.804   2.689  2.0447 -2.3885  0.3722
13594TIP3   OH262196   6.291   6.263   2.404 -0.3353  0.3717 -0.7861
13594TIP3    H162197   6.353   6.229   2.339 -0.9460  0.2061 -1.2862
13594TIP3    H262198   6.321   6.227   2.487 -1.0081 -1.4665 -1.2994
13595TIP3   OH262199   0.826   1.527  17.176 -0.0772  0.0431  0.3519
13595TIP3    H162200   0.919   1.550  17.174 -0.0574 -0.0598 -0.2549
13595TIP3    H262201   0.814   1.471  17.099 -0.9921  1.4405 -0.5782
13596TIP3   OH262202   0.369   0.123  10.824  0.1762  0.3065 -0.1136
13596TIP3    H162203   0.435   0.053  10.825  0.0131  0.1540  0.0558
13596TIP3    H262204   0.394   0.181  10.895  1.0126  1.0812 -1.0105
13597TIP3   OH262205   4.030   5.252  15.577 -0.3664  0.1470  0.5226
13597TIP3    H162206   4.058   5.225  15.490 -0.3412 -1.1664  0.9165
13597TIP3    H262207   4.002   5.171  15.620  0.0578  0.6949  1.8988
13598TIP3   OH262208   5.800   5.045  14.849 -0.2640  0.3868  0.2987
13598TIP3    H162209   5.770   5.128  14.887 -1.7107  0.4718 -0.8933
13598TIP3    H262210   5.751   4.978  14.896 -2.2272  0.5042 -1.4111
13599TIP3   OH262211   0.495   1.234  13.623  0.1218 -0.6012  0.4738
13599TIP3    H162212   0.419   1.228  13.565 -0.3161 -0.5181  1.0318
13599TIP3    H262213   0.557   1.289  13.575 -1.5074  2.2736  1.4190
13600TIP3   OH262214   3.771   6.081  17.237  0.0375  0.1776  0.2485
13600TIP3    H162215   3.718   6.073  17.316 -0.0169 -0.7328  0.1323
13600TIP3    H262216   3.736   6.014  17.178 -1.6077  2.4596 -1.5468
13601TIP3   OH262217   4.517   5.574  15.633  0.1203  0.2969 -0.3914
13601TIP3    H162218   4.595   5.543  15.586  0.1203 -0.2616 -0.0444
13601TIP3    H262219   4.443   5.538  15.584  0.1028  0.3203 -0.3820
13602TIP3   OH262220   5.037   2.086   0.364  0.1805 -0.2684  0.7401
13602TIP3    H162221   5.086   2.021   0.414  0.1996  0.0179  1.0906
13602TIP3    H262222   4.957   2.040   0.337  0.3226 -0.5226  0.7461
13603TIP3   OH262223   4.470   1.723  14.582  0.6015 -0.3762 -0.3630
13603TIP3    H162224   4.465   1.783  14.656  0.0767 -2.2175  1.1441
13603TIP3    H262225   4.564   1.705  14.572  0.9579  1.8930 -1.9128
13604TIP3   OH262226   1.232   2.390  12.181  0.4419  0.0357  0.4051
13604TIP3    H162227   1.252   2.434  12.098  0.0172 -2.0921 -0.9219
13604TIP3    H262228   1.152   2.431  12.212  0.6778  0.9545 -0.1645
13605TIP3   OH262229   6.348   3.978  10.695  0.0383  0.0516  0.1596
13605TIP3    H162230   6.437   4.011  10.684 -0.1399  0.0447 -1.8038
13605TIP3    H262231   6.337   3.968  10.789  1.2406  2.4272  0.6261
13606TIP3   OH262232   2.726   4.079  15.967 -1.1520 -0.1441 -0.2196
13606TIP3    H162233   2.819   4.094  15.946 -0.8483  0.8263  1.6026
13606TIP3    H262234   2.679   4.123  15.896 -0.2748 -1.4246 -1.6799
13607TIP3   OH262235   3.689   0.603   5.146  0.5487  0.2435 -0.7669
13607TIP3    H162236   3.722   0.546   5.215  1.3314 -0.4818 -1.7100
13607TIP3    H262237   3.651   0.678   5.192  1.4666 -0.0006  0.4254
13608TIP3   OH262238   1.586   5.082  13.173 -0.5673  0.3452 -0.3918
13608TIP3    H162239   1.500   5.058  13.209 -0.2163  0.1483  0.3310
13608TIP3    H262240   1.631   4.998  13.163 -0.2826  0.4879 -0.3098
13609TIP3   OH262241   3.037   2.584   5.861  0.2991  0.2177  0.0944
13609TIP3    H162242   3.132   2.593   5.847 -0.0044  1.7429 -1.4187
13609TIP3    H262243   3.017   2.495   5.831  1.3775 -0.4888  1.3796
13610TIP3   OH262244   1.905   5.782  16.972 -0.1205  0.0069  0.0458
13610TIP3    H162245   1.879   5.814  17.058  1.3254  0.9678  0.1564
13610TIP3    H262246   1.903   5.687  16.980  1.4546  0.0682  1.6322
13611TIP3   OH262247   3.803   6.287   2.293  0.3483  0.2339  0.4165
13611TIP3    H162248   3.786   6.256   2.381  0.2602 -1.1492 -0.0575
13611TIP3    H262249   3.897   6.307   2.293  0.6109 -0.8915  0.5250
13612TIP3   OH262250   0.042   6.546   0.590 -0.1335 -0.0650  0.6724
13612TIP3    H162251  -0.022   6.550   0.661 -0.9424  1.1211 -0.0913
13612TIP3    H262252   0.045   6.454   0.565 -1.5982 -0.1347  0.6861
13613TIP3   OH262253   0.339   0.696  14.170  0.1436  0.6555  0.3075
13613TIP3    H162254   0.372   0.786  14.164  1.1041  0.4027  1.3593
13613TIP3    H262255   0.254   0.698  14.127 -0.0194  2.1643  0.6551
13614TIP3   OH262256   6.113   4.144  11.294  0.0777 -0.3236  0.0729
13614TIP3    H162257   6.109   4.170  11.202  3.4263 -0.0445 -0.1245
13614TIP3    H262258   6.111   4.048  11.292 -1.2847 -0.2984 -0.1480
13615TIP3   OH262259   2.700   2.742  14.379  0.2857 -0.1555  0.2755
13615TIP3    H162260   2.673   2.664  14.330  1.0586  0.6562 -1.5148
13615TIP3    H262261   2.617   2.786  14.400 -0.0771 -0.6088 -0.1695
13616TIP3   OH262262   1.191   1.368   1.528 -0.5016  0.0982  0.5449
13616TIP3    H162263   1.124   1.434   1.542  0.0904  0.4771  1.7258
13616TIP3    H262264   1.212   1.375   1.435 -0.3766  1.6729  0.6562
13617TIP3   OH262265   4.487   5.403   0.300  0.2040  1.1207 -0.0017
13617TIP3    H162266   4.392   5.406   0.293  0.2338  2.5717 -0.1485
13617TIP3    H262267   4.505   5.414   0.393  0.2183 -0.1838  0.1622
13618TIP3   OH262268   5.503   4.479   5.862  0.6190  0.3960 -0.0949
13618TIP3    H162269   5.439   4.409   5.847  1.0155 -0.1507  0.7012
13618TIP3    H262270   5.473   4.551   5.807 -0.4373  0.0009 -0.0541
13619TIP3   OH262271   1.964   6.331   4.755  0.5386 -0.0315 -0.3319
13619TIP3    H162272   1.937   6.280   4.678 -0.8920 -0.2881  0.3041
13619TIP3    H262273   1.954   6.422   4.727 -3.5729 -0.0029  0.5639
13620TIP3   OH262274   3.193   0.466   5.225  0.5012  0.6007 -0.2598
13620TIP3    H162275   3.133   0.518   5.171  0.6200  1.0227  0.0109
13620TIP3    H262276   3.170   0.375   5.205 -1.6016  0.7206  1.2848
13621TIP3   OH262277   0.790   3.748   0.972 -0.4864 -0.0613  0.0434
13621TIP3    H162278   0.772   3.792   1.055 -0.7476  1.6631 -0.8878
13621TIP3    H262279   0.709   3.760   0.921 -0.5542 -1.6156 -0.2774
13622TIP3   OH262280   5.977   4.047  16.974  0.4348 -0.0527  0.2474
13622TIP3    H162281   5.922   3.986  17.024  2.9355 -1.8486  0.9904
13622TIP3    H262282   6.026   4.095  17.040  0.7876  0.5129 -0.4172
13623TIP3   OH262283   6.766   3.326   1.204 -0.1070 -0.4892 -0.1390
13623TIP3    H162284   6.700   3.284   1.149  0.2743 -0.7995 -0.3655
13623TIP3    H262285   6.727   3.410   1.228 -0.6853 -0.7776 -0.0617
13624TIP3   OH262286   6.278   5.441   4.415 -0.2131 -0.0075  0.4803
13624TIP3    H162287   6.361   5.450   4.463  1.0186  0.3892 -1.6031
13624TIP3    H262288   6.227   5.517   4.442  0.8786  0.7905  0.3809
13625TIP3   OH262289   0.698   5.474   0.748 -0.9165 -0.1620  0.0547
13625TIP3    H162290   0.654   5.464   0.664 -0.4505  0.3323 -0.2515
13625TIP3    H262291   0.771   5.532   0.731 -1.5876  1.0474  1.0801
13626TIP3   OH262292   1.766   2.391   1.314  0.8110 -0.2715 -0.0218
13626TIP3    H162293   1.784   2.302   1.343  1.2482 -0.3715 -0.5861
13626TIP3    H262294   1.805   2.447   1.382  1.7809 -0.5036 -0.3679
13627TIP3   OH262295   4.560   0.086   1.966 -0.7979 -0.8996 -0.1620
13627TIP3    H162296   4.575   0.167   2.015  2.6095 -1.0883 -0.7096
13627TIP3    H262297   4.642   0.038   1.973 -1.7340 -3.0020 -2.2984
13628TIP3   OH262298   6.565   5.661  12.857 -0.2195  0.0791  0.1837
13628TIP3    H162299   6.536   5.708  12.936  1.6430 -1.4570  1.8961
13628TIP3    H262300   6.654   5.693  12.842  0.6765 -1.9648  0.7295
13629TIP3   OH262301   5.266   3.398  16.426 -0.2013  0.0897 -0.0328
13629TIP3    H162302   5.349   3.441  16.446  0.1451 -1.5768  2.4950
13629TIP3    H262303   5.290   3.312  16.392 -0.9156 -0.0008 -0.3394
13630TIP3   OH262304   1.320   3.165   4.538  0.1104 -0.2710  0.4257
13630TIP3    H162305   1.338   3.250   4.579  0.6824  0.3940 -1.1695
13630TIP3    H262306   1.391   3.109   4.568  0.4210  0.1546  0.5070
13631TIP3   OH262307   6.470   4.824   2.787  0.0223  0.6100 -0.0422
13631TIP3    H162308   6.543   4.877   2.821 -1.2559  1.7966  0.9907
13631TIP3    H262309   6.439   4.775   2.863 -1.4116  1.5462  0.0154
13632TIP3   OH262310   2.169   3.502  12.947  0.1880  0.7555 -0.0454
13632TIP3    H162311   2.083   3.511  12.907 -0.4730 -1.7073  0.6728
13632TIP3    H262312   2.206   3.423  12.907  0.8313  0.0398  1.8817
13633TIP3   OH262313   4.841   1.499  12.709  0.2197  0.0874 -0.3969
13633TIP3    H162314   4.913   1.529  12.764 -0.0738  3.7556 -1.7341
13633TIP3    H262315   4.764   1.500  12.766  0.5439  0.1577  0.0409
13634TIP3   OH262316   5.801   2.096   3.301 -0.1651 -0.5363  0.1722
13634TIP3    H162317   5.844   2.087   3.217 -1.4576  2.6383 -1.0159
13634TIP3    H262318   5.869   2.129   3.360  0.5433 -1.9629  0.1785
13635TIP3   OH262319   2.265   5.830  16.240 -0.1437  0.4692 -0.0803
13635TIP3    H162320   2.224   5.841  16.325  2.4436 -2.8274  1.8260
13635TIP3    H262321   2.241   5.742  16.211  1.6557  0.2683 -1.1444
13636TIP3   OH262322   5.787   3.425   2.992 -0.4911 -0.1169 -0.3202
13636TIP3    H162323   5.789   3.496   2.928 -0.5925  0.8140  0.7000
13636TIP3    H262324   5.857   3.366   2.964 -0.8381  0.0350 -1.5564
13637TIP3   OH262325   0.249   2.333  14.960  0.3694 -0.0178  0.1428
13637TIP3    H162326   0.176   2.289  14.915 -0.2412  0.7794  0.3371
13637TIP3    H262327   0.216   2.421  14.979  1.4336  0.3979  0.1236
13638TIP3   OH262328   4.702   2.033  12.136 -0.1705 -0.2998  0.5655
13638TIP3    H162329   4.674   2.014  12.046 -1.6020 -0.4780  1.0358
13638TIP3    H262330   4.681   1.954  12.185  0.8057 -0.2849  1.0308
13639TIP3   OH262331   2.975   5.956   5.412 -0.1773 -0.0585  0.1521
13639TIP3    H162332   3.044   6.023   5.411 -0.7283  0.5231  0.5300
13639TIP3    H262333   3.000   5.896   5.341  0.3956  0.4726 -0.1111
13640TIP3   OH262334   0.380   6.561   1.935  0.3893  0.2918 -0.3105
13640TIP3    H162335   0.475   6.553   1.944  0.4720 -0.7062 -1.6671
13640TIP3    H262336   0.353   6.620   2.006  1.6860 -1.3142  1.6153
13641TIP3   OH262337   4.642   5.354  15.882  0.3441  0.1687  0.0914
13641TIP3    H162338   4.576   5.336  15.815 -1.8979  0.4166  2.1219
13641TIP3    H262339   4.726   5.341  15.837 -1.0297 -2.8517 -1.8929
13642TIP3   OH262340   0.111   3.316   4.651  0.4752 -0.6511  0.3425
13642TIP3    H162341   0.122   3.368   4.731 -1.2532 -0.3037  0.3980
13642TIP3    H262342   0.187   3.259   4.650  0.7123 -0.4505  2.0800
13643TIP3   OH262343   5.555   3.405  15.817 -0.3112 -0.4446  0.3377
13643TIP3    H162344   5.526   3.418  15.908 -0.8855  1.0350 -0.0432
13643TIP3    H262345   5.645   3.439  15.816 -0.2686 -0.5555  0.3745
13644TIP3   OH262346   2.160   3.501   3.258  0.5287 -0.5075  0.1585
13644TIP3    H162347   2.183   3.550   3.179 -0.2496 -0.5314 -0.0905
13644TIP3    H262348   2.076   3.459   3.237 -0.5536  0.8528  1.5840
13645TIP3   OH262349   3.892   5.869   5.209 -0.6897  0.0192  0.0557
13645TIP3    H162350   3.904   5.951   5.162 -2.6846 -0.1620 -0.8677
13645TIP3    H262351   3.854   5.810   5.144 -2.0025 -0.7326  1.4532
13646TIP3   OH262352   4.939   0.987   0.079  0.5130 -0.1421 -0.0746
13646TIP3    H162353   5.027   0.971   0.044  0.1239 -0.1198 -1.0682
13646TIP3    H262354   4.880   0.963   0.008 -0.3133 -0.6923  0.7837
13647TIP3   OH262355   5.747   6.736   3.203  0.4065 -0.1204 -0.5054
13647TIP3    H162356   5.804   6.663   3.177  0.3817 -0.2294 -0.2579
13647TIP3    H262357   5.737   6.726   3.298 -1.1247 -0.9169 -0.7142
13648TIP3   OH262358   2.943   2.096  15.512 -0.0278  0.0221  0.3471
13648TIP3    H162359   2.876   2.164  15.521  2.7489  2.6699  3.6581
13648TIP3    H262360   3.012   2.136  15.460  1.2064 -0.5832  1.4518
13649TIP3   OH262361   2.701   5.869   2.120 -0.3625  0.9697 -0.2930
13649TIP3    H162362   2.649   5.855   2.041  0.1156 -2.5497 -0.1430
13649TIP3    H262363   2.641   5.846   2.192 -0.1698  2.1021  0.2445
13650TIP3   OH262364   5.253   5.419  13.762  0.7033 -0.3653  0.6599
13650TIP3    H162365   5.322   5.409  13.696  2.2363 -1.2991  2.3188
13650TIP3    H262366   5.293   5.473  13.830 -1.0455  1.0672  0.6354
13651TIP3   OH262367   0.997   2.371  10.122 -0.3109 -0.1425 -0.3972
13651TIP3    H162368   0.937   2.360  10.196 -2.3669 -1.0106 -2.1100
13651TIP3    H262369   0.970   2.452  10.080 -0.4468 -0.6416 -1.2980
13652TIP3   OH262370   4.520   6.151   0.937 -0.4516 -0.0825  0.1825
13652TIP3    H162371   4.556   6.118   0.855 -0.6024  0.2117 -0.0013
13652TIP3    H262372   4.431   6.177   0.916  0.2986  2.4311 -0.2144
13653TIP3   OH262373   5.199   4.567  14.746  0.3471 -0.0095 -0.0693
13653TIP3    H162374   5.198   4.607  14.833 -0.2830 -0.1717  0.0099
13653TIP3    H262375   5.212   4.640  14.686  2.6117 -0.0979  0.2298
13654TIP3   OH262376   3.728   2.706   0.250 -0.5603 -0.0778 -0.7734
13654TIP3    H162377   3.757   2.769   0.183  0.0804  0.7935  0.2978
13654TIP3    H262378   3.746   2.621   0.211 -0.6139  0.4007 -1.8956
13655TIP3   OH262379   3.957   1.461  14.161  0.1929 -0.4527 -0.7782
13655TIP3    H162380   4.030   1.489  14.216  1.4096 -1.4896 -1.7738
13655TIP3    H262381   3.912   1.541  14.136  0.5707  0.1477  0.4265
13656TIP3   OH262382   3.188   4.479  12.864  0.0923  0.2211  0.0191
13656TIP3    H162383   3.183   4.424  12.786 -0.0225 -1.9103  1.4578
13656TIP3    H262384   3.124   4.442  12.925 -0.6321  2.5120  0.7650
13657TIP3   OH262385   1.895   0.103  12.369 -0.4583  0.1648  0.0220
13657TIP3    H162386   1.825   0.077  12.428 -0.9095  0.2704 -0.4641
13657TIP3    H262387   1.856   0.099  12.282  0.7429 -1.9601 -0.4888
13658TIP3   OH262388   6.400   2.258  12.278 -0.3016  0.0661 -0.1047
13658TIP3    H162389   6.315   2.301  12.287  1.0290  2.7677  0.6796
13658TIP3    H262390   6.409   2.206  12.358 -1.2129 -0.3247 -0.2387
13659TIP3   OH262391   6.287   6.484  11.582  0.0445  0.5081 -0.4014
13659TIP3    H162392   6.194   6.498  11.564 -0.7849 -2.7057  0.7691
13659TIP3    H262393   6.305   6.540  11.658 -0.7384  1.6088 -1.0005
13660TIP3   OH262394   4.970   5.348  17.191 -0.7210  0.0775 -0.5363
13660TIP3    H162395   4.877   5.350  17.170 -1.0283  1.5246  0.7627
13660TIP3    H262396   4.997   5.258  17.174 -2.6165 -0.6571  0.1068
13661TIP3   OH262397   6.305   2.648  13.667  0.2912  0.3019 -0.4441
13661TIP3    H162398   6.356   2.611  13.595 -2.2088 -0.6632 -1.8470
13661TIP3    H262399   6.269   2.571  13.712  0.8187  0.9331  1.1245
13662TIP3   OH262400   0.442   2.371   6.296  0.3963  0.3664  0.1125
13662TIP3    H162401   0.484   2.453   6.322 -0.3560  0.8110 -0.0361
13662TIP3    H262402   0.447   2.371   6.200  1.2518 -0.2334  0.1474
13663TIP3   OH262403   3.961   4.879   2.094  0.0208 -0.7127  0.1564
13663TIP3    H162404   4.029   4.813   2.102  0.2587 -0.5506 -0.4452
13663TIP3    H262405   4.006   4.962   2.108  0.4426 -0.4229 -2.4635
13664TIP3   OH262406   3.831   2.439  15.076  0.3412 -0.3940 -0.0579
13664TIP3    H162407   3.741   2.435  15.108  0.3677  0.9324  0.2160
13664TIP3    H262408   3.884   2.440  15.155  0.4146  2.7110 -0.0172
13665TIP3   OH262409   6.170   3.554  16.345 -0.1852  0.5851 -0.9819
13665TIP3    H162410   6.261   3.557  16.315 -0.4031 -1.3481 -1.9589
13665TIP3    H262411   6.135   3.473  16.309 -2.0032  0.7468  0.2769
13666TIP3   OH262412   2.764   3.573  15.367  0.8295  0.1555 -0.1546
13666TIP3    H162413   2.760   3.540  15.457  1.9260 -0.9786 -0.5015
13666TIP3    H262414   2.846   3.538  15.332 -0.2228 -0.5640 -2.0355
13667TIP3   OH262415   6.759   4.476  14.348  0.5772 -0.3924  0.1039
13667TIP3    H162416   6.699   4.551  14.345 -0.5281 -1.2584  0.1881
13667TIP3    H262417   6.766   4.448  14.257  0.7884 -0.3452  0.1063
13668TIP3   OH262418   2.411   2.243   0.370 -0.5337 -0.0466  0.4612
13668TIP3    H162419   2.320   2.244   0.339 -0.3043  2.5965 -0.3000
13668TIP3    H262420   2.462   2.212   0.295 -0.6340  0.0594  0.3498
13669TIP3   OH262421   1.363   1.280   0.026  0.1062  0.1659  0.3011
13669TIP3    H162422   1.271   1.301   0.037 -0.0634 -0.8912  1.0380
13669TIP3    H262423   1.382   1.215   0.093  1.5544  0.8121  0.5741
13670TIP3   OH262424   1.603   5.124  13.764  0.2717  0.1475 -0.1884
13670TIP3    H162425   1.659   5.133  13.841  1.8463  0.3061 -1.3182
13670TIP3    H262426   1.638   5.187  13.701 -1.5593  0.6881 -0.7449
13671TIP3   OH262427   0.188   3.144  15.021 -0.4251 -0.3502 -0.5703
13671TIP3    H162428   0.192   3.103  15.107 -1.2219  0.6925 -0.0078
13671TIP3    H262429   0.142   3.080  14.966 -0.5826 -0.7133 -0.0225
13672TIP3   OH262430   1.095   4.134  14.314 -0.1070 -0.0034  0.3526
13672TIP3    H162431   1.136   4.206  14.361  0.4361 -1.6822  2.6500
13672TIP3    H262432   1.168   4.091  14.268 -0.3468  0.6086 -0.6102
13673TIP3   OH262433   0.499   0.956  12.597 -0.6100  0.1498  0.0929
13673TIP3    H162434   0.556   0.985  12.526 -0.4805  0.3422  0.2737
13673TIP3    H262435   0.410   0.968  12.563 -0.5484 -1.4549 -0.7154
13674TIP3   OH262436   2.343   4.460  15.494 -0.4811  0.0239  0.5178
13674TIP3    H162437   2.248   4.469  15.501 -0.9099 -0.5655 -2.7498
13674TIP3    H262438   2.356   4.413  15.412  2.6989  1.7162 -0.1022
13675TIP3   OH262439   4.824   3.872   2.769 -0.0557  0.9437  0.0254
13675TIP3    H162440   4.769   3.902   2.841 -0.0996 -1.9358  1.3311
13675TIP3    H262441   4.911   3.906   2.788 -0.4364  1.6682  0.4792
13676TIP3   OH262442   3.812   4.413  11.318 -0.0613 -0.0639 -0.6907
13676TIP3    H162443   3.816   4.507  11.336 -0.6878 -0.1782  0.0502
13676TIP3    H262444   3.720   4.396  11.298 -0.3811 -0.8903  1.2723
13677TIP3   OH262445   0.896   4.905   1.610 -0.5436  0.3407  0.0684
13677TIP3    H162446   0.922   4.885   1.521 -0.8564  1.3546 -0.2646
13677TIP3    H262447   0.971   4.879   1.663 -1.1886 -2.3610 -0.2049
13678TIP3   OH262448   6.399   0.582   1.326  0.1629 -0.5208 -0.1673
13678TIP3    H162449   6.363   0.554   1.410 -2.1588 -0.9521 -1.2222
13678TIP3    H262450   6.366   0.517   1.264  2.2395 -0.5029 -1.3807
13679TIP3   OH262451   0.763   1.391  14.067  0.5281 -0.5096  0.0374
13679TIP3    H162452   0.852   1.402  14.101  0.6179 -2.3993  0.5378
13679TIP3    H262453   0.775   1.378  13.973  0.6072  0.8974 -0.1718
13680TIP3   OH262454   2.434   2.258   4.232  0.9202 -0.0795  0.1248
13680TIP3    H162455   2.527   2.251   4.212  0.9807  0.0758  0.3499
13680TIP3    H262456   2.397   2.307   4.158  1.3911  1.7782  1.0703
13681TIP3   OH262457   3.118   1.470  16.701  0.1757 -0.2682  0.4085
13681TIP3    H162458   3.077   1.525  16.767 -0.8026 -1.5669  0.9247
13681TIP3    H262459   3.196   1.434  16.744 -0.2865 -0.8604  0.7659
13682TIP3   OH262460   0.318   2.194   4.844 -0.2429  0.5276 -0.7059
13682TIP3    H162461   0.280   2.113   4.810  0.2145 -0.0677  0.1545
13682TIP3    H262462   0.391   2.213   4.784 -0.9019  0.8045 -1.4305
13683TIP3   OH262463   1.651   2.511  16.343 -0.2941 -0.2562 -0.0747
13683TIP3    H162464   1.556   2.504  16.330 -0.7598 -0.4733  2.8517
13683TIP3    H262465   1.672   2.442  16.405  1.9001 -0.4816 -1.0021
13684TIP3   OH262466   4.132   6.250   1.306  0.1277 -0.2501 -0.2186
13684TIP3    H162467   4.057   6.270   1.361 -1.5988 -1.1078 -2.1436
13684TIP3    H262468   4.158   6.334   1.268 -1.2494 -0.2449 -1.1926
13685TIP3   OH262469   4.094   3.741  14.676 -0.3022 -0.7574 -0.4068
13685TIP3    H162470   4.094   3.826  14.719  1.6094  0.2383 -2.2020
13685TIP3    H262471   4.018   3.742  14.618  1.2819  1.0306 -2.6260
13686TIP3   OH262472   4.987   4.078  12.471 -0.3825  0.0736  0.3035
13686TIP3    H162473   4.979   3.988  12.442 -1.4479  0.4970 -0.8117
13686TIP3    H262474   5.074   4.105  12.444 -0.5748 -0.2000 -0.6041
13687TIP3   OH262475   0.381   6.264   0.611 -0.3562  0.0603 -0.6613
13687TIP3    H162476   0.319   6.210   0.563 -1.1752 -1.3698  1.8422
13687TIP3    H262477   0.332   6.345   0.630 -0.9951 -0.4867  0.0869
13688TIP3   OH262478   4.264   3.546   5.300  0.1068 -0.1711  1.2619
13688TIP3    H162479   4.302   3.545   5.388  0.8330  0.6217  0.9751
13688TIP3    H262480   4.264   3.639   5.275 -0.5976 -0.3315  0.6422
13689TIP3   OH262481   6.587   3.797   6.295  0.0730 -0.2820  0.5822
13689TIP3    H162482   6.619   3.878   6.256  2.1478 -1.1518  0.2951
13689TIP3    H262483   6.667   3.753   6.327 -1.0251 -1.9584  1.1671
13690TIP3   OH262484   2.356   6.758  14.766 -0.2090  0.0888  0.1007
13690TIP3    H162485   2.297   6.683  14.759 -0.2323  0.1904 -1.0104
13690TIP3    H262486   2.344   6.790  14.856 -0.0401 -1.3536  0.6588
13691TIP3   OH262487   0.857   2.005  12.675 -0.3510  0.2978  0.0825
13691TIP3    H162488   0.813   1.969  12.751 -2.1849 -0.5555 -1.2993
13691TIP3    H262489   0.866   1.932  12.614  1.2659  0.8986 -0.4602
13692TIP3   OH262490   3.204   3.457  16.690  0.1633 -0.1985  0.5648
13692TIP3    H162491   3.167   3.475  16.603  0.6984  0.7284  0.5143
13692TIP3    H262492   3.270   3.525  16.702  0.4803 -0.6532  1.4758
13693TIP3   OH262493   0.254   2.379  11.678  0.8268 -0.4269  0.0707
13693TIP3    H162494   0.298   2.297  11.698 -0.2330 -0.7351  1.2160
13693TIP3    H262495   0.185   2.387  11.744  0.0357  0.7121 -0.8435
13694TIP3   OH262496   4.135   1.422   3.717 -0.0543 -0.4953  0.0888
13694TIP3    H162497   4.149   1.430   3.811  1.8591 -2.0873  0.0202
13694TIP3    H262498   4.160   1.332   3.697  1.5349  0.3523 -2.2117
13695TIP3   OH262499   0.906   3.675  14.075  0.3223 -0.2760  0.2440
13695TIP3    H162500   0.964   3.715  14.011 -0.5998 -2.2712 -2.0031
13695TIP3    H262501   0.818   3.705  14.050 -0.0161 -0.7058  0.8635
13696TIP3   OH262502   5.071   6.516  15.204  0.5171 -0.4101  0.1624
13696TIP3    H162503   5.091   6.560  15.286  2.1763 -1.4640  0.3708
13696TIP3    H262504   4.976   6.524  15.195  0.5493  1.5575  1.0907
13697TIP3   OH262505   3.244   4.979  14.741 -0.2881  0.1954 -0.4356
13697TIP3    H162506   3.224   4.905  14.684  3.0758 -1.7613  0.6927
13697TIP3    H262507   3.167   4.987  14.798 -0.5217 -2.9296 -0.1482
13698TIP3   OH262508   2.835   1.997  12.480  0.2656 -0.4791  0.3810
13698TIP3    H162509   2.780   2.050  12.422  3.7293  2.9471 -0.1495
13698TIP3    H262510   2.813   2.028  12.568  1.4406  1.1251  0.1494
13699TIP3   OH262511   0.856   1.601   0.955  0.5264  0.1583  0.4171
13699TIP3    H162512   0.878   1.680   0.905 -1.5560  0.5931  0.0777
13699TIP3    H262513   0.938   1.552   0.960  1.3865  1.3253 -1.2192
13700TIP3   OH262514   6.396   0.213   4.499  0.3423 -0.0434 -0.1676
13700TIP3    H162515   6.404   0.118   4.495  2.5460  0.0692  0.3780
13700TIP3    H262516   6.301   0.229   4.504 -0.0214 -2.2583  1.2821
13701TIP3   OH262517   0.936   2.604   0.755 -0.3176  0.0176 -0.1779
13701TIP3    H162518   0.893   2.529   0.715  1.1561 -0.7833 -0.2929
13701TIP3    H262519   1.016   2.617   0.704  0.0201  0.9512  0.5513
13702TIP3   OH262520   0.761   0.144  13.431  0.0420 -0.4831  0.3205
13702TIP3    H162521   0.759   0.230  13.473 -0.4552 -0.6252  0.5948
13702TIP3    H262522   0.798   0.161  13.344 -0.9021  0.1746  0.0214
13703TIP3   OH262523   1.550   2.346   5.864 -0.2793  0.1280  0.4862
13703TIP3    H162524   1.484   2.415   5.877  0.2079  0.4216  1.4726
13703TIP3    H262525   1.527   2.278   5.928 -0.3496 -0.3266 -0.0144
13704TIP3   OH262526   1.714   4.040   0.163 -0.1280 -0.1551  0.3876
13704TIP3    H162527   1.680   4.129   0.173  0.8539  0.2750 -0.0049
13704TIP3    H262528   1.782   4.033   0.230  0.1872 -0.4201  0.0364
13705TIP3   OH262529   3.779   6.452  13.042 -0.0510 -0.2051 -0.4350
13705TIP3    H162530   3.683   6.447  13.043 -0.2166  1.9803  0.8303
13705TIP3    H262531   3.803   6.474  13.132  1.5427  0.4568 -0.9806
13706TIP3   OH262532   5.831   3.896  11.593  0.9575  0.0742  0.4913
13706TIP3    H162533   5.839   3.988  11.567  1.4093 -0.1376 -0.1419
13706TIP3    H262534   5.911   3.878  11.642  1.9016 -0.5327 -1.1637
13707TIP3   OH262535   0.332   1.422  12.357  0.6544  0.1309  0.6935
13707TIP3    H162536   0.366   1.499  12.403 -0.9961 -0.4350  3.0844
13707TIP3    H262537   0.261   1.456  12.302 -0.0066  0.3811  1.6700
13708TIP3   OH262538   2.210   4.812   2.905 -0.6563 -0.2555 -0.5960
13708TIP3    H162539   2.129   4.862   2.918 -1.7968 -1.4993 -2.3485
13708TIP3    H262540   2.231   4.824   2.812  0.9842 -0.2502 -0.2455
13709TIP3   OH262541   6.059   2.840   1.365 -0.5797 -0.4737  0.1195
13709TIP3    H162542   6.151   2.855   1.387 -0.9114  0.5270  0.9288
13709TIP3    H262543   6.028   2.924   1.331 -1.1255 -0.8813 -0.4143
13710TIP3   OH262544   3.520   5.289  12.406 -0.0924  0.6560  0.6669
13710TIP3    H162545   3.583   5.260  12.340 -0.7922  2.1720 -0.7585
13710TIP3    H262546   3.573   5.339  12.469  0.4700 -0.1490  0.8536
13711TIP3   OH262547   1.195   0.596  13.171 -0.1236  0.0743  0.3221
13711TIP3    H162548   1.215   0.523  13.112 -1.5436 -0.0025 -0.1100
13711TIP3    H262549   1.100   0.592  13.183  0.1307 -0.0255  2.7898
13712TIP3   OH262550   0.954   0.498   2.847 -0.2953  0.4608  0.1494
13712TIP3    H162551   1.021   0.567   2.843 -0.6951  0.8166 -1.1881
13712TIP3    H262552   0.900   0.521   2.922  1.6322 -0.3954  1.8956
13713TIP3   OH262553   1.419   5.639   5.940  0.5056  0.5196 -0.1087
13713TIP3    H162554   1.424   5.658   5.846 -0.6030 -0.4934 -0.4001
13713TIP3    H262555   1.495   5.683   5.977  2.3319 -1.0121 -1.8161
13714TIP3   OH262556   5.546   0.379   0.340  0.0116  0.6787  0.0715
13714TIP3    H162557   5.588   0.397   0.256 -0.3484  0.2943 -0.1929
13714TIP3    H262558   5.518   0.288   0.334 -2.4393  1.3864 -0.4629
13715TIP3   OH262559   6.453   1.709   6.119  0.2867 -0.1126  0.4973
13715TIP3    H162560   6.467   1.710   6.214  2.8875  0.1809  0.1827
13715TIP3    H262561   6.507   1.636   6.088 -0.2001  0.0645 -0.7881
13716TIP3   OH262562   5.151   0.168   2.673 -0.5082 -0.2737 -0.1385
13716TIP3    H162563   5.167   0.261   2.659  2.5377 -0.9324 -2.0568
13716TIP3    H262564   5.208   0.145   2.746  0.0650 -0.9060 -0.7683
13717TIP3   OH262565   5.106   3.872   2.279  0.0390  0.2590  0.6142
13717TIP3    H162566   5.181   3.873   2.338  0.5934  0.5765 -0.0805
13717TIP3    H262567   5.122   3.945   2.218 -0.3614 -0.2443 -0.1093
13718TIP3   OH262568   5.539   4.101  16.493 -0.1352 -0.0131  0.7689
13718TIP3    H162569   5.480   4.027  16.503 -0.0136 -0.0176  1.4692
13718TIP3    H262570   5.592   4.101  16.573  1.2060 -0.3560 -0.0719
13719TIP3   OH262571   5.768   0.530  15.466  0.4180  0.8116  0.6251
13719TIP3    H162572   5.832   0.600  15.456  0.4475  0.8881  1.3090
13719TIP3    H262573   5.811   0.453  15.429  0.4222  1.1224 -0.0461
13720TIP3   OH262574   3.336   3.172   1.040 -0.0868  0.5683 -0.1387
13720TIP3    H162575   3.325   3.078   1.034 -0.2469  0.6532 -5.7870
13720TIP3    H262576   3.426   3.184   1.072  0.6786 -1.6022 -1.3324
13721TIP3   OH262577   3.063   4.870   0.247 -0.0600 -0.0420  0.2158
13721TIP3    H162578   3.070   4.957   0.207 -0.4636  0.8597  2.0122
13721TIP3    H262579   3.144   4.861   0.298  0.0824 -0.8439 -0.1332
13722TIP3   OH262580   3.070   0.162  13.898  0.1601  0.1530 -0.9342
13722TIP3    H162581   3.068   0.105  13.821 -1.0156 -1.0995 -0.0206
13722TIP3    H262582   2.980   0.160  13.932  0.9633 -0.5420  1.3196
13723TIP3   OH262583   1.539   1.646  11.419  0.0476 -0.5164 -0.6718
13723TIP3    H162584   1.556   1.640  11.325  0.5530  0.2530 -0.6366
13723TIP3    H262585   1.623   1.672  11.457 -0.4339  0.3161 -0.1408
13724TIP3   OH262586   1.795   4.177   1.775  0.2600  0.3361 -0.0302
13724TIP3    H162587   1.838   4.108   1.726 -1.5200 -0.7122 -0.2048
13724TIP3    H262588   1.808   4.154   1.867 -0.8438 -0.6155 -0.0888
13725TIP3   OH262589   6.452   1.756   4.059 -0.4166 -0.7968  0.2574
13725TIP3    H162590   6.530   1.701   4.070 -0.8426 -1.5814 -0.4382
13725TIP3    H262591   6.390   1.722   4.123  0.3201  0.8709  1.9336
13726TIP3   OH262592   0.732   0.976  14.315 -0.2655 -0.2090  0.4793
13726TIP3    H162593   0.678   0.955  14.238  0.1298  0.6303 -0.0508
13726TIP3    H262594   0.693   1.057  14.349 -0.5185 -0.6507  1.2494
13727TIP3   OH262595   2.881   2.815   2.680 -0.4789  0.2458  0.6348
13727TIP3    H162596   2.846   2.844   2.764 -0.2912  1.4838  0.3123
13727TIP3    H262597   2.961   2.767   2.702 -1.1602 -0.6251  1.2369
13728TIP3   OH262598   4.858   2.349   4.281 -0.4620  0.0583 -0.0653
13728TIP3    H162599   4.903   2.432   4.292  0.3267 -0.1835 -1.2950
13728TIP3    H262600   4.872   2.302   4.364  0.6073  0.4298 -0.0286
13729TIP3   OH262601   6.732   1.228   4.335  0.2136  0.5947 -0.3072
13729TIP3    H162602   6.643   1.226   4.370  0.7106  1.7566  1.1206
13729TIP3    H262603   6.788   1.240   4.411  1.5205  0.9157 -1.2791
13730TIP3   OH262604   6.561   6.694  12.325 -0.2301  0.0111 -0.4642
13730TIP3    H162605   6.491   6.628  12.322  0.1327 -0.3615 -1.0835
13730TIP3    H262606   6.519   6.774  12.294 -0.7017  0.1047  0.3938
13731TIP3   OH262607   2.524   0.016   4.316  0.0554 -0.2645 -0.0401
13731TIP3    H162608   2.516   0.076   4.242 -0.8686 -1.9246 -1.3496
13731TIP3    H262609   2.434  -0.005   4.340  0.3495 -0.1941  1.2131
13732TIP3   OH262610   2.519   5.783   2.309 -0.4399  0.1154 -0.4694
13732TIP3    H162611   2.552   5.752   2.393  0.6829 -0.5554 -1.1329
13732TIP3    H262612   2.426   5.762   2.311 -0.6648  1.0605  1.0119
13733TIP3   OH262613   6.024   2.126  12.385  0.4887  0.1165  0.4129
13733TIP3    H162614   6.082   2.136  12.309 -0.5601 -0.1373 -0.4588
13733TIP3    H262615   6.045   2.040  12.420  0.0047 -0.3790 -0.4755
13734TIP3   OH262616   0.721   2.946  16.403 -0.0902 -0.0082 -0.2314
13734TIP3    H162617   0.747   3.030  16.439 -0.6755 -0.6565  1.8349
13734TIP3    H262618   0.775   2.935  16.325  1.6759  1.2216  0.7679
13735TIP3   OH262619   6.373   3.092  16.942 -0.3022  0.1661  0.0852
13735TIP3    H162620   6.381   3.133  17.028 -1.9283  0.7643 -0.0115
13735TIP3    H262621   6.354   3.164  16.882  0.8338 -0.2356 -0.8081
13736TIP3   OH262622   0.516   3.207   2.028  0.1430 -0.0657  0.3998
13736TIP3    H162623   0.493   3.159   1.949 -0.8108  3.1129 -1.4664
13736TIP3    H262624   0.596   3.254   2.005  1.1342 -0.7899  2.1821
13737TIP3   OH262625   6.553   5.665   5.184  0.0720  0.1624 -0.0303
13737TIP3    H162626   6.541   5.755   5.214  0.4015  0.5546 -1.0384
13737TIP3    H262627   6.610   5.673   5.107  0.0470 -0.8985 -0.1666
13738TIP3   OH262628   3.124   4.678  16.011 -0.1815 -0.4410 -0.6406
13738TIP3    H162629   3.129   4.678  16.106  1.5478  0.1986 -0.6913
13738TIP3    H262630   3.214   4.666  15.982 -0.2727  1.9161 -2.1706
13739TIP3   OH262631   6.694   3.082  14.538  0.0501 -0.1815 -0.3190
13739TIP3    H162632   6.653   3.105  14.454 -0.9495  0.6084  0.3478
13739TIP3    H262633   6.695   3.165  14.587 -2.3081 -1.1691  1.6251
13740TIP3   OH262634   5.697   1.871   2.878 -0.2342 -0.4277  0.0813
13740TIP3    H162635   5.728   1.799   2.823 -0.0691 -0.2008 -0.1265
13740TIP3    H262636   5.712   1.842   2.968  1.5447  0.0857 -0.0182
13741TIP3   OH262637   6.295   3.258  15.562  0.4288 -0.0163  0.0932
13741TIP3    H162638   6.272   3.351  15.556 -2.3571 -0.7140 -1.8996
13741TIP3    H262639   6.256   3.230  15.645 -2.0727 -0.1081 -1.0185
13742TIP3   OH262640   3.885   2.149  13.798  0.1666 -0.1318  0.2203
13742TIP3    H162641   3.840   2.167  13.881  0.7646  1.2214  0.2704
13742TIP3    H262642   3.939   2.073  13.817 -0.7894 -0.7375  0.6436
13743TIP3   OH262643   3.703   4.262  11.510 -0.3125 -0.0929  0.4542
13743TIP3    H162644   3.630   4.267  11.448 -1.7277  0.3253  2.0694
13743TIP3    H262645   3.777   4.301  11.464 -0.9247 -1.0549 -1.4588
13744TIP3   OH262646   2.000   3.790  12.291 -0.0183 -1.1568  0.4918
13744TIP3    H162647   2.024   3.714  12.344 -2.0240 -1.7040  0.7069
13744TIP3    H262648   1.920   3.763  12.245 -0.6530  0.7369  0.3853
13745TIP3   OH262649   1.852   4.904  14.146 -0.1322  0.3227  0.0175
13745TIP3    H162650   1.821   4.827  14.098 -0.9506 -0.8461  2.2870
13745TIP3    H262651   1.941   4.919  14.114 -0.1205 -1.3072 -0.7770
13746TIP3   OH262652   3.187   3.272   4.152  0.4489  0.0235  0.1043
13746TIP3    H162653   3.108   3.280   4.206  1.0046 -0.0784  0.9468
13746TIP3    H262654   3.154   3.246   4.065 -0.3273 -2.0379  0.9446
13747TIP3   OH262655   5.828   0.386  11.884  0.5192 -0.4094  0.0182
13747TIP3    H162656   5.873   0.469  11.903  0.8194 -0.6682  0.4584
13747TIP3    H262657   5.822   0.342  11.969  0.5559 -0.9363 -0.2480
13748TIP3   OH262658   2.200   5.573  16.635  0.2444 -0.2918  0.2801
13748TIP3    H162659   2.263   5.640  16.661 -0.0683 -0.0571  0.4562
13748TIP3    H262660   2.253   5.500  16.603  0.5920  1.3217 -3.2802
13749TIP3   OH262661   6.761   2.316  14.176 -0.5023  0.0237 -0.1825
13749TIP3    H162662   6.830   2.372  14.213  0.3199 -1.8721  1.3595
13749TIP3    H262663   6.804   2.272  14.102  0.3352 -1.8202  1.3090
13750TIP3   OH262664   5.324   4.209   3.488 -0.0762  0.2468 -0.3723
13750TIP3    H162665   5.398   4.210   3.426  0.7049  0.3424  0.5322
13750TIP3    H262666   5.276   4.129   3.467 -0.7294  1.0368 -2.1075
13751TIP3   OH262667   5.607   3.015   5.850 -0.1026 -0.3866 -0.1453
13751TIP3    H162668   5.607   3.035   5.756 -0.0146  0.5335  0.0422
13751TIP3    H262669   5.620   3.099   5.893  3.5684 -1.1735  0.6479
13752TIP3   OH262670   1.142   5.880   3.152  0.2600 -0.5328  0.6488
13752TIP3    H162671   1.054   5.910   3.131 -0.5369 -1.4106  2.5030
13752TIP3    H262672   1.173   5.836   3.073 -0.8504  0.0202 -0.1098
13753TIP3   OH262673   4.196   4.740   3.064 -0.3393  0.0511  0.4203
13753TIP3    H162674   4.212   4.650   3.035  0.0655  0.7125 -1.5736
13753TIP3    H262675   4.269   4.790   3.027 -1.3905  1.4492  0.1426
13754TIP3   OH262676   0.610   3.933  17.123 -0.4285  0.6543  0.2589
13754TIP3    H162677   0.529   3.984  17.112 -2.7432 -2.5530  1.0883
13754TIP3    H262678   0.598   3.857  17.065  0.9610 -0.9978  2.0471
13755TIP3   OH262679   2.337   1.755  17.128 -0.6380 -0.3230  0.3201
13755TIP3    H162680   2.273   1.703  17.175 -0.5122 -1.5700 -0.8443
13755TIP3    H262681   2.357   1.828  17.187 -1.6215 -0.9992  1.5167
13756TIP3   OH262682   5.794   1.081   5.792  0.1065 -0.2624 -0.0721
13756TIP3    H162683   5.708   1.119   5.771  0.1520  0.9953  1.7918
13756TIP3    H262684   5.852   1.113   5.723 -0.2669  1.5589  0.4189
13757TIP3   OH262685   0.582   3.785  16.098  0.3740  0.2197 -1.0084
13757TIP3    H162686   0.554   3.777  16.190 -1.3446  0.0919 -1.4955
13757TIP3    H262687   0.677   3.786  16.102  0.3399  0.6439  0.8192
13758TIP3   OH262688   1.372   1.963  15.734 -0.1806 -0.0814 -0.4459
13758TIP3    H162689   1.308   1.959  15.663 -0.9435 -1.2319  0.2636
13758TIP3    H262690   1.429   1.888  15.720 -1.6561 -1.6558  1.2873
13759TIP3   OH262691   4.989   5.845   0.683  0.4425 -0.1203  0.5783
13759TIP3    H162692   4.972   5.824   0.591  1.0312  1.8934 -0.0445
13759TIP3    H262693   4.939   5.780   0.732  1.7279 -2.5461 -1.1120
13760TIP3   OH262694   0.598   4.080  12.128  0.1672 -0.1896  0.2485
13760TIP3    H162695   0.563   4.166  12.152 -0.6691 -0.1837 -0.8915
13760TIP3    H262696   0.583   4.074  12.034  0.9555 -1.2628  0.1716
13761TIP3   OH262697   1.770   5.120  13.992 -0.4660  0.0373 -0.8559
13761TIP3    H162698   1.810   5.034  14.009 -1.8019 -0.2892  0.9707
13761TIP3    H262699   1.841   5.183  14.004  1.0691 -0.8128 -4.1904
13762TIP3   OH262700   3.259   5.825  15.395 -0.1865 -0.4936  0.4215
13762TIP3    H162701   3.181   5.873  15.420 -0.5058 -1.1498  0.7140
13762TIP3    H262702   3.307   5.885  15.338 -1.1938 -0.3141 -0.2530
13763TIP3   OH262703   0.427   3.826  14.302  0.5374 -0.2413  0.1750
13763TIP3    H162704   0.361   3.825  14.370 -0.2836  0.5419 -0.5881
13763TIP3    H262705   0.408   3.904  14.250  1.9360 -0.1018 -0.1832
13764TIP3   OH262706   6.779   5.713  16.378  0.4580  0.2513 -0.3433
13764TIP3    H162707   6.694   5.755  16.392 -0.6152 -2.2680  1.3315
13764TIP3    H262708   6.767   5.660  16.300  0.8402  0.6727 -0.6935
13765TIP3   OH262709   0.251   1.059   0.826 -0.7349 -0.4590 -0.2560
13765TIP3    H162710   0.163   1.054   0.787 -0.5209  0.3427 -0.8494
13765TIP3    H262711   0.309   1.078   0.752  0.0404 -1.6433  0.0185
13766TIP3   OH262712   4.097   5.118   2.181  0.0264  0.3929 -0.7771
13766TIP3    H162713   4.102   5.131   2.276 -1.1264  1.1333 -0.7834
13766TIP3    H262714   4.085   5.207   2.146 -2.5397 -0.0750 -1.3354
13767TIP3   OH262715   3.906   5.826   4.297  0.2150  0.1216 -0.0354
13767TIP3    H162716   3.974   5.874   4.250 -0.4833 -0.7065 -2.0073
13767TIP3    H262717   3.824   5.856   4.256 -0.3712 -1.1600  0.1725
13768TIP3   OH262718   4.819   1.836   5.207 -0.3885  0.0271  0.2635
13768TIP3    H162719   4.777   1.913   5.245 -0.5598 -0.6168  1.4057
13768TIP3    H262720   4.762   1.763   5.230  0.9474 -0.7683  1.1948
13769TIP3   OH262721   3.969   0.007   3.287 -0.8284 -0.4507  0.1242
13769TIP3    H162722   4.044  -0.052   3.292 -1.5969 -1.6176 -1.3039
13769TIP3    H262723   3.922  -0.007   3.369 -0.4496 -1.0442  0.2443
13770TIP3   OH262724   2.279   5.839  11.371 -0.0572 -0.0498  0.1399
13770TIP3    H162725   2.308   5.763  11.320  1.5790 -0.8645  2.1275
13770TIP3    H262726   2.330   5.835  11.452  0.6623  3.5958  0.0659
13771TIP3   OH262727   1.575   4.651  12.325  0.0360  1.1886  0.3430
13771TIP3    H162728   1.532   4.727  12.365 -0.5068  1.9404 -1.5881
13771TIP3    H262729   1.528   4.637  12.243  0.5800 -0.8247  0.3292
13772TIP3   OH262730   3.650   5.875  15.188 -0.7056  0.4520 -0.2747
13772TIP3    H162731   3.644   5.833  15.273  1.5980 -0.5351 -0.5484
13772TIP3    H262732   3.568   5.852  15.144 -1.0535 -0.6859  0.9190
13773TIP3   OH262733   6.672   1.767   1.286 -0.3498  0.0198 -0.2800
13773TIP3    H162734   6.715   1.766   1.371 -0.3359 -0.7610 -0.2936
13773TIP3    H262735   6.579   1.767   1.306 -0.3502 -0.5404 -0.2582
13774TIP3   OH262736   2.411   0.689   4.690 -0.0395  0.0038 -0.4960
13774TIP3    H162737   2.390   0.730   4.606 -1.9929 -0.3816 -0.2363
13774TIP3    H262738   2.352   0.732   4.752  1.5829  0.5052  0.7818
13775TIP3   OH262739   3.670   3.377   4.153  0.1727  0.1072  0.0444
13775TIP3    H162740   3.751   3.426   4.164 -0.1482  0.5487  0.5172
13775TIP3    H262741   3.663   3.362   4.059  0.4233  0.7305 -0.0779
13776TIP3   OH262742   2.757   3.166   2.900  0.6579 -0.0500  0.3805
13776TIP3    H162743   2.722   3.130   2.982  1.5866 -1.5253  0.1729
13776TIP3    H262744   2.852   3.156   2.909  0.7333 -1.6916 -1.4647
13777TIP3   OH262745   0.386   3.895  12.480  0.3407  0.0778  0.0411
13777TIP3    H162746   0.398   3.811  12.523 -0.6234  0.2758  0.7294
13777TIP3    H262747   0.434   3.888  12.398  3.6919  0.2572  1.8260
13778TIP3   OH262748   0.547   4.675  13.295 -0.2745  0.0855 -0.3039
13778TIP3    H162749   0.609   4.604  13.282 -0.2602  0.3005 -1.4869
13778TIP3    H262750   0.573   4.742  13.232 -1.1908  0.5287 -0.2300
13779TIP3   OH262751   4.791   1.943   0.330  0.8700 -0.0006 -0.0209
13779TIP3    H162752   4.715   1.913   0.380 -0.4237  0.6469 -1.4876
13779TIP3    H262753   4.791   1.887   0.251 -0.0461  2.0512 -1.5623
13780TIP3   OH262754   2.185   4.729   5.246  0.5960 -0.0596  0.6303
13780TIP3    H162755   2.202   4.712   5.153  1.5628  1.3735  0.5227
13780TIP3    H262756   2.268   4.712   5.289 -0.1475 -1.9070  1.4677
13781TIP3   OH262757   2.801   0.948  13.226  0.6555  0.1935  0.0798
13781TIP3    H162758   2.890   0.981  13.234  1.4909 -1.9045  0.1909
13781TIP3    H262759   2.746   1.017  13.263  2.3639  0.8797  1.4781
13782TIP3   OH262760   1.902   3.909  12.004  0.4677 -0.3899  0.4322
13782TIP3    H162761   1.852   3.987  12.028  0.4090  0.0506 -1.0100
13782TIP3    H262762   1.855   3.837  12.044 -0.3409  0.1820  0.5413
13783TIP3   OH262763   0.170   2.363  15.267  0.0589 -0.0478  0.7002
13783TIP3    H162764   0.126   2.441  15.233  0.5215 -0.0698  0.0245
13783TIP3    H262765   0.167   2.373  15.362 -0.0104  0.7216  0.6241
13784TIP3   OH262766   2.858   6.146  11.062  0.2981  0.3304 -0.0102
13784TIP3    H162767   2.801   6.135  11.138  0.2918 -1.6502 -0.2342
13784TIP3    H262768   2.875   6.240  11.057 -3.3169  1.1022 -0.2252
13785TIP3   OH262769   2.865   5.589   3.458  0.1186 -0.0735  0.4827
13785TIP3    H162770   2.926   5.556   3.392  0.7237 -0.1452  1.0663
13785TIP3    H262771   2.822   5.663   3.416  1.6333  0.8756  0.5344
13786TIP3   OH262772   5.597   6.603  16.976 -0.4032  0.0119  0.4104
13786TIP3    H162773   5.666   6.647  16.927 -0.4010  0.3750  0.7342
13786TIP3    H262774   5.529   6.586  16.911  0.1212 -0.6418  0.0220
13787TIP3   OH262775   2.256   4.385   0.392 -0.3500  0.2485 -0.0585
13787TIP3    H162776   2.248   4.384   0.297  0.3880 -2.6054 -0.1663
13787TIP3    H262777   2.335   4.438   0.408 -0.2852  0.4745 -1.0398
13788TIP3   OH262778   4.953   4.933  11.364 -0.2853  0.1904 -0.2796
13788TIP3    H162779   5.042   4.953  11.337 -0.6942  1.9060 -0.4664
13788TIP3    H262780   4.964   4.873  11.439  0.9775 -0.1480 -0.7036
13789TIP3   OH262781   3.933   0.223  11.731 -0.1226  0.0084  0.3860
13789TIP3    H162782   3.966   0.204  11.819  0.4171 -1.3159 -0.0673
13789TIP3    H262783   3.899   0.138  11.701 -0.9207  0.6042 -0.4298
13790TIP3   OH262784   1.973   3.636  15.877 -0.5590 -0.1785  0.5478
13790TIP3    H162785   1.993   3.729  15.866 -1.6027 -0.1268 -1.2919
13790TIP3    H262786   2.026   3.592  15.811 -0.9311 -0.7732  0.6418
13791TIP3   OH262787   3.956   2.193   5.933  0.0004 -0.3421 -0.2257
13791TIP3    H162788   3.873   2.186   5.980  1.0817 -0.9641  1.7207
13791TIP3    H262789   3.981   2.103   5.915  0.2929 -0.1601 -0.7500
13792TIP3   OH262790   3.365   3.471   3.213  0.1136  0.2633  0.5895
13792TIP3    H162791   3.451   3.443   3.180 -0.6473 -0.4389 -0.8801
13792TIP3    H262792   3.328   3.523   3.142 -0.9751 -0.0319  0.9286
13793TIP3   OH262793   0.363   2.456  13.680  0.2433  0.0690  0.4045
13793TIP3    H162794   0.458   2.447  13.670  0.1726 -0.0416 -0.1764
13793TIP3    H262795   0.326   2.405  13.609 -0.2726 -0.5175  1.0783
13794TIP3   OH262796   4.064   4.559   3.248 -0.0554  0.1570  0.4566
13794TIP3    H162797   4.095   4.645   3.222  0.5975  0.0211  0.7587
13794TIP3    H262798   4.140   4.502   3.237 -0.6506 -0.5080 -0.3395
13795TIP3   OH262799   5.404   3.900  16.025 -0.1300  0.2423  0.7076
13795TIP3    H162800   5.466   3.884  15.954  1.6760 -2.2674  2.6669
13795TIP3    H262801   5.325   3.853  15.999  1.1618 -2.2748  1.1172
13796TIP3   OH262802   5.267   3.298  11.987  0.3909  0.0175 -0.4209
13796TIP3    H162803   5.261   3.390  12.012  0.9572  0.0834 -0.4999
13796TIP3    H262804   5.338   3.296  11.923  0.5138 -0.5033 -0.2702
13797TIP3   OH262805   0.700   4.664   0.632  0.3860  0.1746 -0.3807
13797TIP3    H162806   0.671   4.603   0.700 -4.5198  1.2301 -1.1667
13797TIP3    H262807   0.681   4.619   0.549 -0.7000  1.6225 -0.9606
13798TIP3   OH262808   3.490   6.088   2.676 -0.5439 -0.0535  0.3621
13798TIP3    H162809   3.570   6.093   2.728 -0.6921 -2.1340  0.8696
13798TIP3    H262810   3.500   6.009   2.623 -1.1728  1.0517 -1.5202
13799TIP3   OH262811   4.788   3.564  15.979  0.3838  0.4372  0.5424
13799TIP3    H162812   4.821   3.654  15.974 -1.0372  0.9286 -0.9200
13799TIP3    H262813   4.822   3.522  15.900  0.0021  0.0595  0.5774
13800TIP3   OH262814   2.622   3.987   5.064 -0.0823 -0.0179 -0.4783
13800TIP3    H162815   2.586   4.071   5.092  0.1043  0.7937 -2.4996
13800TIP3    H262816   2.663   4.005   4.979  0.2707 -2.0822 -0.8112
13801TIP3   OH262817   2.940   0.280   2.242 -0.4804 -0.6559  0.5249
13801TIP3    H162818   3.029   0.273   2.207 -0.9397 -0.8528 -0.6470
13801TIP3    H262819   2.952   0.277   2.337  0.6988 -1.5429  0.3765
13802TIP3   OH262820   4.217   4.958  12.161  0.0712  0.1067  0.2523
13802TIP3    H162821   4.216   5.049  12.191  0.0183  0.3081 -0.3457
13802TIP3    H262822   4.216   4.964  12.065  1.6554 -0.4914  0.1718
13803TIP3   OH262823   1.084   5.291  12.906 -0.0028  0.7096  0.1275
13803TIP3    H162824   1.065   5.277  12.999  1.0025 -0.4150  0.1802
13803TIP3    H262825   1.179   5.297  12.902  0.1630 -1.5726 -1.0801
13804TIP3   OH262826   4.358   5.096  15.835  0.1142 -0.0395 -0.1832
13804TIP3    H162827   4.425   5.145  15.787 -1.8961  2.8320 -0.3699
13804TIP3    H262828   4.312   5.047  15.768 -0.7678  1.5778 -0.8284
13805TIP3   OH262829   6.186   1.551   6.343 -0.1169 -0.4195 -0.1353
13805TIP3    H162830   6.273   1.590   6.356 -0.2040 -0.3486  0.2448
13805TIP3    H262831   6.190   1.468   6.390  0.6170 -1.6759 -2.2843
13806TIP3   OH262832   1.215   3.082   5.627  0.7991  0.8260  0.2295
13806TIP3    H162833   1.248   3.035   5.549  0.2309 -0.1198  0.5353
13806TIP3    H262834   1.235   3.174   5.610  3.6793  0.3353  0.4415
13807TIP3   OH262835   5.887   4.555  13.738 -0.3120  0.2962  0.6484
13807TIP3    H162836   5.824   4.611  13.784 -0.3659  1.5226 -0.8366
13807TIP3    H262837   5.959   4.615  13.715  0.6646 -0.7417  0.9295
13808TIP3   OH262838   6.438   2.382   5.318  0.0984  0.2967  0.2412
13808TIP3    H162839   6.497   2.452   5.291  0.7790 -0.5218 -0.4110
13808TIP3    H262840   6.494   2.319   5.363 -0.6339  0.5080  1.5064
13809TIP3   OH262841   5.180   4.194   6.250  0.5136 -0.3449 -0.0383
13809TIP3    H162842   5.139   4.111   6.226 -0.6969  0.0572  0.5600
13809TIP3    H262843   5.112   4.242   6.298  0.6704  1.6016 -1.6287
13810TIP3   OH262844   4.880   0.032  14.041  0.5574 -0.5750 -0.1261
13810TIP3    H162845   4.845   0.117  14.014 -2.3564 -2.0751 -1.4896
13810TIP3    H262846   4.829   0.008  14.118  2.4159 -0.5144  1.2165
13811TIP3   OH262847   6.094   0.269  11.105  0.3723  0.4980  0.1466
13811TIP3    H162848   6.061   0.340  11.050  1.7604  0.3404 -0.9551
13811TIP3    H262849   6.071   0.189  11.057 -0.6206  0.2250  1.0630
13812TIP3   OH262850   4.675   6.352   0.043  0.1924 -0.5222 -1.0632
13812TIP3    H162851   4.608   6.416   0.065  2.0090  1.1261  0.0491
13812TIP3    H262852   4.646   6.271   0.085  0.5320  1.0098  2.4485
13813TIP3   OH262853   0.804   0.471  12.232 -0.0365 -0.1796 -0.2704
13813TIP3    H162854   0.732   0.514  12.185 -0.2101 -1.5148 -1.2876
13813TIP3    H262855   0.883   0.502  12.189 -0.0735  0.1957 -0.0744
13814TIP3   OH262856   6.138   6.173   2.184 -0.3459 -0.2245  0.1589
13814TIP3    H162857   6.146   6.215   2.270 -2.5728 -0.2395  0.4458
13814TIP3    H262858   6.122   6.246   2.124 -0.0757 -0.3171 -0.0221
13815TIP3   OH262859   0.023   6.743   2.659  0.5812 -0.1593 -0.4829
13815TIP3    H162860   0.057   6.737   2.569  1.1256  0.0011 -0.2912
13815TIP3    H262861   0.100   6.731   2.714 -0.1190 -2.8210  0.0217
13816TIP3   OH262862   3.360   3.460   4.481 -0.3702  0.3036  0.2630
13816TIP3    H162863   3.455   3.477   4.486 -0.5149  2.2325 -1.8293
13816TIP3    H262864   3.321   3.530   4.533 -0.6829 -0.3297  0.8927
13817TIP3   OH262865   0.245   5.992  11.540  0.2364 -0.0639 -0.1376
13817TIP3    H162866   0.299   5.994  11.620  0.2714 -0.0831 -0.1611
13817TIP3    H262867   0.162   6.031  11.567  0.5397  0.7180 -0.3087
13818TIP3   OH262868   6.540   0.934  15.314 -0.3403 -0.3200 -0.1698
13818TIP3    H162869   6.617   0.926  15.258 -0.6502 -0.4049 -0.5810
13818TIP3    H262870   6.527   0.846  15.349 -0.7245 -0.4865 -0.7253
13819TIP3   OH262871   4.022   0.245   4.523 -0.3975 -1.0016 -0.3264
13819TIP3    H162872   3.948   0.278   4.573  0.1960  0.3984 -0.3129
13819TIP3    H262873   3.988   0.236   4.434 -0.5350 -0.1124 -0.3770
13820TIP3   OH262874   1.781   5.680   5.819 -0.3248 -0.2792  0.1972
13820TIP3    H162875   1.750   5.700   5.907  1.7434 -0.6917  1.0971
13820TIP3    H262876   1.799   5.766   5.780 -0.3922 -0.1199  0.5159
13821TIP3   OH262877   2.605   5.219  11.300  0.1665  0.1417 -0.0162
13821TIP3    H162878   2.653   5.163  11.239  1.1486 -2.0163  2.5315
13821TIP3    H262879   2.517   5.181  11.303  0.0562  0.3790 -0.2497
13822TIP3   OH262880   4.851   0.292   0.728  0.4360  0.1630  0.2938
13822TIP3    H162881   4.924   0.343   0.693 -0.5162  0.5847 -1.1773
13822TIP3    H262882   4.785   0.294   0.659 -0.2777 -1.7129  0.8630
13823TIP3   OH262883   5.234   4.156   0.329  0.0083 -0.2401  0.2992
13823TIP3    H162884   5.180   4.147   0.408 -0.6830  0.1695 -0.1171
13823TIP3    H262885   5.230   4.250   0.309  0.9166 -0.1978  0.2851
13824TIP3   OH262886   3.047   3.359   3.243 -0.8607  0.5391  0.3960
13824TIP3    H162887   3.073   3.340   3.333 -1.0572  0.1436  0.3733
13824TIP3    H262888   3.119   3.412   3.208 -1.7431  2.5361  1.4261
13825TIP3   OH262889   3.859   5.754  17.125 -0.7321  0.2082 -0.0435
13825TIP3    H162890   3.845   5.668  17.084  1.3660 -0.2454  0.0257
13825TIP3    H262891   3.944   5.782  17.090 -1.6941  2.6141 -0.6064
13826TIP3   OH262892   4.464   4.387   5.419  0.0846 -0.3197  0.4373
13826TIP3    H162893   4.522   4.435   5.360 -0.5228  0.0238  0.1169
13826TIP3    H262894   4.500   4.404   5.506 -0.5014  1.2765  0.3929
13827TIP3   OH262895   0.800   2.944   5.823 -0.1626 -0.0470 -0.1725
13827TIP3    H162896   0.886   2.981   5.844  0.3982 -1.4916  0.1486
13827TIP3    H262897   0.761   2.925   5.908 -0.5664  0.0790 -0.3293
13828TIP3   OH262898   0.377   3.009  15.192  0.0726  0.1667 -0.8985
13828TIP3    H162899   0.430   3.025  15.114  0.5941 -2.4250 -1.1670
13828TIP3    H262900   0.422   3.056  15.262  0.4409  1.2855 -1.8408
13829TIP3   OH262901   0.682   2.758  15.146 -0.2937  0.0129  0.3558
13829TIP3    H162902   0.697   2.664  15.136 -0.7762 -0.0106 -0.2515
13829TIP3    H262903   0.586   2.767  15.140 -0.2878  0.4799  0.9710
13830TIP3   OH262904   0.189   6.030  14.603  0.7552 -0.1408 -0.4719
13830TIP3    H162905   0.193   5.983  14.686 -2.1161 -0.5220 -0.4530
13830TIP3    H262906   0.184   5.962  14.536  1.2457  0.1615 -0.8231
13831TIP3   OH262907   5.690   3.919   3.556 -0.1282  0.1542 -0.1413
13831TIP3    H162908   5.662   3.960   3.638  0.4628  0.4795 -0.0929
13831TIP3    H262909   5.672   3.985   3.489  0.5540  0.3851 -0.1027
13832TIP3   OH262910   5.664   1.124  12.120 -0.2779 -0.1824 -0.0677
13832TIP3    H162911   5.700   1.048  12.167  0.6333 -0.0024 -0.4657
13832TIP3    H262912   5.727   1.194  12.135  0.7285 -0.4408 -2.5626
13833TIP3   OH262913   6.635   5.731   3.407 -0.2995 -0.8752  0.3188
13833TIP3    H162914   6.603   5.782   3.333 -0.5055 -0.5905  0.5992
13833TIP3    H262915   6.601   5.643   3.393 -0.6513 -0.7314  0.2690
13834TIP3   OH262916   1.686   5.083  11.853 -0.0191  0.7614  0.3636
13834TIP3    H162917   1.663   4.994  11.880  0.6254  0.2143 -0.8517
13834TIP3    H262918   1.631   5.139  11.908  1.9550 -0.2105  3.6238
13835TIP3   OH262919   5.425   3.002  14.337 -0.3450  0.0417 -0.4229
13835TIP3    H162920   5.508   3.049  14.347 -0.7933  0.9723 -1.0341
13835TIP3    H262921   5.359   3.059  14.376 -0.5701 -1.2166  1.1505
13836TIP3   OH262922   5.220   3.654   2.115  0.7121 -0.4220  0.6111
13836TIP3    H162923   5.141   3.651   2.061  0.7903 -1.9178  0.5506
13836TIP3    H262924   5.189   3.683   2.201  0.4030  0.8000  0.1152
13837TIP3   OH262925   3.743   4.627   3.357  0.1436 -0.2966  0.0491
13837TIP3    H162926   3.794   4.662   3.430  0.6205 -0.0463 -0.4052
13837TIP3    H262927   3.671   4.579   3.400 -1.1888  2.1066  0.7190
13838TIP3   OH262928   4.784   1.201   0.220 -0.6861  0.3539 -0.3381
13838TIP3    H162929   4.877   1.193   0.202 -0.5452  1.7157 -0.3605
13838TIP3    H262930   4.772   1.162   0.306 -0.2768 -0.6941 -0.7401
13839TIP3   OH262931   2.145   5.293  15.948 -0.3639  0.3235 -0.5720
13839TIP3    H162932   2.069   5.264  15.999  0.4647  0.8843  1.0681
13839TIP3    H262933   2.215   5.232  15.973  0.6276  1.8913  0.6975
13840TIP3   OH262934   4.328   5.759   0.701 -0.3436  0.0710  0.2930
13840TIP3    H162935   4.375   5.784   0.622 -2.3968  0.7828 -0.7774
13840TIP3    H262936   4.393   5.713   0.754  1.6001  1.2230 -0.9558
13841TIP3   OH262937   5.912   6.233   2.680  0.3973  0.0352  0.1170
13841TIP3    H162938   5.902   6.240   2.585  1.7311  1.1870  0.0167
13841TIP3    H262939   5.823   6.228   2.713 -0.0912 -0.6375 -1.1985
13842TIP3   OH262940   2.272   3.401  17.083 -0.2279  0.4311 -0.1898
13842TIP3    H162941   2.357   3.413  17.041 -0.9555  1.5877 -1.4389
13842TIP3    H262942   2.230   3.332  17.031 -0.5005  0.7041 -0.3361
13843TIP3   OH262943   3.685   0.167   2.873 -0.6075  0.2357 -0.2312
13843TIP3    H162944   3.641   0.242   2.832 -0.1744  0.0581 -1.0407
13843TIP3    H262945   3.613   0.115   2.910 -0.8492  1.5511  1.2501
13844TIP3   OH262946   2.489   6.592   6.683  0.2609 -0.4975 -0.1871
13844TIP3    H162947   2.562   6.619   6.627  1.1205 -1.2259  0.5465
13844TIP3    H262948   2.413   6.636   6.646  1.1366  0.6269 -0.7169
13845TIP3   OH262949   3.233   4.305   0.322  0.2169 -0.0567 -0.3576
13845TIP3    H162950   3.308   4.341   0.369 -1.0445  1.1040  0.8138
13845TIP3    H262951   3.222   4.217   0.358 -0.2376  0.5287  0.9712
13846TIP3   OH262952   4.303   6.240  12.431 -0.1055 -0.8134  0.1013
13846TIP3    H162953   4.361   6.315  12.437  0.7699 -1.5131  0.6407
13846TIP3    H262954   4.362   6.164  12.429 -1.0047 -1.5835  1.4837
13847TIP3   OH262955   5.538   2.585   0.648 -0.1112  0.0415 -0.6460
13847TIP3    H162956   5.611   2.597   0.587  0.6847  0.4183  0.3562
13847TIP3    H262957   5.494   2.506   0.617  1.4825 -0.9357 -0.5349
13848TIP3   OH262958   3.699   0.438  16.177  0.5520  0.2813  0.0319
13848TIP3    H162959   3.607   0.460  16.161  0.8470  2.0646  0.6010
13848TIP3    H262960   3.696   0.353  16.221 -0.9716  1.2601  1.9835
13849TIP3   OH262961   1.780   1.295  10.861  0.0768 -0.1826  0.3653
13849TIP3    H162962   1.712   1.229  10.850  0.4392 -0.8164  1.7267
13849TIP3    H262963   1.832   1.289  10.781 -1.3037  0.1460 -0.5827
13850TIP3   OH262964   5.370   4.337  11.847 -0.4747  0.5087 -0.2605
13850TIP3    H162965   5.341   4.258  11.803  0.5107 -2.1634  3.3511
13850TIP3    H262966   5.459   4.351  11.815 -0.2217 -0.6159 -0.0848
13851TIP3   OH262967   3.416   3.251  11.660  0.4243  0.4242  0.1298
13851TIP3    H162968   3.376   3.170  11.691 -1.6140  0.9637 -0.9048
13851TIP3    H262969   3.435   3.300  11.740 -0.8656  0.0416  0.7004
13852TIP3   OH262970   6.261   3.738  10.588 -0.0924 -0.3451 -0.2604
13852TIP3    H162971   6.252   3.831  10.611  0.1941 -0.1795 -0.7980
13852TIP3    H262972   6.352   3.729  10.561  0.9407 -1.5777  3.1825
13853TIP3   OH262973   2.437   5.140  16.481 -0.0149 -0.2075 -0.1799
13853TIP3    H162974   2.414   5.133  16.388  1.5646  0.1384 -0.6224
13853TIP3    H262975   2.427   5.050  16.514  0.2907 -0.5228 -0.9056
13854TIP3   OH262976   1.504   5.950   5.040 -0.1969 -0.2559 -0.0070
13854TIP3    H162977   1.584   5.998   5.019  0.0789 -0.1180  1.2614
13854TIP3    H262978   1.434   6.003   5.003  0.2972 -0.5351 -1.4064
13855TIP3   OH262979   0.460   2.058   4.598 -0.0801  0.1779  0.2592
13855TIP3    H162980   0.410   2.101   4.529 -0.0859 -2.5403 -1.5975
13855TIP3    H262981   0.407   1.981   4.622  2.1227 -1.6232 -0.2672
13856TIP3   OH262982   6.331   4.070   5.776  0.9146 -0.1165 -0.2997
13856TIP3    H162983   6.320   4.116   5.859 -1.1404  0.3168 -0.7380
13856TIP3    H262984   6.343   4.139   5.711 -2.0115 -0.0418 -0.9351
13857TIP3   OH262985   5.182   0.807   4.948  0.1085 -0.2671  0.3086
13857TIP3    H162986   5.128   0.872   4.903 -1.6342 -0.6503  1.7418
13857TIP3    H262987   5.140   0.796   5.034  1.3287 -2.0549  0.7350
13858TIP3   OH262988   0.884   0.368  16.663  0.1112 -0.0082 -0.1509
13858TIP3    H162989   0.947   0.439  16.668  1.0608 -0.7293 -1.3187
13858TIP3    H262990   0.835   0.373  16.745  1.2631  0.9632  0.4977
13859TIP3   OH262991   4.196   5.673   0.419 -0.1651  0.1251  0.2951
13859TIP3    H162992   4.167   5.659   0.328  0.4565  0.2189  0.0760
13859TIP3    H262993   4.171   5.763   0.439 -0.4975  0.0347  0.2933
13860TIP3   OH262994   1.225   4.760  10.942 -0.3546  0.2808 -0.0621
13860TIP3    H162995   1.240   4.675  10.902  0.0736  1.0447 -1.6048
13860TIP3    H262996   1.130   4.772  10.939 -0.6225 -0.8923  1.8739
13861TIP3   OH262997   5.566   2.364  11.217 -0.0248 -0.1013  0.5603
13861TIP3    H162998   5.556   2.270  11.201 -0.4776 -0.2811  1.8012
13861TIP3    H262999   5.655   2.384  11.188 -0.1987 -0.7338 -0.4690
13862TIP3   OH263000   1.510   0.062   0.307 -0.2014  0.7203  0.5387
13862TIP3    H163001   1.468  -0.017   0.341 -1.2277 -0.0967 -2.3157
13862TIP3    H263002   1.440   0.127   0.304 -0.1723  0.7354 -0.0328
13863TIP3   OH263003   2.041   2.655   2.738 -0.0150 -0.3810 -0.2257
13863TIP3    H163004   1.962   2.619   2.778  0.5112 -2.2338 -0.7329
13863TIP3    H263005   2.060   2.596   2.665  0.7403  1.1714 -1.3482
13864TIP3   OH263006   5.773   6.404  15.046  0.2307  0.2527 -0.3368
13864TIP3    H163007   5.811   6.324  15.009  0.7969 -0.0689  0.8893
13864TIP3    H263008   5.805   6.474  14.989 -0.5342 -0.4105 -1.6147
13865TIP3   OH263009   3.331   3.598  14.916 -0.0568 -0.3991  0.2622
13865TIP3    H163010   3.356   3.570  15.004  0.0168  0.5197  0.5463
13865TIP3    H263011   3.414   3.600  14.867  0.0678  0.2155  0.4983
13866TIP3   OH263012   2.255   6.281  12.727  0.2718  0.3946 -0.3981
13866TIP3    H163013   2.204   6.213  12.771  2.0203 -1.4352 -1.0499
13866TIP3    H263014   2.194   6.354  12.717 -0.4076  0.9791  4.8360
13867TIP3   OH263015   6.334   3.495   3.772 -0.5251 -0.0173 -0.2549
13867TIP3    H163016   6.407   3.438   3.750 -0.4556 -0.3236  0.7000
13867TIP3    H263017   6.374   3.580   3.792  0.0392 -0.9487  3.3910
13868TIP3   OH263018   0.184   3.315   0.707  0.2472 -0.1032  0.4630
13868TIP3    H163019   0.210   3.377   0.639  2.2866 -0.5219  0.8044
13868TIP3    H263020   0.091   3.300   0.690  0.5779  0.1067 -1.9733
13869TIP3   OH263021   2.169   3.478  16.353 -0.1058  0.5655 -0.1846
13869TIP3    H163022   2.215   3.437  16.280  2.0843  1.1399  0.7781
13869TIP3    H263023   2.144   3.406  16.410  0.4769  0.2907 -0.2703
13870TIP3   OH263024   2.323   0.959   2.693 -0.0416 -0.6145 -0.4731
13870TIP3    H163025   2.302   1.034   2.748  0.9043 -0.5053 -0.2617
13870TIP3    H263026   2.250   0.898   2.708 -0.8778  0.2823 -0.7311
13871TIP3   OH263027   2.057   4.657  13.198  0.0750  0.6005 -0.0783
13871TIP3    H163028   2.024   4.569  13.178 -0.5691  0.6645  0.6541
13871TIP3    H263029   2.068   4.698  13.113  1.5794 -0.6101 -0.5051
13872TIP3   OH263030   4.460   0.532  12.855  0.4411  0.1994 -0.2435
13872TIP3    H163031   4.417   0.486  12.783 -1.2062  0.1217  0.7541
13872TIP3    H263032   4.527   0.472  12.885  0.0735 -0.4362 -0.6684
13873TIP3   OH263033   0.464   0.906  11.249 -0.3238 -0.6465  0.2905
13873TIP3    H163034   0.407   0.870  11.182  0.2361 -1.9332  0.4826
13873TIP3    H263035   0.525   0.962  11.201 -0.8744 -0.3491 -0.0713
13874TIP3   OH263036   3.801   2.996  16.991 -0.6089 -0.2049 -0.2715
13874TIP3    H163037   3.880   3.045  17.012 -1.3422  0.7409  0.3821
13874TIP3    H263038   3.813   2.911  17.034 -0.0666  0.0274  0.0417
13875TIP3   OH263039   6.652   2.088  13.408 -0.5816  0.5050 -0.2540
13875TIP3    H163040   6.645   1.994  13.395  0.3652  0.4893 -0.7317
13875TIP3    H263041   6.646   2.100  13.503  0.3865 -0.1420 -0.1052
13876TIP3   OH263042   0.851   3.737   5.199  0.6479 -0.5073  0.1813
13876TIP3    H163043   0.795   3.814   5.188  0.8331 -0.1275  1.6829
13876TIP3    H263044   0.841   3.689   5.117 -2.3733 -0.7766  0.5921
13877TIP3   OH263045   2.669   2.199  14.720 -0.3429  0.2376 -0.1241
13877TIP3    H163046   2.603   2.189  14.789 -1.4559  0.0305 -1.1735
13877TIP3    H263047   2.630   2.156  14.644  1.3066 -0.4888 -0.6074
13878TIP3   OH263048   6.115   3.736  16.990 -0.2828 -0.0707  0.5892
13878TIP3    H163049   6.025   3.769  16.986 -0.1196  0.3196  0.1079
13878TIP3    H263050   6.114   3.656  16.939 -0.9964 -1.5977  2.8492
13879TIP3   OH263051   3.501   1.798   0.938 -0.0881 -0.1630 -0.0751
13879TIP3    H163052   3.528   1.739   0.868 -2.1752 -1.4849  0.1441
13879TIP3    H263053   3.529   1.885   0.909 -3.0038 -0.1991 -3.8794
13880TIP3   OH263054   3.269   3.917  17.100 -0.1476  0.3798  0.6812
13880TIP3    H163055   3.173   3.912  17.102 -0.3570  0.6240 -2.9263
13880TIP3    H263056   3.290   3.991  17.158 -2.0715  0.2001  1.7154
13881TIP3   OH263057   4.340   0.028  13.848 -0.1539  0.1067  0.2946
13881TIP3    H163058   4.354   0.101  13.787 -1.0627 -0.8872 -1.1726
13881TIP3    H263059   4.258   0.050  13.892  0.0411  0.4053  0.5111
13882TIP3   OH263060   5.665   1.571   1.308  0.4124  0.6652  0.2480
13882TIP3    H163061   5.645   1.660   1.337 -0.1785  0.4365  0.5504
13882TIP3    H263062   5.631   1.515   1.377  0.9479  0.2102  0.1474
13883TIP3   OH263063   0.066   4.366  14.116  0.0769 -0.1131  0.0194
13883TIP3    H163064   0.054   4.306  14.043 -0.2152 -1.3552  1.0535
13883TIP3    H263065   0.110   4.314  14.183 -0.8796  0.5822  1.2390
13884TIP3   OH263066   1.470   4.665   3.953  0.4775 -0.1555 -0.1615
13884TIP3    H163067   1.555   4.622   3.962 -0.1815 -1.0542  4.1889
13884TIP3    H263068   1.491   4.759   3.951  1.6046 -0.4006 -0.5611
13885TIP3   OH263069   4.135   3.092  11.506  0.2223 -0.0163  0.0965
13885TIP3    H163070   4.228   3.073  11.495 -0.0592 -0.7993 -1.1851
13885TIP3    H263071   4.126   3.184  11.479  0.7526  0.3596  1.1419
13886TIP3   OH263072   3.223   4.807  13.162  0.6687  0.0358 -0.1129
13886TIP3    H163073   3.218   4.753  13.241  1.5015 -1.0057 -0.7445
13886TIP3    H263074   3.150   4.868  13.171 -0.2498 -1.1126  0.6902
13887TIP3   OH263075   3.409   4.565  15.536  0.2449  0.2162  0.8755
13887TIP3    H163076   3.373   4.606  15.456  1.4570 -0.6726 -0.1735
13887TIP3    H263077   3.356   4.600  15.607 -0.5394  1.4611 -0.2712
13888TIP3   OH263078   4.460   1.147  11.540 -0.4806 -0.1046  0.2984
13888TIP3    H163079   4.416   1.118  11.460  1.2754  1.1882 -1.2464
13888TIP3    H263080   4.501   1.230  11.515  2.1368 -0.8317  1.7748
13889TIP3   OH263081   5.289   4.371  11.000  0.0405  0.2204  0.7168
13889TIP3    H163082   5.248   4.415  10.926  2.0695  1.3729  0.1952
13889TIP3    H263083   5.272   4.278  10.984 -2.7262  0.6240  0.8525
13890TIP3   OH263084   4.724   0.359   5.484  0.2146 -0.3510  0.3309
13890TIP3    H163085   4.809   0.367   5.527  0.6951 -0.7030 -0.5367
13890TIP3    H263086   4.718   0.434   5.426 -0.7705  0.5508  1.5475
13891TIP3   OH263087   6.750   1.448  15.932  0.2227  0.0524  0.1839
13891TIP3    H163088   6.768   1.496  16.013 -0.7521 -1.2245  1.2023
13891TIP3    H263089   6.708   1.512  15.875  2.7167  1.5352 -0.1399
13892TIP3   OH263090   4.395   0.943  12.970  0.0701  0.2337  0.6728
13892TIP3    H163091   4.471   0.892  12.942 -0.0972  0.2053  0.2703
13892TIP3    H263092   4.370   0.994  12.893 -0.4214  0.1202  0.7530
13893TIP3   OH263093   4.269   3.674   3.201  0.1009 -0.3407  0.2330
13893TIP3    H163094   4.355   3.712   3.218 -0.7120  1.7812  0.0360
13893TIP3    H263095   4.283   3.580   3.199  1.9744 -0.2083  2.7252
13894TIP3   OH263096   5.069   5.281  13.515  0.3000  0.1532 -0.3234
13894TIP3    H163097   5.056   5.374  13.499  0.1206  0.1201 -0.3723
13894TIP3    H263098   5.003   5.238  13.461 -0.0926  0.0274  0.2445
13895TIP3   OH263099   2.140   4.247   3.936 -0.0484  0.0357  0.1217
13895TIP3    H163100   2.215   4.201   3.973  1.3484  0.2326 -2.2613
13895TIP3    H263101   2.083   4.177   3.904  0.6348 -0.0982 -0.8300
13896TIP3   OH263102   3.990   2.417   2.906 -0.0165 -0.1269 -0.1110
13896TIP3    H163103   4.085   2.417   2.894  0.0754  0.6328  0.5752
13896TIP3    H263104   3.954   2.423   2.817  0.5764  0.0385 -0.3424
13897TIP3   OH263105   5.795   4.972  16.359  0.1878  0.3124  0.2813
13897TIP3    H163106   5.790   5.057  16.403 -0.0624 -0.3985  1.6877
13897TIP3    H263107   5.757   4.911  16.421 -0.2164 -0.7464 -0.9702
13898TIP3   OH263108   3.023   5.901  16.949  0.0467 -0.2132  0.4222
13898TIP3    H163109   3.014   5.910  17.043 -0.1294  0.2986  0.3582
13898TIP3    H263110   3.110   5.936  16.930  0.0566 -0.2572  0.3852
13899TIP3   OH263111   3.662   5.300  11.436  0.5991 -0.1470  0.0584
13899TIP3    H163112   3.708   5.298  11.352 -0.2330  1.7428 -0.4971
13899TIP3    H263113   3.729   5.324  11.500  0.8166  0.5618 -0.4238
13900TIP3   OH263114   5.997   1.582  13.297 -0.4393 -0.4519 -0.5077
13900TIP3    H163115   6.002   1.490  13.325  0.8892  0.3151  2.1002
13900TIP3    H263116   5.913   1.613  13.332 -0.4282 -0.4072 -0.5207
13901TIP3   OH263117   4.888   6.310   0.335  0.5796 -0.2906  0.3901
13901TIP3    H163118   4.951   6.298   0.264  0.2815  1.7275 -0.2731
13901TIP3    H263119   4.803   6.293   0.295  0.3626  1.4086  0.0792
13902TIP3   OH263120   6.092   5.991   2.586  0.3161 -0.2952  0.7098
13902TIP3    H163121   6.145   5.982   2.507  0.8374  0.6220  0.9423
13902TIP3    H263122   6.004   5.965   2.559 -0.3872  3.4755 -1.1800
13903TIP3   OH263123   1.686   3.948  12.470  0.3793 -0.6511  0.5727
13903TIP3    H163124   1.624   3.879  12.495  1.8935 -2.5111 -0.4958
13903TIP3    H263125   1.772   3.909  12.486  1.2877  0.7651 -0.6532
13904TIP3   OH263126   2.844   2.069   0.791 -0.3185  0.2452  0.2492
13904TIP3    H163127   2.878   2.081   0.703  0.1431 -2.8657 -0.1052
13904TIP3    H263128   2.816   1.978   0.794 -0.7566  0.3707  3.1914
13905TIP3   OH263129   1.271   1.525  11.696 -0.2306  0.2127 -0.6274
13905TIP3    H163130   1.247   1.500  11.786 -0.3142 -1.3393 -1.0375
13905TIP3    H263131   1.246   1.617  11.688 -0.2870  0.3501  0.9157
13906TIP3   OH263132   6.773   3.490   0.171 -0.1726 -0.5336  0.1148
13906TIP3    H163133   6.855   3.525   0.205 -1.3740  2.1342  0.5530
13906TIP3    H263134   6.730   3.566   0.131 -2.4262 -1.8315 -0.0744
13907TIP3   OH263135   3.011   6.270   5.823  0.2178  0.0132 -0.6702
13907TIP3    H163136   3.043   6.183   5.801 -0.3559 -1.2394  2.7761
13907TIP3    H263137   3.029   6.279   5.917 -1.6450  2.7506 -0.4497
13908TIP3   OH263138   5.127   2.123   5.150  0.2603  0.2216  0.1818
13908TIP3    H163139   5.121   2.219   5.156  2.2877  0.3240  2.1639
13908TIP3    H263140   5.048   2.091   5.192 -1.1733  0.9580 -1.8050
13909TIP3   OH263141   5.252   3.346  15.309  0.3047 -0.3779  0.7965
13909TIP3    H163142   5.200   3.349  15.389 -0.9005  1.1023  0.0159
13909TIP3    H263143   5.223   3.268  15.263 -0.5650 -0.0772  0.8202
13910TIP3   OH263144   4.809   1.181  11.341  0.1931  0.2660 -0.1958
13910TIP3    H163145   4.754   1.244  11.387 -0.7527 -0.0992 -0.7784
13910TIP3    H263146   4.860   1.233  11.279  1.7057  0.7990  1.4309
13911TIP3   OH263147   3.115   5.603   3.166 -0.3495 -0.6415  0.1763
13911TIP3    H163148   3.138   5.645   3.083 -0.9266 -1.0316 -0.1867
13911TIP3    H263149   3.197   5.565   3.197 -0.0701 -0.2560 -0.0742
13912TIP3   OH263150   1.421   4.564  16.637  0.1899  0.2891  0.3017
13912TIP3    H163151   1.489   4.622  16.670  0.9603 -0.0064 -0.7460
13912TIP3    H263152   1.441   4.479  16.675  1.2742 -0.1282 -1.1473
13913TIP3   OH263153   2.068   1.492  10.761  0.6073 -0.3994  0.7649
13913TIP3    H163154   2.134   1.561  10.748  0.3801 -0.3740 -0.2869
13913TIP3    H263155   1.992   1.521  10.710 -0.4004 -0.2189  2.3033
13914TIP3   OH263156   2.585   0.941  11.613  0.8771  0.1077  0.8261
13914TIP3    H163157   2.653   0.950  11.680  0.3839 -0.3042  1.3966
13914TIP3    H263158   2.514   0.894  11.657  0.1552  0.6634  0.2910
13915TIP3   OH263159   2.866   1.256   2.249  0.4756 -1.0215  0.1761
13915TIP3    H163160   2.957   1.278   2.266  1.2226 -0.9901 -3.2084
13915TIP3    H263161   2.869   1.172   2.203 -0.8625  0.2956 -2.5518
13916TIP3   OH263162   0.520   4.414   0.833  0.1890  0.0686  0.4418
13916TIP3    H163163   0.500   4.468   0.909 -1.2023  0.6047 -0.2639
13916TIP3    H263164   0.509   4.324   0.864  1.5159  0.1936  1.3487
13917TIP3   OH263165   1.129   5.944   5.184  0.0968 -0.0564  0.2353
13917TIP3    H163166   1.224   5.958   5.186  0.1219 -0.1732 -0.0117
13917TIP3    H263167   1.106   5.924   5.274  0.5044 -1.2582  0.0872
13918TIP3   OH263168   2.809   5.705  14.019  0.8319 -0.0502 -0.3735
13918TIP3    H163169   2.870   5.740  14.084  0.8573  0.8858 -0.8833
13918TIP3    H263170   2.788   5.617  14.051  2.1936 -0.2746 -0.0194
13919TIP3   OH263171   6.250   3.647  12.299 -0.7942 -0.3087  0.0605
13919TIP3    H163172   6.337   3.681  12.317 -0.6691 -0.0022 -1.0807
13919TIP3    H263173   6.246   3.638  12.204 -2.1254  0.0072  0.0668
13920TIP3   OH263174   6.479   6.294  11.603 -0.4055 -0.4155 -0.3502
13920TIP3    H163175   6.395   6.340  11.594 -0.2235  0.0788  0.3285
13920TIP3    H263176   6.526   6.344  11.670  0.3642 -0.7903 -0.5987
13921TIP3   OH263177   3.240   6.558  12.567  0.5136 -0.1077 -0.1355
13921TIP3    H163178   3.254   6.599  12.482  0.2952 -0.4883 -0.3605
13921TIP3    H263179   3.260   6.627  12.631  0.3174  0.2920 -0.5000
13922TIP3   OH263180   5.406   3.646   5.952  0.1633 -0.1287  0.2918
13922TIP3    H163181   5.375   3.616   6.037 -1.2496  2.1057  0.6436
13922TIP3    H263182   5.331   3.692   5.914  1.3783  0.6321 -1.3083
13923TIP3   OH263183   1.113   0.311   1.925 -0.2215  1.0872 -0.1483
13923TIP3    H163184   1.082   0.393   1.885 -1.8287  0.8724  0.5496
13923TIP3    H263185   1.106   0.246   1.856  1.1405  1.5209 -0.7318
13924TIP3   OH263186   3.415   4.837   1.120 -0.5095  0.3953  0.0744
13924TIP3    H163187   3.501   4.863   1.152 -0.2236  0.0042 -0.3515
13924TIP3    H263188   3.408   4.744   1.142  0.0035 -0.0787 -1.6034
13925TIP3   OH263189   1.298   3.020   0.403  0.7590 -0.4467 -0.5337
13925TIP3    H163190   1.277   2.934   0.440  0.1849 -0.9715 -2.0202
13925TIP3    H263191   1.388   3.036   0.431  0.1675 -0.5203  1.5822
13926TIP3   OH263192   4.135   5.446  13.847 -0.2736 -0.4941  0.2929
13926TIP3    H163193   4.227   5.425  13.863 -0.4012 -0.4776  1.1036
13926TIP3    H263194   4.088   5.402  13.918 -0.5656  2.2284  1.9146
13927TIP3   OH263195   6.269   6.393  14.968 -0.5620  0.1079 -0.2093
13927TIP3    H163196   6.340   6.385  14.905  0.1755 -1.3628  0.7442
13927TIP3    H263197   6.190   6.377  14.917 -0.0203 -0.5922 -0.8721
13928TIP3   OH263198   1.421   5.392   6.305  0.2964 -0.1878  0.7285
13928TIP3    H163199   1.482   5.441   6.360  0.6148 -0.1549  0.3471
13928TIP3    H263200   1.474   5.362   6.231 -0.6711  2.1648 -1.0776
13929TIP3   OH263201   4.010   4.185   1.688 -0.4208  0.1721 -0.0725
13929TIP3    H163202   4.034   4.112   1.746 -0.0080 -0.7189 -1.3257
13929TIP3    H263203   3.928   4.157   1.647 -1.1985  1.1963  0.7299
13930TIP3   OH263204   2.485   2.580   1.663  0.0954  0.0889  0.1462
13930TIP3    H163205   2.392   2.560   1.659  0.1954 -0.2273 -0.9230
13930TIP3    H263206   2.500   2.609   1.754 -1.2969  1.4613 -0.0260
13931TIP3   OH263207   2.682   1.093  10.716 -0.1181  0.1028  0.6629
13931TIP3    H163208   2.737   1.164  10.682  0.7247  0.2719  2.3029
13931TIP3    H263209   2.675   1.111  10.810 -2.1110 -0.5129  0.6815
13932TIP3   OH263210   5.912   0.412  14.982  0.2116 -0.2481 -0.1867
13932TIP3    H163211   5.845   0.471  14.947  0.2120 -0.8794 -1.2957
13932TIP3    H263212   5.968   0.468  15.036 -0.1864  0.6256 -0.6613
13933TIP3   OH263213   2.856   1.007   3.960 -0.0157 -0.1839 -0.1859
13933TIP3    H163214   2.869   0.952   3.883 -0.7981 -0.6521  0.0017
13933TIP3    H263215   2.880   0.951   4.034  1.3025  0.4542 -0.1038
13934TIP3   OH263216   4.760   3.860   0.367 -0.3394 -0.4345 -0.7484
13934TIP3    H163217   4.670   3.829   0.355 -0.3329 -0.7374 -0.0312
13934TIP3    H263218   4.751   3.937   0.423 -0.2136 -0.0346 -1.2699
13935TIP3   OH263219   2.816   4.544   0.255 -0.1737  0.1294 -0.6161
13935TIP3    H163220   2.862   4.534   0.172 -0.1728 -1.4438 -0.4588
13935TIP3    H263221   2.763   4.623   0.245  0.4241  0.3910 -1.8150
13936TIP3   OH263222   4.937   5.836  16.043  0.0883 -0.0250  0.0606
13936TIP3    H163223   4.865   5.777  16.020  0.5148 -0.2911 -0.6181
13936TIP3    H263224   4.994   5.836  15.966  0.3210  0.9342  0.2189
13937TIP3   OH263225   6.590   4.005  12.393  0.2025 -0.0891  0.4702
13937TIP3    H163226   6.633   4.050  12.466  0.8764  0.3052 -0.1641
13937TIP3    H263227   6.525   4.068  12.362  2.3264  1.2437 -1.5551
13938TIP3   OH263228   4.193   2.889  16.167 -0.5297  0.3218  0.3202
13938TIP3    H163229   4.260   2.861  16.229  0.0832 -0.6830 -0.7671
13938TIP3    H263230   4.110   2.878  16.215 -0.0063  0.6979  1.3516
13939TIP3   OH263231   1.262   1.707   5.177  0.1214 -0.7014  0.4900
13939TIP3    H163232   1.260   1.625   5.226 -1.3892 -1.6220 -1.0107
13939TIP3    H263233   1.341   1.701   5.123 -0.9292 -2.0765 -0.9886
13940TIP3   OH263234   3.278   4.498   2.287  0.0913  0.1021 -1.0494
13940TIP3    H163235   3.373   4.509   2.294  0.0698 -0.2506  0.0175
13940TIP3    H263236   3.245   4.529   2.371 -0.7640  0.4431 -1.5033
13941TIP3   OH263237   3.565   3.571  16.935 -0.2836  0.0999  0.6656
13941TIP3    H163238   3.620   3.509  16.888 -2.1673 -0.8265 -0.4363
13941TIP3    H263239   3.618   3.650  16.941  1.0045 -0.6135 -0.7147
13942TIP3   OH263240   1.025   2.673   5.919  0.9509  0.7725  0.2905
13942TIP3    H163241   1.025   2.581   5.946  0.8335  0.8920  0.7130
13942TIP3    H263242   1.033   2.671   5.824 -4.2341  0.1057 -0.4355
13943TIP3   OH263243   2.189   1.613   2.856 -0.1431  0.9169 -0.2122
13943TIP3    H163244   2.147   1.686   2.812  0.4309  1.3652 -0.0198
13943TIP3    H263245   2.283   1.627   2.844  0.0350  1.0849  1.1929
13944TIP3   OH263246   2.743   0.438  17.096  0.0055 -0.5891  0.7596
13944TIP3    H163247   2.694   0.392  17.029  0.7190 -1.4730  0.8277
13944TIP3    H263248   2.832   0.444  17.061 -0.3238  1.9960  0.1255
13945TIP3   OH263249   1.537   3.785  14.862 -0.1737  0.4099  0.0178
13945TIP3    H163250   1.568   3.780  14.771 -1.0735  0.9721 -0.3292
13945TIP3    H263251   1.604   3.837  14.907 -0.7657  1.9191 -0.8042
13946TIP3   OH263252   1.862   2.155  12.559  0.0342 -0.1122  0.3576
13946TIP3    H163253   1.860   2.115  12.646  0.0079 -1.0621 -0.0708
13946TIP3    H263254   1.940   2.211  12.561  0.3888 -0.6110  0.7832
13947TIP3   OH263255   4.534   5.205  11.853  0.0322  0.5860 -0.4303
13947TIP3    H163256   4.568   5.240  11.935 -0.6621  0.7000 -0.1803
13947TIP3    H263257   4.579   5.255  11.785  2.0906 -0.8345 -0.2084
13948TIP3   OH263258   1.223   5.435  13.730  0.6862 -0.1620  0.2566
13948TIP3    H163259   1.252   5.446  13.821 -0.4224 -2.2327  0.9361
13948TIP3    H263260   1.141   5.483  13.724  1.5651  1.3611 -0.1791
13949TIP3   OH263261   0.408   0.657  16.598 -0.0707 -0.6115 -0.4704
13949TIP3    H163262   0.472   0.600  16.642 -0.1081  0.3659  0.9057
13949TIP3    H263263   0.462   0.721  16.552 -0.0517 -0.8711 -0.8176
13950TIP3   OH263264   6.349   3.742  14.180  0.1424  0.6330  0.7808
13950TIP3    H163265   6.298   3.789  14.115 -0.3430 -0.7750  0.0966
13950TIP3    H263266   6.439   3.770  14.165  0.3731 -1.1807 -1.9810
13951TIP3   OH263267   0.159   3.959   4.973  0.5234  0.3756  0.3050
13951TIP3    H163268   0.065   3.964   4.991  0.5184  1.9503  0.0206
13951TIP3    H263269   0.167   3.973   4.879  1.0461  0.5335  0.3657
13952TIP3   OH263270   0.578   1.753   3.867  0.0146 -0.0521  0.1833
13952TIP3    H163271   0.606   1.663   3.880 -1.4719 -0.6671 -0.6703
13952TIP3    H263272   0.660   1.803   3.861  0.8427 -1.1488  1.7804
13953TIP3   OH263273   1.754   1.666  16.573 -0.3537 -0.7021 -0.1160
13953TIP3    H163274   1.707   1.680  16.491 -0.0980  0.9987  0.0087
13953TIP3    H263275   1.844   1.693  16.554 -0.0378 -1.3404  0.4239
13954TIP3   OH263276   3.971   3.105  15.019  0.3782  0.5761 -0.7317
13954TIP3    H163277   3.895   3.069  14.974 -0.1743 -1.6735  1.7287
13954TIP3    H263278   3.944   3.193  15.046 -0.7216  0.4496 -1.3615
13955TIP3   OH263279   3.683   2.853  11.156  0.1091 -0.2333 -0.2420
13955TIP3    H163280   3.758   2.835  11.214 -0.0554  0.7932  0.3093
13955TIP3    H263281   3.710   2.929  11.105 -1.2826  1.4628  1.3869
13956TIP3   OH263282   3.885   2.766  11.557  0.1204 -0.5513  0.3233
13956TIP3    H163283   3.830   2.839  11.529  0.7168  0.0622  0.6906
13956TIP3    H263284   3.836   2.688  11.533  0.4877 -0.0887 -2.2388
13957TIP3   OH263285   4.667   3.607  16.831  0.3891 -0.0596 -0.1323
13957TIP3    H163286   4.739   3.597  16.769  0.9434 -0.0193  0.4950
13957TIP3    H263287   4.661   3.521  16.874 -0.8257 -0.4980 -1.1121
13958TIP3   OH263288   4.731   1.968  17.167 -0.2374  0.3019 -0.8222
13958TIP3    H163289   4.744   2.063  17.160  0.6591  0.6030  2.8437
13958TIP3    H263290   4.643   1.953  17.133 -0.0937  2.2923 -2.2315
13959TIP3   OH263291   0.259   2.054  15.817 -0.1510 -0.2075  0.4664
13959TIP3    H163292   0.308   1.982  15.777  0.3409  0.2748  0.1859
13959TIP3    H263293   0.254   2.030  15.910  2.7857  0.8806  1.0010
13960TIP3   OH263294   2.883   4.909  12.304  0.3091 -0.2096  0.3217
13960TIP3    H163295   2.964   4.884  12.260  0.8454  1.9301 -0.0490
13960TIP3    H263296   2.909   4.935  12.392 -0.1671 -0.6397  0.5973
13961TIP3   OH263297   3.577   1.970   0.317  0.1104  0.1330 -0.0962
13961TIP3    H163298   3.513   2.023   0.365  0.1788 -0.4698  0.6739
13961TIP3    H263299   3.574   2.004   0.227 -0.2724  1.0380  0.2545
13962TIP3   OH263300   1.379   3.016   3.016  0.1511  0.1732 -0.0939
13962TIP3    H163301   1.469   2.987   3.028  0.0676  0.3441  1.1577
13962TIP3    H263302   1.384   3.112   3.020  0.2109  0.3216 -2.5021
13963TIP3   OH263303   6.199   5.746   1.745 -0.4832 -0.2099  0.0144
13963TIP3    H163304   6.189   5.687   1.671  1.1322 -0.2448 -0.2158
13963TIP3    H263305   6.112   5.783   1.759 -0.9462 -0.6787 -1.4949
13964TIP3   OH263306   2.153   2.981   6.037 -0.0161 -0.2084 -0.1710
13964TIP3    H163307   2.097   2.967   6.113  0.4285  2.0033  0.6406
13964TIP3    H263308   2.110   3.051   5.988 -0.3160 -1.6136 -2.0413
13965TIP3   OH263309   2.991   6.706   5.395  0.1182 -0.4120 -0.4881
13965TIP3    H163310   3.049   6.644   5.440  0.6176  0.6993  0.4481
13965TIP3    H263311   3.051   6.760   5.343 -0.3076 -0.6518 -1.2442
13966TIP3   OH263312   1.007   5.145   6.026  0.5269 -0.0149  0.1107
13966TIP3    H163313   1.101   5.163   6.019  0.6498 -1.1030 -1.2822
13966TIP3    H263314   0.995   5.116   6.117  1.8610 -1.6242 -0.2004
13967TIP3   OH263315   4.749   1.568  13.297 -0.1612  0.0928  0.2533
13967TIP3    H163316   4.766   1.629  13.225 -2.1078  0.7112  0.2690
13967TIP3    H263317   4.669   1.601  13.338 -0.6863 -1.8951  0.9144
13968TIP3   OH263318   1.483   1.206   4.515  0.7365 -0.1177  0.1343
13968TIP3    H163319   1.484   1.157   4.597  2.0664  0.7249  0.6602
13968TIP3    H263320   1.441   1.147   4.452 -2.3377  0.0203  1.8506
13969TIP3   OH263321   2.514   5.183   1.938  0.2031 -0.3071 -0.2207
13969TIP3    H163322   2.424   5.174   1.971 -0.1025 -0.2415 -1.0064
13969TIP3    H263323   2.556   5.100   1.961 -0.3268 -0.6946 -0.6308
13970TIP3   OH263324   6.105   0.936  15.472  0.0241  0.4096 -0.1814
13970TIP3    H163325   6.197   0.940  15.496  0.2770  1.2482 -1.2054
13970TIP3    H263326   6.065   1.011  15.515 -0.9369 -1.7650  3.0469
13971TIP3   OH263327   1.319   0.340   3.951 -0.3491  0.8271  0.8419
13971TIP3    H163328   1.266   0.271   3.991 -0.8395  0.4741 -0.3524
13971TIP3    H263329   1.276   0.357   3.867  3.2415 -1.9337 -1.8950
13972TIP3   OH263330   2.151   3.908   0.269 -0.3630 -0.2751  0.3697
13972TIP3    H163331   2.163   3.868   0.355  2.4208  1.1255  0.7390
13972TIP3    H263332   2.211   3.861   0.211 -1.3925 -0.4687 -0.5849
13973TIP3   OH263333   2.124   4.955  12.422  0.5990 -0.1467 -0.0497
13973TIP3    H163334   2.036   4.929  12.394  1.1014 -2.3410  0.2361
13973TIP3    H263335   2.150   4.889  12.486  2.2266  0.8152  0.3583
13974TIP3   OH263336   5.850   6.616  10.409  0.3796  0.3311  0.1525
13974TIP3    H163337   5.844   6.550  10.340 -2.0133 -1.2671  1.7109
13974TIP3    H263338   5.944   6.626  10.424  0.9072 -0.4950 -2.1539
13975TIP3   OH263339   2.826   4.948  14.313  0.7767 -0.0117 -0.0172
13975TIP3    H163340   2.807   4.992  14.230  0.1107  2.1568  1.2154
13975TIP3    H263341   2.922   4.942  14.316  0.8735 -4.0930 -2.8060
13976TIP3   OH263342   5.275   5.641   0.220  0.4899  0.6678 -0.0551
13976TIP3    H163343   5.220   5.604   0.289  0.6521  0.7556  0.1192
13976TIP3    H263344   5.247   5.732   0.213 -2.8117 -0.3045 -3.2246
13977TIP3   OH263345   5.822   4.483  15.295  0.3955 -0.1673 -0.0223
13977TIP3    H163346   5.797   4.391  15.305 -0.8669  0.2965  1.3608
13977TIP3    H263347   5.909   4.489  15.335  0.1436 -0.5939  0.5977
13978TIP3   OH263348   5.411   6.211   0.496  0.0124  0.4410 -0.0092
13978TIP3    H163349   5.426   6.300   0.530 -0.9861  1.1695 -1.4011
13978TIP3    H263350   5.405   6.222   0.401  0.4320 -1.2155 -0.2599
13979TIP3   OH263351   6.009   5.547   2.452 -0.4517  0.6782 -0.2434
13979TIP3    H163352   5.990   5.601   2.529 -1.8551 -0.1300  0.0248
13979TIP3    H263353   6.083   5.492   2.478 -0.3726  1.0040  0.2278
13980TIP3   OH263354   0.745   5.339  13.627 -0.2287 -0.3731 -0.2071
13980TIP3    H163355   0.660   5.381  13.612 -0.3347 -0.1812  0.8301
13980TIP3    H263356   0.723   5.250  13.656 -0.1659  0.2498  1.8781
13981TIP3   OH263357   4.655   0.290   3.319  0.3412 -0.1127 -0.4014
13981TIP3    H163358   4.584   0.354   3.314 -0.8136 -1.4071 -1.4545
13981TIP3    H263359   4.688   0.297   3.408 -0.9393  0.6984  0.0344
13982TIP3   OH263360   0.663   0.856   5.795  0.2626 -0.1284  0.1403
13982TIP3    H163361   0.681   0.891   5.882  1.7648 -1.3048  0.3448
13982TIP3    H263362   0.696   0.922   5.735 -0.0562  0.3319  0.4673
13983TIP3   OH263363   1.710   6.340  15.691 -0.7950  0.4037 -0.0911
13983TIP3    H163364   1.707   6.382  15.605 -0.6871 -0.5866 -0.5957
13983TIP3    H263365   1.618   6.322  15.712 -0.9361  1.8398  0.6267
13984TIP3   OH263366   5.963   2.885   6.442  0.4668  0.6325  0.0271
13984TIP3    H163367   5.880   2.928   6.463 -0.5139 -0.8524 -0.6291
13984TIP3    H263368   6.004   2.868   6.526 -0.7658 -0.2161  0.4844
13985TIP3   OH263369   1.608   2.663   2.996 -0.2010  0.0248 -0.0671
13985TIP3    H163370   1.530   2.693   2.950  0.3706  0.3017 -0.8850
13985TIP3    H263371   1.576   2.599   3.059 -1.1005  0.2310 -0.3013
13986TIP3   OH263372   0.951   6.145   3.988  0.0056  0.0030 -0.3395
13986TIP3    H163373   0.942   6.231   4.029 -1.4036 -0.2930  0.0202
13986TIP3    H263374   1.043   6.123   4.000  0.1408  0.9585  0.5760
13987TIP3   OH263375   2.771   0.907   0.333 -0.0373  0.4866  0.2376
13987TIP3    H163376   2.811   0.837   0.281  0.3229 -0.0460  1.1883
13987TIP3    H263377   2.748   0.974   0.270 -1.0515 -0.7921 -0.8101
13988TIP3   OH263378   2.043   5.875  15.386 -0.0813 -0.7091 -0.2805
13988TIP3    H163379   2.078   5.862  15.474 -0.4241  0.6230  0.0790
13988TIP3    H263380   2.099   5.941  15.347 -0.2201 -0.9465 -0.8958
13989TIP3   OH263381   3.408   5.973  11.323  0.4844  0.8479 -0.6280
13989TIP3    H163382   3.392   6.054  11.371 -1.4114  0.4677 -0.5480
13989TIP3    H263383   3.420   6.001  11.233  0.9385  1.2984 -0.4352
13990TIP3   OH263384   0.133   3.393   2.139 -0.0458 -0.2889 -0.5099
13990TIP3    H163385   0.080   3.314   2.139 -0.4061 -0.0732  0.8034
13990TIP3    H263386   0.165   3.401   2.049 -2.0277 -0.5565 -1.2919
13991TIP3   OH263387   2.510   6.006  12.184  0.1380 -0.1831  0.1511
13991TIP3    H163388   2.563   6.035  12.259 -1.3555 -1.4391  1.7668
13991TIP3    H263389   2.475   5.921  12.210 -0.2597 -0.7917 -2.1004
13992TIP3   OH263390   0.097   2.949  16.914  0.4020  0.2697 -0.5166
13992TIP3    H163391   0.108   2.936  16.820  1.8746 -1.6530 -0.1471
13992TIP3    H263392   0.126   2.867  16.953  1.9433  1.7744  1.7452
13993TIP3   OH263393   0.821   6.749  11.061 -0.3646  0.2547  0.4362
13993TIP3    H163394   0.783   6.758  11.148 -1.4469  1.5589 -0.1381
13993TIP3    H263395   0.880   6.824  11.052 -0.2650  0.1329  0.0397
13994TIP3   OH263396   4.465   5.927  12.710 -0.4043 -1.2020 -0.5402
13994TIP3    H163397   4.391   5.877  12.675 -3.3819  1.4180  1.4280
13994TIP3    H263398   4.432   5.963  12.792  3.0577  0.3668  0.3444
13995TIP3   OH263399   1.739   6.561   4.599  0.6300  0.5167  0.1515
13995TIP3    H163400   1.692   6.482   4.625  1.6468  0.0515  0.5984
13995TIP3    H263401   1.671   6.618   4.564 -0.4911  0.3360  1.8792
13996TIP3   OH263402   3.036   3.620   6.549 -0.3149  0.3495 -0.9453
13996TIP3    H163403   2.995   3.604   6.635 -2.9392  0.5339 -2.0533
13996TIP3    H263404   3.009   3.545   6.496  2.0024 -0.2080 -1.4505
13997TIP3   OH263405   3.937   4.485  12.372  0.0154  0.0461  0.3965
13997TIP3    H163406   3.991   4.501  12.294  2.0724  1.8928  2.0805
13997TIP3    H263407   4.001   4.468  12.441 -1.7798 -3.2586  1.4488
13998TIP3   OH263408   3.528   1.311   3.379 -0.3911  0.7916  0.0346
13998TIP3    H163409   3.613   1.348   3.355 -0.5683  2.5472  1.7892
13998TIP3    H263410   3.465   1.379   3.354 -1.0999  0.2592  0.3431
13999TIP3   OH263411   2.687   2.605  12.938 -0.4993 -0.0460 -0.0452
13999TIP3    H163412   2.632   2.600  13.016  0.5502 -0.8501  0.6763
13999TIP3    H263413   2.775   2.620  12.973  0.3161 -2.3277 -0.9158
14000TIP3   OH263414   2.072   5.740  12.877  0.2730 -0.2410 -0.0394
14000TIP3    H163415   2.033   5.820  12.841 -0.7925 -1.5788 -2.1064
14000TIP3    H263416   2.047   5.740  12.969  0.6102  1.9618  0.0994
14001TIP3   OH263417   5.588   0.205   1.851 -0.0203 -0.2483  0.3495
14001TIP3    H163418   5.563   0.274   1.913 -1.2612  0.0378 -0.4258
14001TIP3    H263419   5.627   0.252   1.778 -0.3436 -0.4073  0.0707
14002TIP3   OH263420   6.774   2.836  12.879  0.2648 -0.3470 -0.3149
14002TIP3    H163421   6.679   2.823  12.878  0.3938 -1.4731  0.1449
14002TIP3    H263422   6.798   2.830  12.972  0.5199  2.3354 -0.1322
14003TIP3   OH263423   3.021   1.684   0.568  0.1657  0.0453  0.4448
14003TIP3    H163424   3.048   1.661   0.658  1.3551 -0.2747  0.0260
14003TIP3    H263425   3.103   1.700   0.522 -0.5241  2.7254  0.0331
14004TIP3   OH263426   5.464   6.249  13.004  0.4346 -0.1641  0.2651
14004TIP3    H163427   5.419   6.301  12.938  1.0315 -0.3904 -0.3443
14004TIP3    H263428   5.493   6.312  13.070 -0.4326  0.0262  0.4788
14005TIP3   OH263429   1.715   4.580   3.916  0.0596  0.8772  0.1325
14005TIP3    H163430   1.751   4.492   3.921  0.4563  1.1273  2.4539
14005TIP3    H263431   1.743   4.612   3.830  0.2986 -1.0596 -0.5592
14006TIP3   OH263432   6.338   1.988   4.139 -0.6087  0.6836 -0.5816
14006TIP3    H163433   6.387   1.907   4.128  0.1757  1.2762 -1.7483
14006TIP3    H263434   6.398   2.056   4.107 -1.6703  1.5920 -0.7034
14007TIP3   OH263435   1.550   4.243  13.472 -0.5162 -0.2338  0.2172
14007TIP3    H163436   1.611   4.279  13.408  1.8580  0.0561  2.4802
14007TIP3    H263437   1.486   4.313  13.485  0.2147  0.5454 -0.2644
14008TIP3   OH263438   4.050   5.062  14.551  0.3553 -0.3915  0.4077
14008TIP3    H163439   3.977   5.057  14.614 -0.1626 -2.2910 -0.2621
14008TIP3    H263440   4.128   5.042  14.603  0.4616  1.7298  1.1479
14009TIP3   OH263441   3.404   3.257  17.272 -0.3056  0.2854 -0.4312
14009TIP3    H163442   3.388   3.243  17.179  0.1731 -2.6257 -0.1791
14009TIP3    H263443   3.333   3.209  17.316  0.5352  0.0291  0.6904
14010TIP3   OH263444   3.192   1.197   2.199 -0.0327  0.0743 -0.5213
14010TIP3    H163445   3.145   1.217   2.119 -0.2499  1.7689 -0.0104
14010TIP3    H263446   3.284   1.211   2.177 -0.2234  2.9149  0.0735
14011TIP3   OH263447   1.954   2.823  14.005  0.0057 -0.2347 -0.3965
14011TIP3    H163448   1.884   2.820  14.070 -0.6701  0.0575 -1.0967
14011TIP3    H263449   2.025   2.872  14.048  1.7548 -4.3728  2.1453
14012TIP3   OH263450   5.083   2.136   2.104  0.2071  0.0734 -0.0863
14012TIP3    H163451   5.007   2.177   2.063 -0.2206 -0.5758  0.0296
14012TIP3    H263452   5.123   2.205   2.157  0.6202  0.8552 -1.3810
14013TIP3   OH263453   3.453   6.704  12.461 -0.7439  0.1050 -0.0811
14013TIP3    H163454   3.481   6.657  12.382 -4.5606 -1.4699 -0.7127
14013TIP3    H263455   3.449   6.796  12.434  1.3481  0.0995 -0.5821
14014TIP3   OH263456   1.532   6.262  16.291 -1.0482  0.2750 -0.2588
14014TIP3    H163457   1.483   6.183  16.270  0.4189 -1.1824  1.4457
14014TIP3    H263458   1.525   6.271  16.386 -0.9491  2.0548 -0.3820
14015TIP3   OH263459   6.440   0.375   3.344  0.2265 -0.1032  0.0032
14015TIP3    H163460   6.495   0.406   3.272  1.4050  1.1577  1.3779
14015TIP3    H263461   6.502   0.346   3.410 -0.6900  1.6382  1.7182
14016TIP3   OH263462   4.240   0.262   1.082  0.7264 -0.8192  0.3158
14016TIP3    H163463   4.293   0.291   1.157  0.3346  1.3583 -0.1795
14016TIP3    H263464   4.278   0.307   1.007 -0.3648 -1.0897 -0.4212
14017TIP3   OH263465   0.775   1.793  16.048 -0.2504  0.1834  0.0009
14017TIP3    H163466   0.683   1.766  16.046  0.0781 -1.0083 -1.4313
14017TIP3    H263467   0.822   1.720  16.007  1.5184  0.1873  1.8582
14018TIP3   OH263468   1.194   1.394   3.395 -0.1258 -0.0523 -0.8501
14018TIP3    H163469   1.258   1.393   3.466 -0.7583  2.4903 -0.1701
14018TIP3    H263470   1.130   1.327   3.419  0.2052  0.0812  0.4372
14019TIP3   OH263471   1.642   5.460  17.031  0.1151  0.4029 -0.5826
14019TIP3    H163472   1.600   5.525  16.975  1.9351  2.1856  0.0312
14019TIP3    H263473   1.698   5.410  16.972 -2.0178 -1.4114 -1.2432
14020TIP3   OH263474   1.904   6.050   6.027  0.0776 -0.5447 -0.2921
14020TIP3    H163475   1.900   6.096   5.943  1.4524  0.8397  0.3650
14020TIP3    H263476   1.814   6.055   6.061  0.2218  1.9816 -0.1097
14021TIP3   OH263477   6.214   0.158   1.482 -0.7111 -0.0088  0.0844
14021TIP3    H163478   6.133   0.186   1.524 -0.5690 -0.4420  0.6555
14021TIP3    H263479   6.281   0.216   1.517 -0.7631  0.3295 -0.3653
14022TIP3   OH263480   1.925   5.550  16.264 -0.4970 -0.5658  0.1194
14022TIP3    H163481   1.899   5.624  16.208 -1.3897 -0.8059  0.2067
14022TIP3    H263482   1.943   5.590  16.349  0.4629 -0.2560 -0.2083
14023TIP3   OH263483   6.752   1.650   4.019 -0.1060 -0.0198 -0.2053
14023TIP3    H163484   6.698   1.639   3.941 -0.0155 -1.4679 -0.0946
14023TIP3    H263485   6.835   1.608   3.997 -0.2424 -0.8702  0.7983
14024TIP3   OH263486   5.210   3.087  14.483 -0.2038 -0.1838 -0.3510
14024TIP3    H163487   5.199   3.167  14.535  1.0334 -0.1110 -0.1615
14024TIP3    H263488   5.125   3.044  14.485 -0.8688  1.0838 -0.3787
14025TIP3   OH263489   4.765   2.164  13.637 -0.2565 -0.2473 -0.3676
14025TIP3    H163490   4.823   2.111  13.692 -1.7666 -1.8930 -0.2876
14025TIP3    H263491   4.820   2.237  13.609  0.5517  0.8411  3.4641
14026TIP3   OH263492   3.150   1.570  14.244 -0.3562 -0.3157  0.7812
14026TIP3    H163493   3.102   1.651  14.259  1.0979  0.2007  3.1599
14026TIP3    H263494   3.118   1.510  14.312  1.7600 -0.1624  2.0166
14027TIP3   OH263495   1.118   0.660  14.891  0.4123 -0.0387 -0.6788
14027TIP3    H163496   1.024   0.668  14.908 -0.0148 -1.0313 -2.3971
14027TIP3    H263497   1.124   0.617  14.806  2.4357  0.7322 -0.9828
14028TIP3   OH263498   1.163   4.033   1.848  0.0965 -0.6646  0.2629
14028TIP3    H163499   1.109   4.109   1.826  1.2989 -0.1822 -1.1629
14028TIP3    H263500   1.162   3.979   1.769  1.5732 -0.7125  0.2609
14029TIP3   OH263501   1.394   2.906  11.317 -0.2428 -0.2821  0.0081
14029TIP3    H163502   1.405   2.932  11.226  0.5550  1.5389  0.5667
14029TIP3    H263503   1.301   2.889  11.326 -0.2494 -1.0138 -1.2654
14030TIP3   OH263504   6.473   4.175  16.770  0.0948 -0.2638  0.0385
14030TIP3    H163505   6.419   4.164  16.848  0.1660 -0.8201  0.0127
14030TIP3    H263506   6.419   4.141  16.699  0.6248 -1.2004  0.0683
14031TIP3   OH263507   5.552   3.444  12.257 -0.0221 -0.3280  0.0198
14031TIP3    H163508   5.546   3.416  12.166 -2.4759  2.8547 -1.0129
14031TIP3    H263509   5.614   3.517  12.256  0.1900 -0.4834  0.9776
14032TIP3   OH263510   3.679   5.547   3.675 -0.4956  0.0713  0.1233
14032TIP3    H163511   3.702   5.638   3.692 -2.3674  0.8790 -1.3370
14032TIP3    H263512   3.762   5.505   3.653  0.5525  1.1294  1.7796
14033TIP3   OH263513   2.237   5.119   3.139 -0.5260  0.4444 -0.1295
14033TIP3    H163514   2.282   5.107   3.055  0.1041  0.9850  0.1240
14033TIP3    H263515   2.238   5.032   3.180 -2.1013 -0.1630 -1.2803
14034TIP3   OH263516   5.461   3.075   2.468  0.1822  0.7901  0.2222
14034TIP3    H163517   5.475   3.013   2.540  0.3646 -1.3281 -1.5243
14034TIP3    H263518   5.448   3.159   2.511  2.0065 -0.0521  2.6566
14035TIP3   OH263519   1.496   1.943  12.131 -0.3227  0.2955 -0.1925
14035TIP3    H163520   1.527   1.875  12.191  1.8632  1.5408  0.2120
14035TIP3    H263521   1.445   2.002  12.186 -0.1947  0.2633 -0.0402
14036TIP3   OH263522   2.460   5.197  12.328  0.3605  0.4965 -0.9864
14036TIP3    H163523   2.506   5.117  12.300 -1.2819 -0.7601 -0.2493
14036TIP3    H263524   2.471   5.199  12.423 -1.1865  0.0801 -0.7712
14037TIP3   OH263525   2.767   2.181  15.156  0.2287 -0.1427  0.2356
14037TIP3    H163526   2.822   2.107  15.183 -1.0707 -1.0208  0.5270
14037TIP3    H263527   2.801   2.206  15.070  0.8736 -0.8818  0.2621
14038TIP3   OH263528   2.962   4.377  11.677  0.7382  0.7692 -0.0965
14038TIP3    H163529   2.940   4.286  11.696  0.3651  1.0573  0.9727
14038TIP3    H263530   3.031   4.398  11.740  0.8222  1.2229 -0.3387
14039TIP3   OH263531   0.734   4.146  13.128 -0.3732  0.1834  0.2673
14039TIP3    H163532   0.672   4.181  13.193 -0.5164  3.3447 -1.3819
14039TIP3    H263533   0.818   4.185  13.152 -0.0886  0.0140 -0.4474
14040TIP3   OH263534   4.212   6.743  11.612 -0.4612 -0.1906 -0.5001
14040TIP3    H163535   4.297   6.784  11.596 -0.8859  1.4416  0.9873
14040TIP3    H263536   4.149   6.799  11.565 -0.7808 -1.1494 -1.2578
14041TIP3   OH263537   6.172   4.502   1.157  0.0729 -0.0721  0.8054
14041TIP3    H163538   6.130   4.454   1.085  0.2796 -0.8533  1.1986
14041TIP3    H263539   6.102   4.514   1.221  0.1439 -0.2878  0.9234
14042TIP3   OH263540   4.115   5.736   5.331  0.2388  0.5219  0.2940
14042TIP3    H163541   4.178   5.728   5.260 -0.8426 -1.9828 -0.4778
14042TIP3    H263542   4.036   5.770   5.289 -0.5904 -1.5153  0.0955
14043TIP3   OH263543   6.076   4.794   2.032  0.0687  0.3980  0.1712
14043TIP3    H163544   6.089   4.721   1.972 -0.2486  0.9693 -0.6042
14043TIP3    H263545   6.110   4.762   2.116 -0.0531 -0.6274 -0.1564
14044TIP3   OH263546   1.663   3.752  16.737 -0.3276  0.2333  0.3724
14044TIP3    H163547   1.621   3.713  16.814 -0.0346  1.4057  1.1556
14044TIP3    H263548   1.592   3.763  16.674 -0.4689 -1.2582  0.2486
14045TIP3   OH263549   5.886   0.139  14.947 -0.5590  0.0584  0.3386
14045TIP3    H163550   5.878   0.235  14.943  1.7010  0.3120  0.5695
14045TIP3    H263551   5.937   0.123  15.026 -0.7640 -1.3489  0.2070
14046TIP3   OH263552   4.015   1.591   4.165 -0.0703 -0.0716 -0.0287
14046TIP3    H163553   4.047   1.586   4.075  2.6065  0.0354  0.8287
14046TIP3    H263554   3.926   1.556   4.161  0.6291 -1.8107 -2.4107
14047TIP3   OH263555   2.850   1.038   1.474  0.3744  0.0017  0.2539
14047TIP3    H163556   2.803   1.088   1.540 -1.8555 -0.3736 -0.9602
14047TIP3    H263557   2.940   1.072   1.478 -0.1951  1.4676  1.9820
14048TIP3   OH263558   3.579   1.182   5.983 -0.2396  0.1961  0.4103
14048TIP3    H163559   3.580   1.167   6.078  0.0467 -0.6720  0.2833
14048TIP3    H263560   3.573   1.094   5.946  1.8825  0.3643 -0.4232
14049TIP3   OH263561   5.868   2.501   3.287  1.0463 -0.2461 -0.2930
14049TIP3    H163562   5.786   2.511   3.239  0.8905 -0.8618 -0.1640
14049TIP3    H263563   5.847   2.443   3.360  1.5662 -0.2988 -0.1760
14050TIP3   OH263564   4.639   6.200   3.389 -0.3376 -0.1029  0.0082
14050TIP3    H163565   4.570   6.266   3.393 -2.2054 -1.9866  1.7381
14050TIP3    H263566   4.595   6.121   3.356  1.4967 -0.8550 -0.7911
14051TIP3   OH263567   3.378   1.695   1.982 -0.3480  0.1192 -0.1945
14051TIP3    H163568   3.349   1.604   1.970 -0.1904 -0.0973  0.9030
14051TIP3    H263569   3.448   1.707   1.918  0.5333 -0.9725  0.5078
14052TIP3   OH263570   6.219   0.213   0.091 -0.2979 -0.7357  0.3633
14052TIP3    H163571   6.244   0.121   0.086  0.2115 -0.7590  2.4242
14052TIP3    H263572   6.285   0.254   0.146  0.2057  1.1869 -1.5114
14053TIP3   OH263573   1.517   0.964   4.689  0.5944 -0.1799 -0.0530
14053TIP3    H163574   1.576   0.890   4.707 -0.0243 -0.6246  0.1831
14053TIP3    H263575   1.485   0.991   4.775  1.5668  1.0221 -0.0330
14054TIP3   OH263576   3.072   0.464  12.315 -0.0015  0.6088 -0.1822
14054TIP3    H163577   3.138   0.530  12.336  1.5163 -1.2096  1.1941
14054TIP3    H263578   3.016   0.460  12.392 -0.5695  0.8388 -0.5807
14055TIP3   OH263579   0.864   0.340   5.198 -0.0576 -0.0941 -0.6133
14055TIP3    H163580   0.861   0.398   5.275 -2.6241  2.1965 -2.2548
14055TIP3    H263581   0.782   0.290   5.203  1.3667 -2.5565 -0.1161
14056TIP3   OH263582   4.675   5.446  14.541 -0.2806 -0.2052 -0.5813
14056TIP3    H163583   4.704   5.355  14.552 -1.0575 -0.5219 -1.0190
14056TIP3    H263584   4.751   5.499  14.563 -0.8452 -0.8060  3.5547
14057TIP3   OH263585   5.121   0.371  15.126  0.2442  0.3017  0.0946
14057TIP3    H163586   5.211   0.349  15.105  0.4740 -0.1647  1.5185
14057TIP3    H263587   5.070   0.334  15.054  1.1673  0.4941 -0.6707
14058TIP3   OH263588   4.705   2.550  12.713 -0.5889  0.4768 -0.0592
14058TIP3    H163589   4.703   2.458  12.739  0.4621  0.6356  0.6297
14058TIP3    H263590   4.768   2.555  12.642 -1.1826  0.5582 -0.5935
14059TIP3   OH263591   2.891   3.773  14.643 -0.4379  0.3681 -0.0911
14059TIP3    H163592   2.972   3.736  14.608 -0.0088  1.1395  0.0487
14059TIP3    H263593   2.892   3.864  14.613 -2.2588 -0.1145 -1.7872
14060TIP3   OH263594   4.377   1.109   1.418  0.0370 -0.1433 -0.2689
14060TIP3    H163595   4.432   1.152   1.353  1.1963 -1.9661 -0.5606
14060TIP3    H263596   4.314   1.176   1.445  1.2815  1.4661 -1.2308
14061TIP3   OH263597   5.502   4.738  12.084  0.7472 -0.8054 -0.7503
14061TIP3    H163598   5.455   4.734  12.000 -0.3806 -0.7971 -0.1458
14061TIP3    H263599   5.591   4.763  12.061  0.5756 -1.2725 -1.9888
14062TIP3   OH263600   2.607   2.495  12.481  0.2958 -0.0626 -0.0146
14062TIP3    H163601   2.686   2.534  12.519 -1.3387  2.3295  1.1299
14062TIP3    H263602   2.590   2.547  12.402 -1.0557  0.5545  0.6702
14063TIP3   OH263603   6.230   4.194   2.141  0.4808 -0.1124 -0.0129
14063TIP3    H163604   6.178   4.240   2.075  1.3963  0.5757 -0.2838
14063TIP3    H263605   6.167   4.170   2.209 -0.2323  0.4513 -0.4565
14064TIP3   OH263606   3.661   1.081   3.724  0.4531  0.1925 -0.0472
14064TIP3    H163607   3.715   1.056   3.649  2.0131  2.0318  0.3825
14064TIP3    H263608   3.646   0.999   3.771 -0.3840 -0.9689 -2.1987
14065TIP3   OH263609   6.251   1.818  13.368  0.1480 -0.2503 -0.0318
14065TIP3    H163610   6.339   1.783  13.384  0.4051  0.7851  1.0360
14065TIP3    H263611   6.257   1.910  13.395 -0.1266  1.0836 -3.9079
14066TIP3   OH263612   3.464   0.049   0.420  0.2758  0.1517  0.2109
14066TIP3    H163613   3.479   0.141   0.441  4.0123 -0.1855 -0.2864
14066TIP3    H263614   3.506   0.001   0.491  1.5055 -1.0769 -1.2611
14067TIP3   OH263615   1.005   2.921  14.983 -0.0216  0.3924  0.3207
14067TIP3    H163616   1.088   2.919  14.935 -0.5749  0.4948 -0.6895
14067TIP3    H263617   0.957   2.845  14.949 -0.5846  0.7031  0.4158
14068TIP3   OH263618   2.567   3.126   4.060 -0.8174  0.0083  0.4285
14068TIP3    H163619   2.572   3.191   4.131  0.7137 -1.5491  1.8664
14068TIP3    H263620   2.510   3.058   4.095 -0.6465 -0.4399 -0.1594
14069TIP3   OH263621   2.289   5.149   0.724  0.3014 -0.0103  0.6121
14069TIP3    H163622   2.335   5.218   0.676  0.0374  0.0491  0.4386
14069TIP3    H263623   2.216   5.125   0.667  1.3911 -1.6938 -0.1479
14070TIP3   OH263624   2.269   1.474   3.076  0.4535 -0.3559  0.7187
14070TIP3    H163625   2.261   1.514   2.989 -0.1210 -0.9648  0.4873
14070TIP3    H263626   2.335   1.407   3.066 -1.8172 -2.6422 -0.1160
14071TIP3   OH263627   2.190   5.310   5.595 -0.2903  0.7188 -0.1945
14071TIP3    H163628   2.194   5.388   5.539 -0.0235  1.0610  0.3001
14071TIP3    H263629   2.256   5.325   5.662  0.7462 -0.5631 -0.8766
14072TIP3   OH263630   1.779   0.242  11.129  0.1541  0.2192 -0.1107
14072TIP3    H163631   1.804   0.203  11.045 -0.2589  0.2034 -0.2333
14072TIP3    H263632   1.808   0.333  11.122  0.3126  0.1631 -0.1849
14073TIP3   OH263633   0.385   3.978  16.001  0.6632 -0.1042  0.4653
14073TIP3    H163634   0.300   3.940  16.024  0.3974  0.0653 -0.2090
14073TIP3    H263635   0.446   3.904  16.006  0.6148 -0.0867  1.6332
14074TIP3   OH263636   3.127   1.669  15.057 -0.1448 -0.2106  0.1268
14074TIP3    H163637   3.151   1.637  14.970  1.3448  0.5873  0.2061
14074TIP3    H263638   3.206   1.657  15.109 -0.3703  1.1613  0.8277
14075TIP3   OH263639   6.245   3.155  14.739 -0.5458  0.4965 -0.2325
14075TIP3    H163640   6.151   3.177  14.739 -0.4080  1.4552  2.5468
14075TIP3    H263641   6.247   3.059  14.746 -1.5274  0.5881  3.7915
14076TIP3   OH263642   4.729   4.635  17.124  0.4107 -0.0308 -0.4744
14076TIP3    H163643   4.655   4.632  17.185  0.8165  1.4865  0.1529
14076TIP3    H263644   4.719   4.557  17.070  0.4575 -1.8325  1.9881
14077TIP3   OH263645   4.686   1.332   4.097 -0.4185 -0.8215 -0.3113
14077TIP3    H163646   4.689   1.251   4.047 -1.7043  0.3187 -2.3761
14077TIP3    H263647   4.778   1.360   4.103 -0.0724 -1.8979 -0.4377
14078TIP3   OH263648   5.444   4.263  15.541  0.5910  0.2277 -0.4652
14078TIP3    H163649   5.478   4.241  15.628 -1.6405 -2.7993 -0.1963
14078TIP3    H263650   5.366   4.316  15.560 -0.2203 -0.9084 -0.5343
14079TIP3   OH263651   1.691   4.430   0.734  0.5467 -0.0207  0.3003
14079TIP3    H163652   1.715   4.448   0.643  0.3610  0.7204  0.3873
14079TIP3    H263653   1.628   4.499   0.755  0.5141 -0.2513  0.9606
14080TIP3   OH263654   4.558   3.082   0.988 -0.2375  0.2708  0.2576
14080TIP3    H163655   4.607   3.098   1.069 -0.8956 -1.1687  0.9758
14080TIP3    H263656   4.617   3.113   0.919  0.4371  1.3138  1.2569
14081TIP3   OH263657   0.331   3.890  13.393  0.5141  0.3830 -0.1086
14081TIP3    H163658   0.279   3.967  13.371  0.9285  0.1205 -2.2601
14081TIP3    H263659   0.330   3.837  13.313  1.6708 -1.0248  0.7526
14082TIP3   OH263660   5.591   4.982   2.597 -0.0194 -0.4534 -0.0853
14082TIP3    H163661   5.647   4.941   2.663 -0.9299 -0.5009  0.6673
14082TIP3    H263662   5.549   4.909   2.552  1.1949 -0.4588 -1.2906
14083TIP3   OH263663   0.727   5.237   6.057  0.0231 -0.3995  0.1729
14083TIP3    H163664   0.809   5.265   6.015 -0.2245 -0.3690 -0.3006
14083TIP3    H263665   0.737   5.142   6.067  0.6219 -0.2373  1.2505
14084TIP3   OH263666   4.416   6.396   3.419 -0.3300  0.0732 -0.1679
14084TIP3    H163667   4.352   6.425   3.353 -0.7761  1.4078  0.8036
14084TIP3    H263668   4.486   6.462   3.414  0.2227 -0.5103 -0.1461
14085TIP3   OH263669   4.237   5.616   1.399 -0.0308 -0.3148  0.1555
14085TIP3    H163670   4.232   5.634   1.493 -2.2253  0.7041 -0.0810
14085TIP3    H263671   4.282   5.692   1.362 -0.1743 -0.1687  0.2767
14086TIP3   OH263672   3.719   6.607   2.880  0.5657  0.0967  0.8865
14086TIP3    H163673   3.796   6.552   2.873  0.4040 -0.5327  3.1845
14086TIP3    H263674   3.698   6.607   2.973 -2.1183  0.3642  0.3716
14087TIP3   OH263675   2.275   2.129   2.637 -0.6933  0.4614  0.4434
14087TIP3    H163676   2.298   2.042   2.669 -0.3026  0.5335  0.3602
14087TIP3    H263677   2.357   2.165   2.603 -0.5479  1.3674  1.6654
14088TIP3   OH263678   4.055   6.335   3.278 -0.1463  0.2801  0.1414
14088TIP3    H163679   4.028   6.277   3.349  0.9629 -0.8183 -0.3105
14088TIP3    H263680   4.084   6.415   3.323  0.6140 -0.4310  0.9342
14089TIP3   OH263681   0.207   0.475  11.644 -0.1265  0.0698 -0.2045
14089TIP3    H163682   0.231   0.564  11.669  0.4365 -0.7933  2.7723
14089TIP3    H263683   0.265   0.454  11.570  1.4892  1.3440  0.6476
14090TIP3   OH263684   1.294   3.096  11.720 -0.2253  0.3185  0.1027
14090TIP3    H163685   1.225   3.162  11.716  0.8319  1.4739  0.3718
14090TIP3    H263686   1.280   3.042  11.643  0.4054  2.4353 -1.5899
14091TIP3   OH263687   6.433   2.712   2.232  0.4501  0.1028  0.5905
14091TIP3    H163688   6.364   2.647   2.221 -0.7015  1.2955  0.3977
14091TIP3    H263689   6.426   2.767   2.154  2.0426 -0.1055  0.2740
14092TIP3   OH263690   1.335   6.308   5.571 -0.0186  0.0765 -0.0819
14092TIP3    H163691   1.401   6.376   5.582 -0.5372  0.3100  2.2417
14092TIP3    H263692   1.304   6.318   5.481  0.6636  2.2133 -0.1398
14093TIP3   OH263693   1.191   1.180   2.825 -0.1410  0.1777 -0.1899
14093TIP3    H163694   1.178   1.192   2.731  0.1752  0.5979 -0.1834
14093TIP3    H263695   1.129   1.239   2.867 -0.4255 -0.1584 -0.1264
14094TIP3   OH263696   2.275   1.344   2.511  0.4305 -0.6694  0.6998
14094TIP3    H163697   2.358   1.329   2.556  0.2206 -2.2117  0.6355
14094TIP3    H263698   2.261   1.265   2.459  0.1832  0.6574 -1.3450
14095TIP3   OH263699   6.568   3.855  16.788 -0.5866  0.5035 -1.0471
14095TIP3    H163700   6.597   3.780  16.840 -1.0040  1.7352  1.0993
14095TIP3    H263701   6.485   3.881  16.827 -0.9313  1.5105 -2.3582
14096TIP3   OH263702   0.726   5.596   3.437 -0.4220 -0.2404 -0.5463
14096TIP3    H163703   0.791   5.603   3.507 -0.0676 -2.6311 -0.5720
14096TIP3    H263704   0.689   5.509   3.446  0.1543 -0.9534 -3.7220
14097TIP3   OH263705   4.394   1.782   3.185  0.3605 -0.3773  0.1925
14097TIP3    H163706   4.359   1.824   3.264 -0.1760  0.5190 -0.4994
14097TIP3    H263707   4.335   1.810   3.115  0.6462 -1.4184 -0.4803
14098TIP3   OH263708   6.619   1.974   0.789 -0.1494 -0.0372  0.6081
14098TIP3    H163709   6.587   1.905   0.730 -0.0098  1.4366 -1.2850
14098TIP3    H263710   6.670   1.927   0.855 -0.3925 -1.7777 -0.3725
14099TIP3   OH263711   1.307   4.661  17.238 -0.2539  0.7784  0.0505
14099TIP3    H163712   1.214   4.682  17.246 -0.2318  1.7280 -1.7940
14099TIP3    H263713   1.352   4.733  17.282 -0.3463  0.9573 -0.1523
14100TIP3   OH263714   5.488   5.751  16.490  0.4923  0.1930 -0.1514
14100TIP3    H163715   5.521   5.824  16.437 -0.7489  0.0514 -1.1860
14100TIP3    H263716   5.470   5.682  16.426  0.7288 -0.6817  0.7020
14101TIP3   OH263717   6.528   3.653  15.928  0.5230  0.4578  0.6654
14101TIP3    H163718   6.579   3.734  15.936  0.6715  0.4839 -0.3729
14101TIP3    H263719   6.578   3.600  15.866 -0.9429  0.6879 -0.7797
14102TIP3   OH263720   2.554   0.260  12.148 -0.0453 -0.0255 -0.2467
14102TIP3    H163721   2.599   0.297  12.223 -0.5068 -1.8892  1.0193
14102TIP3    H263722   2.549   0.166  12.167 -1.5702 -0.3295 -1.8720
14103TIP3   OH263723   3.778   4.444  11.928 -0.1353  0.5900 -0.1181
14103TIP3    H163724   3.766   4.381  11.999  0.9413 -0.0417 -0.4769
14103TIP3    H263725   3.871   4.440  11.907 -0.1666  1.8323 -0.5975
14104TIP3   OH263726   4.502   2.973  16.360  0.0151 -0.0032  0.5960
14104TIP3    H163727   4.560   2.908  16.320  0.6472 -0.0251  1.5215
14104TIP3    H263728   4.498   3.043  16.295  2.0582  0.5392  0.9679
14105TIP3   OH263729   0.318   4.056  10.991  0.2719  0.0723 -0.1125
14105TIP3    H163730   0.271   4.075  11.072  0.4921  0.9184 -0.1671
14105TIP3    H263731   0.267   4.101  10.923 -1.1745 -2.4578 -0.7970
14106TIP3   OH263732   5.843   6.610  13.566  0.2037  0.9294  0.1112
14106TIP3    H163733   5.762   6.641  13.605 -0.6916 -0.0317 -0.9210
14106TIP3    H263734   5.864   6.530  13.615  0.2029  0.8548 -0.0102
14107TIP3   OH263735   2.047   6.706  10.233 -0.4596 -0.5728 -0.3737
14107TIP3    H163736   2.099   6.684  10.311 -1.1507 -1.4560 -0.1418
14107TIP3    H263737   1.971   6.649  10.239 -2.0773  1.5124 -0.0928
14108TIP3   OH263738   4.506   3.442   0.194  0.4701 -0.4497  0.1481
14108TIP3    H163739   4.422   3.464   0.153  0.6843 -1.1007 -0.6577
14108TIP3    H263740   4.483   3.414   0.283 -0.2017 -1.0142 -0.2001
14109TIP3   OH263741   2.764   6.616   5.084  0.3064 -0.0301 -0.0738
14109TIP3    H163742   2.831   6.555   5.052  2.1237  1.3862  0.8642
14109TIP3    H263743   2.756   6.597   5.177  1.3337  1.4986  0.3609
14110TIP3   OH263744   0.972   4.527  13.492 -0.0669 -0.1813  0.4956
14110TIP3    H163745   0.918   4.448  13.493 -1.0904  0.4985  1.1318
14110TIP3    H263746   1.062   4.495  13.496 -0.3300 -1.3761 -1.7085
14111TIP3   OH263747   0.509   0.810   1.520  0.1709 -0.6198 -0.0232
14111TIP3    H163748   0.492   0.881   1.582  2.0054 -0.8342  0.7932
14111TIP3    H263749   0.529   0.735   1.575  0.4870 -1.1738 -0.8773
14112TIP3   OH263750   0.414   0.013  12.647 -0.4255  0.0378 -0.3342
14112TIP3    H163751   0.416   0.002  12.552 -0.1679 -0.1002 -0.3117
14112TIP3    H263752   0.494  -0.029  12.678  0.4709  1.7495 -0.2249
14113TIP3   OH263753   5.351   0.197   0.611  0.2024  0.2098 -0.3046
14113TIP3    H163754   5.285   0.135   0.642  0.0588  0.2739 -0.4780
14113TIP3    H263755   5.428   0.143   0.591 -0.6203 -0.2480 -2.5650
14114TIP3   OH263756   0.260   5.728   2.178 -0.5195  0.5137  0.1024
14114TIP3    H163757   0.222   5.797   2.124  0.1297  0.8961  0.1249
14114TIP3    H263758   0.204   5.724   2.256  0.3394  2.1188  0.8411
14115TIP3   OH263759   0.976   1.666  14.270  0.3646 -0.0514  0.3019
14115TIP3    H163760   1.070   1.653  14.262  0.1535 -0.7675 -1.2693
14115TIP3    H263761   0.964   1.761  14.268  1.0912  0.0833  1.3329
14116TIP3   OH263762   2.286   3.004  14.673  0.2513 -0.7042  0.4575
14116TIP3    H163763   2.336   3.074  14.632 -1.4601  1.0929  1.2698
14116TIP3    H263764   2.274   3.033  14.764  0.2617 -2.5057  1.0809
14117TIP3   OH263765   4.624   5.351  13.448  0.1304 -0.9359  0.1568
14117TIP3    H163766   4.551   5.352  13.510  0.7405 -1.5794  0.9074
14117TIP3    H263767   4.624   5.438  13.410  0.6737  0.0133  2.1962
14118TIP3   OH263768   2.828   6.666  12.569  0.5001  0.0008  0.2903
14118TIP3    H163769   2.893   6.618  12.619 -0.2530 -2.6862 -1.1428
14118TIP3    H263770   2.877   6.707  12.498  0.9604  0.2023  0.7163
14119TIP3   OH263771   5.548   4.715   1.213 -0.2976  0.3495 -0.1215
14119TIP3    H163772   5.484   4.652   1.245  1.9668 -0.9858  2.1143
14119TIP3    H263773   5.568   4.770   1.288  0.5387  1.3295 -1.0234
14120TIP3   OH263774   1.211   4.914   2.115  0.4513 -0.0908 -0.4310
14120TIP3    H163775   1.248   4.844   2.060  0.1295  0.6878 -1.6779
14120TIP3    H263776   1.271   4.920   2.190  0.1276 -2.1395  0.0531
14121TIP3   OH263777   3.060   1.852  12.431 -0.6547  0.2244  0.1302
14121TIP3    H163778   2.986   1.896  12.473 -0.5423 -0.2237  0.8237
14121TIP3    H263779   3.043   1.759  12.444 -1.7342 -0.0867 -2.7345
14122TIP3   OH263780   2.328   3.221  12.599  0.1251  0.3329 -0.0851
14122TIP3    H163781   2.422   3.221  12.580  0.3782  2.1844  0.8887
14122TIP3    H263782   2.299   3.310  12.579 -1.0130  0.3507  1.4094
14123TIP3   OH263783   5.838   0.816   2.897 -0.4341  0.1190 -0.0339
14123TIP3    H163784   5.845   0.793   2.804 -0.7095  0.0628 -0.0430
14123TIP3    H263785   5.885   0.747   2.943  0.1993  0.4527 -0.1643
14124TIP3   OH263786   2.616   3.056  13.077  0.2707  0.3872  0.5128
14124TIP3    H163787   2.624   3.151  13.071 -2.3383  0.6695  0.4678
14124TIP3    H263788   2.617   3.025  12.986  0.2356  0.4565  0.4896
14125TIP3   OH263789   5.582   2.225   1.635  0.3209 -0.1406  0.1968
14125TIP3    H163790   5.648   2.178   1.583 -0.6063 -1.2616 -0.0062
14125TIP3    H263791   5.628   2.302   1.667  1.1500  0.1831 -1.6241
14126TIP3   OH263792   1.538   5.995   0.332  0.4758  0.1907 -0.3364
14126TIP3    H163793   1.484   6.010   0.254  0.2973 -1.0855 -0.4778
14126TIP3    H263794   1.622   5.965   0.297  0.5720  0.1262 -0.0492
14127TIP3   OH263795   1.570   1.102  10.808  0.3973  0.6107  0.1876
14127TIP3    H163796   1.497   1.159  10.786 -0.5915 -0.0052  1.7229
14127TIP3    H263797   1.545   1.016  10.772  0.1448  0.2972  1.0941
14128TIP3   OH263798   4.607   5.366   0.051 -0.2127  0.4177 -0.0457
14128TIP3    H163799   4.561   5.390   0.132 -0.9924 -1.3715  0.0799
14128TIP3    H263800   4.553   5.297   0.013  1.7945 -0.9979 -0.4720
14129TIP3   OH263801   5.594   5.517  14.182  0.6257 -0.1359  0.2803
14129TIP3    H163802   5.673   5.468  14.159  1.3166  1.5238 -1.0952
14129TIP3    H263803   5.581   5.498  14.275  2.3343 -0.8657  0.4165
14130TIP3   OH263804   6.575   4.456  12.935  0.5559 -0.1382  0.2266
14130TIP3    H163805   6.614   4.388  12.990  0.9659 -0.9225 -0.9828
14130TIP3    H263806   6.544   4.522  12.997  1.6819 -0.6124  1.3494
14131TIP3   OH263807   3.095   4.393   5.327  0.0948 -0.1131  0.0470
14131TIP3    H163808   3.028   4.335   5.363 -0.2895 -0.3515 -1.0175
14131TIP3    H263809   3.163   4.335   5.295  0.0979  0.0592 -0.2639
14132TIP3   OH263810   0.004   2.181   6.530 -0.3017 -0.0554 -0.2810
14132TIP3    H163811   0.063   2.145   6.465 -0.8578 -2.0371  0.2384
14132TIP3    H263812  -0.035   2.104   6.573  0.0326  1.1346  2.3797
14133TIP3   OH263813   3.408   3.116   5.629  0.2879  0.3375 -0.5991
14133TIP3    H163814   3.333   3.061   5.650  1.5843 -1.9221 -1.5102
14133TIP3    H263815   3.385   3.160   5.547  0.0059 -0.4127 -0.9228
14134TIP3   OH263816   0.663   0.878   2.539  0.4916 -0.1767  0.8044
14134TIP3    H163817   0.694   0.886   2.449 -0.2048  1.4087  0.6680
14134TIP3    H263818   0.650   0.784   2.552 -0.5903 -0.3426 -1.1729
14135TIP3   OH263819   4.116   3.166  15.330  0.0377  0.6083 -0.4274
14135TIP3    H163820   4.101   3.072  15.318 -1.5877  0.6306  1.0056
14135TIP3    H263821   4.030   3.206  15.317  0.1305  1.5790  1.5538
14136TIP3   OH263822   1.508   1.671   5.045 -0.0063 -0.2277  0.2570
14136TIP3    H163823   1.450   1.676   4.969 -0.1778  2.2104  0.4744
14136TIP3    H263824   1.571   1.603   5.022 -1.9985 -1.8775 -0.6352
14137TIP3   OH263825   2.111   4.620   2.428  0.5049  0.0872 -0.1389
14137TIP3    H163826   2.112   4.577   2.343 -2.1067 -2.1509  0.8159
14137TIP3    H263827   2.035   4.678   2.425  1.5663  1.5495  0.0468
14138TIP3   OH263828   2.110   6.396   5.827 -0.7916  0.1544  0.2671
14138TIP3    H163829   2.164   6.319   5.842  0.0091  0.5562 -0.4410
14138TIP3    H263830   2.086   6.392   5.735  0.9131  1.7181 -0.3276
14139TIP3   OH263831   4.478   2.466  15.890  0.8236  0.1962  0.0465
14139TIP3    H163832   4.521   2.551  15.879  1.1098  0.0232 -0.2135
14139TIP3    H263833   4.538   2.404  15.849 -0.3923  0.1326 -1.7585
14140TIP3   OH263834   3.590   6.245   3.197 -0.1793  0.1923  0.1076
14140TIP3    H163835   3.586   6.187   3.121  2.5593 -1.5535  1.1322
14140TIP3    H263836   3.511   6.225   3.247 -0.6661 -0.6217 -0.9702
14141TIP3   OH263837   1.327   1.663   0.070  0.7484 -0.4894 -0.0295
14141TIP3    H163838   1.407   1.624   0.105  0.8570  0.7413  1.1531
14141TIP3    H263839   1.329   1.754   0.099 -0.9538 -0.3569 -0.1938
14142TIP3   OH263840   2.841   3.351  11.535 -0.2028 -0.2891  0.2459
14142TIP3    H163841   2.787   3.318  11.463 -0.5804  0.4767  0.1681
14142TIP3    H263842   2.846   3.445  11.520 -0.4547 -0.0894  1.3230
14143TIP3   OH263843   4.894   2.432  12.056 -0.0014 -0.4988 -0.0425
14143TIP3    H163844   4.845   2.513  12.070 -0.8487 -1.2758  1.7584
14143TIP3    H263845   4.976   2.461  12.014  0.4108  1.5216  1.9400
14144TIP3   OH263846   1.862   2.199   4.960 -0.4362 -0.5415  0.2883
14144TIP3    H163847   1.831   2.258   4.892  0.4148  1.3135  1.4206
14144TIP3    H263848   1.856   2.111   4.922 -0.2207  0.4059 -2.0536
14145TIP3   OH263849   0.024   4.556  12.778 -0.1356 -0.4060 -0.0865
14145TIP3    H163850  -0.068   4.553  12.804  0.2073 -0.6640  1.1484
14145TIP3    H263851   0.024   4.523  12.688 -0.9273 -3.4801  0.9063
14146TIP3   OH263852   2.255   4.227   3.016 -0.4563 -0.6646 -0.0678
14146TIP3    H163853   2.220   4.314   3.001 -1.7335 -1.0326  0.6227
14146TIP3    H263854   2.326   4.218   2.952  0.0712  1.0746  0.2411
14147TIP3   OH263855   2.234   0.714  10.848 -0.2644 -0.2423 -0.0931
14147TIP3    H163856   2.329   0.708  10.838 -0.1469 -0.9838  1.1623
14147TIP3    H263857   2.201   0.727  10.760  1.1780  3.0763 -0.3081
14148TIP3   OH263858   6.262   3.909  12.671  0.0904 -0.0022  0.3332
14148TIP3    H163859   6.311   3.828  12.688  0.3281 -0.2611 -1.4069
14148TIP3    H263860   6.172   3.880  12.656 -0.0862  0.2033  0.9646
14149TIP3   OH263861   1.074   6.635  12.534 -0.3760 -0.3420 -0.1609
14149TIP3    H163862   1.094   6.554  12.487 -0.5959 -0.8823  0.6608
14149TIP3    H263863   1.090   6.614  12.626 -1.9866  0.0654  0.2397
14150TIP3   OH263864   3.776   0.736   1.504 -0.6455 -0.1178 -0.2819
14150TIP3    H163865   3.772   0.644   1.532  0.5631  0.0110  0.3953
14150TIP3    H263866   3.841   0.736   1.434 -1.9498 -0.0440 -1.5411
14151TIP3   OH263867   0.983   2.749   2.977 -0.4617  0.0685 -0.0174
14151TIP3    H163868   0.922   2.704   2.919 -0.9463  0.5391  0.1147
14151TIP3    H263869   0.927   2.795   3.040  0.0475 -0.1131  0.5816
14152TIP3   OH263870   0.016   2.934  14.969 -0.2414 -0.0738  0.2038
14152TIP3    H163871  -0.041   3.002  14.931 -0.9885 -0.2567  0.9738
14152TIP3    H263872  -0.044   2.873  15.010  0.2163 -2.4378 -2.3051
14153TIP3   OH263873   3.418   4.158  15.920  0.0004  0.4449 -0.2139
14153TIP3    H163874   3.505   4.143  15.882 -0.7138 -1.3186 -1.2788
14153TIP3    H263875   3.368   4.201  15.852 -0.8960 -1.5496 -0.9038
14154TIP3   OH263876   5.123   0.592  16.796 -0.2417  0.4216  0.0743
14154TIP3    H163877   5.038   0.630  16.817 -0.8231 -1.5273  1.6866
14154TIP3    H263878   5.150   0.549  16.878  1.6432 -0.1645 -0.8049
14155TIP3   OH263879   5.706   1.110   2.330 -0.2378 -0.5570  0.2915
14155TIP3    H163880   5.781   1.118   2.388 -0.6176  0.5518  0.6710
14155TIP3    H263881   5.735   1.052   2.260  1.4966  1.0398 -0.3901
14156TIP3   OH263882   3.534   1.798  15.914  0.5455  0.0990  0.4800
14156TIP3    H163883   3.619   1.837  15.935  0.8551 -0.5369  0.4583
14156TIP3    H263884   3.475   1.831  15.981  0.7939  0.5946  0.4606
14157TIP3   OH263885   4.649   0.239   2.276  0.1398  0.0861 -0.0460
14157TIP3    H163886   4.676   0.331   2.276  0.3983  0.0128 -0.3324
14157TIP3    H263887   4.715   0.195   2.331  1.5236 -0.3469 -1.9713
14158TIP3   OH263888   2.601   4.671  14.186 -0.0783  0.4568 -0.3442
14158TIP3    H163889   2.672   4.670  14.251 -1.7914 -0.6088  1.6583
14158TIP3    H263890   2.645   4.654  14.103  1.9043 -1.4260  0.9496
14159TIP3   OH263891   6.323   4.192  16.989  0.3594  0.1231 -0.3502
14159TIP3    H163892   6.237   4.203  17.029 -0.1612 -0.6976 -1.1925
14159TIP3    H263893   6.383   4.239  17.047 -0.4450 -0.5300  1.0609
14160TIP3   OH263894   4.681   0.566   6.815  0.7409 -0.0243  0.5624
14160TIP3    H163895   4.717   0.651   6.789  1.6443 -0.0109  1.7392
14160TIP3    H263896   4.617   0.587   6.883  0.0286 -0.2048 -0.0456
14161TIP3   OH263897   3.952   4.256  14.312  0.6229  0.3189 -0.5075
14161TIP3    H163898   4.038   4.298  14.317  0.7528 -0.0242  0.3157
14161TIP3    H263899   3.969   4.173  14.268  0.6375  0.4399 -0.7314
14162TIP3   OH263900   5.414   3.814   1.973 -0.8287 -0.2374 -0.3635
14162TIP3    H163901   5.348   3.782   2.035 -1.6527  0.0843 -1.0536
14162TIP3    H263902   5.427   3.742   1.912 -0.0431 -0.5397  0.1340
14163TIP3   OH263903   1.555   3.116   5.502  0.3506  0.2220  0.6305
14163TIP3    H163904   1.630   3.155   5.547  1.7306  0.6964 -1.8683
14163TIP3    H263905   1.525   3.184   5.442  0.2933 -1.1805 -1.0125
14164TIP3   OH263906   4.406   0.394   0.874 -0.3058 -0.1010 -0.2303
14164TIP3    H163907   4.440   0.450   0.805  0.2061  1.2723  1.0977
14164TIP3    H263908   4.429   0.305   0.847  3.1102  0.6187 -0.1248
14165TIP3   OH263909   4.038   4.405  15.973  0.0267 -0.0120  0.1269
14165TIP3    H163910   3.974   4.384  15.905  0.8469 -0.1692 -0.6100
14165TIP3    H263911   4.026   4.336  16.038 -0.0090 -0.5012 -0.3860
14166TIP3   OH263912   4.052   6.077  14.755  0.2809 -0.0690  0.0154
14166TIP3    H163913   4.018   6.010  14.814  1.0353 -0.3232  0.1694
14166TIP3    H263914   4.004   6.063  14.673  0.6032 -0.9665 -0.0342
14167TIP3   OH263915   5.698   6.695   2.334 -0.2504 -0.2828  0.0447
14167TIP3    H163916   5.663   6.756   2.269 -2.9949 -1.9833 -0.2213
14167TIP3    H263917   5.626   6.681   2.395  1.0833 -1.4965  1.4101
14168TIP3   OH263918   2.584   4.031  17.210  0.2229  0.0379 -0.4142
14168TIP3    H163919   2.592   3.959  17.272  0.6094 -1.4400 -2.1057
14168TIP3    H263920   2.648   4.096  17.240  1.0109 -1.0068  0.2423
14169TIP3   OH263921   2.049   2.111  12.291  0.0932 -0.5919 -0.2473
14169TIP3    H163922   2.041   2.122  12.196  2.2891 -2.3606 -0.7278
14169TIP3    H263923   1.971   2.153  12.327 -0.9218 -0.0829 -2.8366
14170TIP3   OH263924   2.036   0.835  14.955  0.6819 -0.0725  0.4518
14170TIP3    H163925   2.072   0.922  14.970 -4.1872  2.5622 -0.9581
14170TIP3    H263926   2.031   0.827  14.859 -1.1436 -0.7299  0.5593
14171TIP3   OH263927   6.160   3.267   3.165  0.4265 -0.1259 -0.5685
14171TIP3    H163928   6.171   3.264   3.070 -0.7468 -0.5407 -0.7128
14171TIP3    H263929   6.182   3.357   3.189 -0.1545  0.2468 -1.3664
14172TIP3   OH263930   3.652   3.448  12.200 -0.6269  0.0637 -0.2182
14172TIP3    H163931   3.746   3.442  12.182 -0.2117  1.3751  1.2126
14172TIP3    H263932   3.620   3.358  12.196  0.8586 -0.4954  0.0192
14173TIP3   OH263933   5.151   5.610  13.325  0.2603 -0.2556  0.2855
14173TIP3    H163934   5.238   5.649  13.339 -0.6494  2.3177 -0.5591
14173TIP3    H263935   5.119   5.590  13.412 -0.2080  3.5063  1.1708
14174TIP3   OH263936   2.313   5.752   3.551 -0.2172  0.1518  0.2425
14174TIP3    H163937   2.224   5.748   3.516 -0.0452 -0.1261 -0.1685
14174TIP3    H263938   2.303   5.731   3.644 -0.8582  2.3340  0.7075
14175TIP3   OH263939   1.712   4.430  13.001 -0.3893 -0.2831 -0.0966
14175TIP3    H163940   1.796   4.474  12.985 -0.4307  0.2553  1.0285
14175TIP3    H263941   1.648   4.483  12.954 -0.5343  1.3516  1.7813
14176TIP3   OH263942   3.262   5.014  12.306  0.2274  0.0521 -0.5430
14176TIP3    H163943   3.308   5.010  12.222 -0.7898  3.5133 -1.4480
14176TIP3    H263944   3.257   5.107  12.326 -0.0311 -0.6235  3.1761
14177TIP3   OH263945   0.775   3.261  15.401  0.0913 -0.8808  0.1697
14177TIP3    H163946   0.854   3.240  15.352  0.9563 -0.7795  1.4735
14177TIP3    H263947   0.803   3.262  15.493 -1.1751  0.2782  0.5772
14178TIP3   OH263948   1.697   5.430   0.849 -0.6009  0.3731 -0.3537
14178TIP3    H163949   1.780   5.476   0.858  0.2338 -0.9838 -0.7817
14178TIP3    H263950   1.671   5.409   0.939 -0.7474  1.2105 -0.1875
14179TIP3   OH263951   0.273   6.091   1.263 -0.4060 -0.1869  0.2155
14179TIP3    H163952   0.252   6.172   1.216 -2.3888 -0.7515  0.0372
14179TIP3    H263953   0.350   6.056   1.217  0.2223  1.3626  0.0423
14180TIP3   OH263954   4.424   2.031   0.068 -0.0142  0.6329  0.2808
14180TIP3    H163955   4.455   2.119   0.087 -1.1483  1.3910 -1.1528
14180TIP3    H263956   4.463   2.010  -0.017 -0.7913  0.2892 -0.0027
14181TIP3   OH263957   1.818   3.579  16.073  0.3554 -0.8418 -0.1949
14181TIP3    H163958   1.805   3.659  16.125 -3.4914 -0.2529 -1.7137
14181TIP3    H263959   1.878   3.606  16.004 -0.9192  0.8564 -0.7203
14182TIP3   OH263960   3.688   3.707  13.551  0.6205 -0.4125  0.0441
14182TIP3    H163961   3.595   3.705  13.528  0.9416 -0.1719 -1.3339
14182TIP3    H263962   3.693   3.653  13.630 -0.6945 -0.4094  0.1620
14183TIP3   OH263963   0.922   4.701  11.767 -0.6443  0.1273  0.0607
14183TIP3    H163964   0.909   4.650  11.687  0.6235 -0.2570  0.0760
14183TIP3    H263965   0.891   4.645  11.837 -0.8623  0.0773 -0.0760
14184TIP3   OH263966   1.708   4.569   3.034 -0.0130  0.1972 -0.8462
14184TIP3    H163967   1.626   4.539   2.994  0.6029 -0.4189 -1.6789
14184TIP3    H263968   1.686   4.582   3.127 -0.8270 -0.8704 -0.8649
14185TIP3   OH263969   4.353   0.373   3.063  0.0843  0.2528 -0.4434
14185TIP3    H163970   4.262   0.401   3.072 -0.2212 -1.0753  0.9734
14185TIP3    H263971   4.397   0.410   3.139 -0.1494 -2.2015  1.0051
14186TIP3   OH263972   3.534   4.319   3.795 -0.4030 -0.0103  0.1133
14186TIP3    H163973   3.598   4.255   3.764 -0.8716  0.6234 -2.4324
14186TIP3    H263974   3.543   4.318   3.890  2.9338 -0.3895 -0.0899
14187TIP3   OH263975   4.448   2.426   0.304  0.2578 -0.1684  0.6745
14187TIP3    H163976   4.359   2.449   0.328  0.4452 -1.7922  3.2737
14187TIP3    H263977   4.502   2.495   0.342  0.1578  1.9196 -2.5425
14188TIP3   OH263978   5.927   6.395   5.753 -0.7598  0.6970 -0.0373
14188TIP3    H163979   5.855   6.332   5.754 -1.4848  1.5183  1.0680
14188TIP3    H263980   5.975   6.378   5.834  0.4188  0.0568 -0.8295
14189TIP3   OH263981   0.693   6.100  17.218  0.3860 -0.6752 -0.3029
14189TIP3    H163982   0.739   6.181  17.195  0.8288 -0.8292  0.0256
14189TIP3    H263983   0.622   6.094  17.154 -0.3575  0.5687  0.3630
14190TIP3   OH263984   1.971   0.457  14.442  0.2552 -0.1120  0.1894
14190TIP3    H163985   1.987   0.431  14.533 -2.1270 -0.7150  0.4933
14190TIP3    H263986   1.971   0.552  14.444  1.0706 -0.1032  0.6225
14191TIP3   OH263987   0.319   1.026  12.142 -0.1747  0.1682  0.3668
14191TIP3    H163988   0.252   1.056  12.081 -1.2085 -0.5543  1.1037
14191TIP3    H263989   0.402   1.057  12.105 -0.6411 -1.1959 -1.9814
14192TIP3   OH263990   2.626   3.980  13.350 -0.0613  0.4054 -0.0897
14192TIP3    H163991   2.702   3.992  13.406 -0.0881 -1.7904  0.5058
14192TIP3    H263992   2.661   3.944  13.269 -0.4631 -0.9442  0.3138
14193TIP3   OH263993   1.161   0.519  15.905  0.8604  0.3016 -0.2813
14193TIP3    H163994   1.088   0.581  15.907  0.7411  0.1885 -0.8607
14193TIP3    H263995   1.120   0.435  15.884  1.0815  0.1158  0.0242
14194TIP3   OH263996   6.671   5.168   4.682 -0.3928 -0.1635  0.0420
14194TIP3    H163997   6.577   5.168   4.701 -0.2455 -0.1534  0.8210
14194TIP3    H263998   6.695   5.261   4.683 -0.2901 -0.1924  0.2957
14195TIP3   OH263999   0.678   3.301  16.683 -0.2324  0.7350 -0.2935
14195TIP3    H164000   0.774   3.298  16.691 -0.1247  0.6839 -1.4869
14195TIP3    H264001   0.653   3.209  16.672 -0.7200  0.3915  2.8000
14196TIP3   OH264002   5.267   1.793   3.981 -0.1311 -0.0959  0.6635
14196TIP3    H164003   5.298   1.848   3.909 -1.3341  0.3972  0.5086
14196TIP3    H264004   5.332   1.723   3.987 -0.4972 -0.6981 -1.5396
14197TIP3   OH264005   1.649   1.604   0.465 -0.1762  0.6396 -0.7949
14197TIP3    H164006   1.651   1.546   0.541  1.0146  0.7562 -0.7177
14197TIP3    H264007   1.616   1.548   0.394  3.1395 -0.9245 -1.2963
14198TIP3   OH264008   0.106   1.436  16.961 -0.3380 -0.2627  0.0900
14198TIP3    H164009   0.190   1.425  17.005 -0.3556  1.7302  0.7096
14198TIP3    H264010   0.044   1.391  17.018  0.2876 -1.8280 -0.4207
14199TIP3   OH264011   0.827   0.404   4.944 -0.4613  0.6921  0.0535
14199TIP3    H164012   0.758   0.464   4.975 -1.7685 -0.7837  0.1186
14199TIP3    H264013   0.854   0.357   5.022 -0.4859  0.1854 -0.2383
14200TIP3   OH264014   2.237   3.510   4.225  0.7382  0.7478 -1.0198
14200TIP3    H164015   2.277   3.435   4.268 -1.2419 -0.6591 -1.4919
14200TIP3    H264016   2.309   3.552   4.178  2.3951  0.7105  1.3370
14201TIP3   OH264017   6.265   2.724  11.263  0.8687  0.0776 -0.3786
14201TIP3    H164018   6.311   2.781  11.325 -2.2691  2.0032  0.4185
14201TIP3    H264019   6.270   2.771  11.179 -0.5012  0.8896 -0.0360
14202TIP3   OH264020   5.976   3.394   5.925  0.2714  0.1888  0.9369
14202TIP3    H164021   5.967   3.298   5.922 -0.5969  0.2007  2.1104
14202TIP3    H264022   6.068   3.408   5.946  0.5805 -0.3621  0.0067
14203TIP3   OH264023   3.026   1.018  12.533  0.0773  0.2144  0.2218
14203TIP3    H164024   3.120   1.011  12.519  0.1779  2.4945 -0.4758
14203TIP3    H264025   3.017   1.060  12.619 -0.2425  1.6536 -0.4921
14204TIP3   OH264026   0.659   3.877   2.451  0.0250 -0.1515 -0.2623
14204TIP3    H164027   0.730   3.864   2.389 -0.2951  0.1492 -0.6959
14204TIP3    H264028   0.700   3.923   2.525  1.5925 -4.6391  2.0689
14205TIP3   OH264029   1.259   0.481  11.837 -0.5938 -0.5868 -0.1338
14205TIP3    H164030   1.350   0.495  11.860 -1.0126  0.3081  1.1161
14205TIP3    H264031   1.216   0.565  11.856 -1.6621 -0.9582 -0.7848
14206TIP3   OH264032   3.972   1.986  13.078  0.2577  0.5851  0.4409
14206TIP3    H164033   3.984   2.043  13.154 -0.6539  1.2617  0.0872
14206TIP3    H264034   3.931   1.907  13.114  0.4046  0.6454  0.7468
14207TIP3   OH264035   4.594   0.971  14.898  0.2915  0.4581  0.6045
14207TIP3    H164036   4.606   0.977  14.992 -1.9048 -2.2044  1.1853
14207TIP3    H264037   4.679   0.940  14.865  1.2708  1.9862  1.5347
14208TIP3   OH264038   3.797   0.370  17.087  0.5268  0.5144  0.0930
14208TIP3    H164039   3.851   0.365  17.009  0.7460  1.0528  0.2038
14208TIP3    H264040   3.784   0.464  17.101  0.1928  0.4106  0.4974
14209TIP3   OH264041   1.757   2.041   5.956  0.1835  0.2477 -0.3233
14209TIP3    H164042   1.788   2.126   5.986 -1.1489  0.4028  0.7292
14209TIP3    H264043   1.779   1.981   6.027  1.7004 -0.4601 -1.3322
14210TIP3   OH264044   0.418   4.432  11.255  0.4197  0.0629  0.1797
14210TIP3    H164045   0.333   4.475  11.262  0.8617  1.1171 -0.6960
14210TIP3    H264046   0.399   4.339  11.268 -0.6428  0.4220  1.5103
14211TIP3   OH264047   3.095   1.921   1.929 -0.1093 -0.1515 -0.6078
14211TIP3    H164048   3.101   1.901   2.022  0.7498  4.0092  0.4387
14211TIP3    H264049   3.181   1.955   1.906 -0.2508 -1.2280 -3.0280
14212TIP3   OH264050   2.132   3.092  12.339 -0.2081  0.2248 -0.2248
14212TIP3    H164051   2.147   3.173  12.289  0.0374 -0.6713 -1.6362
14212TIP3    H264052   2.037   3.090  12.353 -0.2200  0.7374 -0.2019
14213TIP3   OH264053   4.450   1.934  11.406  0.1267 -0.2139  0.3302
14213TIP3    H164054   4.496   1.861  11.364 -1.1382 -0.3179 -0.9728
14213TIP3    H264055   4.462   2.007  11.345 -0.2759  0.1157  0.6437
14214TIP3   OH264056   4.280   5.716   2.926 -0.3309 -0.1041  0.3189
14214TIP3    H164057   4.213   5.656   2.895  1.5701 -1.2587 -1.8931
14214TIP3    H264058   4.308   5.679   3.010 -1.1321 -0.6872  0.3360
14215TIP3   OH264059   4.795   1.854   6.359 -0.0354  0.0423 -0.3682
14215TIP3    H164060   4.816   1.923   6.297 -0.2134 -0.5032 -1.0517
14215TIP3    H264061   4.859   1.785   6.341  0.0752 -0.0133  0.2274
14216TIP3   OH264062   1.905   6.303  14.498  0.8439  0.0823  0.9063
14216TIP3    H164063   1.843   6.307  14.425  2.6152  0.9258 -0.6108
14216TIP3    H264064   1.849   6.297  14.576 -1.1023 -1.0455 -0.4856
14217TIP3   OH264065   3.212   5.263   2.574  0.3919 -0.4780 -0.6783
14217TIP3    H164066   3.186   5.176   2.605 -1.2065 -0.5872 -2.2130
14217TIP3    H264067   3.142   5.321   2.604 -0.1425 -0.2582 -2.2666
14218TIP3   OH264068   0.677   6.638  12.605  0.0538 -0.0417  0.1263
14218TIP3    H164069   0.617   6.564  12.592 -0.0926  0.0454  0.3042
14218TIP3    H264070   0.762   6.597  12.619 -0.0599 -0.1851  0.4165
14219TIP3   OH264071   4.095   0.476   5.757 -0.6258  0.5888 -0.4190
14219TIP3    H164072   4.174   0.432   5.789 -1.2195 -0.6134 -0.5728
14219TIP3    H264073   4.112   0.490   5.664 -0.6807  0.1226 -0.5020
14220TIP3   OH264074   4.019   4.886  14.284 -0.4007 -0.7851 -0.2450
14220TIP3    H164075   4.045   4.794  14.290  0.9885 -0.3958  0.0294
14220TIP3    H264076   4.051   4.926  14.364 -1.4717 -0.1551 -0.1119
14221TIP3   OH264077   1.561   1.692  11.968  0.0024  0.3564  0.2400
14221TIP3    H164078   1.592   1.782  11.981  2.7752 -0.1355 -1.9527
14221TIP3    H264079   1.520   1.693  11.882  1.8620 -0.8257 -0.7152
14222TIP3   OH264080   2.213   1.420   1.091 -0.0212  0.3734 -0.0068
14222TIP3    H164081   2.180   1.459   1.010 -2.5778  0.0326  0.7961
14222TIP3    H264082   2.241   1.495   1.144  1.1949  0.6270 -0.9441
14223TIP3   OH264083   5.728   5.644   4.570  0.3321  0.2926 -0.3970
14223TIP3    H164084   5.633   5.650   4.573  0.0344 -2.5884 -1.1068
14223TIP3    H264085   5.755   5.643   4.662 -0.6388 -1.5780 -0.0731
14224TIP3   OH264086   4.842   6.666  14.943 -0.1790 -0.4594  0.4104
14224TIP3    H164087   4.923   6.628  14.909  0.3705 -1.0129  2.2181
14224TIP3    H264088   4.871   6.729  15.010 -1.2390 -1.2733  1.6862
14225TIP3   OH264089   2.764   5.201   2.082  1.0496 -0.1456 -0.5439
14225TIP3    H164090   2.774   5.266   2.152 -1.4411 -0.9456  0.6701
14225TIP3    H264091   2.701   5.240   2.022 -1.7375 -1.9554  1.0351
14226TIP3   OH264092   5.989   6.731  14.789  0.0453  0.3330  0.1320
14226TIP3    H164093   5.938   6.786  14.849 -0.0028  1.1081 -0.6001
14226TIP3    H264094   5.962   6.760  14.702 -0.7689 -1.5667 -0.3000
14227TIP3   OH264095   1.686   0.141   0.035  0.0032 -0.1712 -0.1404
14227TIP3    H164096   1.776   0.116   0.056  0.5826  1.4184 -0.6005
14227TIP3    H264097   1.687   0.236   0.035 -1.2331 -0.1057 -1.9894
14228TIP3   OH264098   3.666   2.578   1.873 -0.5333 -0.1858  0.2095
14228TIP3    H164099   3.722   2.506   1.903  0.9423  1.3698  1.3871
14228TIP3    H264100   3.578   2.554   1.903  0.0992 -1.0387  1.4863
14229TIP3   OH264101   2.372   4.344   3.245  0.4411 -0.7501  0.5715
14229TIP3    H164102   2.330   4.336   3.159  0.4962  1.0450  0.3547
14229TIP3    H264103   2.396   4.254   3.268  1.3727 -1.1615 -1.7540
14230TIP3   OH264104   0.601   1.258  14.234  0.0323 -0.3739 -0.0329
14230TIP3    H164105   0.645   1.315  14.171  0.5692 -0.3404  0.3645
14230TIP3    H264106   0.560   1.190  14.181 -1.7161  1.0591 -0.6471
14231TIP3   OH264107   3.449   5.512   0.881  0.2952  0.8537  0.0734
14231TIP3    H164108   3.525   5.509   0.939 -0.2373  1.2499  0.8107
14231TIP3    H264109   3.477   5.565   0.806  1.2096 -0.2396 -0.3770
14232TIP3   OH264110   0.283   3.069   0.777  0.6416  0.6079 -0.3043
14232TIP3    H164111   0.263   3.161   0.761 -1.5878  0.5860  1.7032
14232TIP3    H264112   0.231   3.022   0.711 -0.3209  0.7655  0.3147
14233TIP3   OH264113   1.988   2.354   3.816  0.1420 -0.0223  0.7646
14233TIP3    H164114   2.028   2.417   3.875 -0.6667  0.5431  0.7302
14233TIP3    H264115   1.975   2.275   3.869  0.5642  0.0561  0.9873
14234TIP3   OH264116   0.656   1.260   1.109  0.0677 -0.0095 -0.6502
14234TIP3    H164117   0.679   1.329   1.170 -0.1556  0.8395 -1.4955
14234TIP3    H264118   0.561   1.249   1.119  0.2443 -0.9100  0.1914
14235TIP3   OH264119   1.568   5.146  14.666 -0.4392  0.0190 -0.2759
14235TIP3    H164120   1.563   5.100  14.582  1.0726 -2.1639  0.7244
14235TIP3    H264121   1.481   5.181  14.679 -0.7495  0.3655 -2.6938
14236TIP3   OH264122   3.703   6.069   3.682  0.3398 -0.2861  0.2734
14236TIP3    H164123   3.686   6.080   3.588  0.8215 -2.2099 -0.0711
14236TIP3    H264124   3.628   6.110   3.725  0.6665  1.6689 -0.8786
14237TIP3   OH264125   2.022   1.054  13.449  0.2399  0.1161 -0.7687
14237TIP3    H164126   1.936   1.055  13.491  0.9042  1.0345  0.6356
14237TIP3    H264127   2.017   1.123  13.383 -0.4160 -0.4964 -1.3654
14238TIP3   OH264128   0.283   2.395  17.203 -0.4607 -0.4879  0.2275
14238TIP3    H164129   0.297   2.306  17.172 -1.3765 -0.5793  0.0455
14238TIP3    H264130   0.195   2.418  17.172  0.4372  1.1403 -1.2964
14239TIP3   OH264131   4.406   1.442  11.519  0.3027 -0.4071 -0.0819
14239TIP3    H164132   4.367   1.433  11.432 -0.6220  1.6834  0.0583
14239TIP3    H264133   4.333   1.437  11.579  0.3096  2.3370  0.2645
14240TIP3   OH264134   2.635   4.786  13.814 -0.2528 -0.4283 -0.2950
14240TIP3    H164135   2.717   4.826  13.843  0.3575 -1.0741 -1.1015
14240TIP3    H264136   2.618   4.717  13.878  0.3505 -0.9297 -0.6672
14241TIP3   OH264137   6.227   2.566  15.551  0.0856 -0.7493 -0.3714
14241TIP3    H164138   6.218   2.475  15.578  1.2328 -0.7380  0.1228
14241TIP3    H264139   6.164   2.614  15.605  1.7136 -0.8477  1.7602
14242TIP3   OH264140   2.152   0.698  17.183 -0.1430  0.1247 -0.0471
14242TIP3    H164141   2.119   0.643  17.113 -0.4616 -1.1186  1.0319
14242TIP3    H264142   2.130   0.650  17.263  1.9911  0.4877  0.8259
14243TIP3   OH264143   4.091   2.696  11.717 -0.1077 -0.7159 -0.5142
14243TIP3    H164144   4.084   2.778  11.766  0.9768 -1.5926  1.1946
14243TIP3    H264145   4.045   2.713  11.635 -0.2068  1.4788 -0.0551
14244TIP3   OH264146   6.584   2.833  15.113 -0.3602 -0.3353  0.4416
14244TIP3    H164147   6.554   2.744  15.094  2.2367 -1.1810 -0.0936
14244TIP3    H264148   6.619   2.828  15.202  1.4633 -0.3832 -0.2391
14245TIP3   OH264149   2.627   1.875  13.134  0.0525 -0.1620  0.0334
14245TIP3    H164150   2.578   1.873  13.217 -0.2669 -1.4239 -0.1712
14245TIP3    H264151   2.570   1.923  13.074  0.6120  1.4429  0.7135
14246TIP3   OH264152   1.688   6.277   2.443  0.0561 -0.8351  0.0923
14246TIP3    H164153   1.639   6.318   2.372 -0.5118 -2.0399 -0.2328
14246TIP3    H264154   1.774   6.259   2.406 -0.3726 -1.8466 -0.4379
14247TIP3   OH264155   2.923   3.500  13.032 -0.0028 -0.1937  0.6165
14247TIP3    H164156   2.962   3.423  12.990  1.7511  1.0645 -0.1750
14247TIP3    H264157   2.887   3.466  13.114 -0.6279 -2.1133 -0.3779
14248TIP3   OH264158   4.745   0.374  14.231 -0.4093 -0.4688 -0.5252
14248TIP3    H164159   4.649   0.384  14.228 -0.2736  1.3214 -0.0551
14248TIP3    H264160   4.773   0.436  14.298  1.0136 -1.6691  0.0204
14249TIP3   OH264161   5.064   2.468   5.140  0.0894  0.8696 -0.1706
14249TIP3    H164162   5.018   2.550   5.162  0.3090  0.9407  0.0299
14249TIP3    H264163   5.015   2.433   5.065 -1.7252 -0.2531  1.4509
14250TIP3   OH264164   4.303   2.845  12.810  0.5206 -0.2978 -0.3640
14250TIP3    H164165   4.354   2.923  12.788 -0.1390  0.4258  0.6123
14250TIP3    H264166   4.362   2.793  12.864  0.5990  0.0418 -0.1161
14251TIP3   OH264167   5.998   5.783  16.436 -0.1625  0.3604 -0.2426
14251TIP3    H164168   5.957   5.698  16.419 -0.8010  0.5031  0.5273
14251TIP3    H264169   5.924   5.843  16.446  0.2478  0.7314  0.6335
14252TIP3   OH264170   6.719   5.079   4.983  0.2826 -0.6512  0.4098
14252TIP3    H164171   6.656   5.021   5.026  0.6369 -0.9482  0.5319
14252TIP3    H264172   6.724   5.048   4.893 -0.1959 -0.2489  0.2424
14253TIP3   OH264173   2.857   4.583  11.992  0.5752  0.4460 -0.3275
14253TIP3    H164174   2.867   4.673  11.960  0.0432  0.8352  0.5721
14253TIP3    H264175   2.826   4.534  11.915 -2.7107  1.7875 -0.0204
14254TIP3   OH264176   2.919   6.318  15.977 -0.1445 -0.9270  0.0373
14254TIP3    H164177   3.013   6.328  15.992  0.1779  3.4115 -3.0184
14254TIP3    H264178   2.878   6.380  16.038 -0.4974  0.7779 -1.8268
14255TIP3   OH264179   5.134   2.037   4.875 -0.1148  0.0284  0.0435
14255TIP3    H164180   5.119   2.040   4.970 -0.8370  1.1442 -0.0872
14255TIP3    H264181   5.086   2.112   4.841 -1.8907 -1.6949 -1.4915
14256TIP3   OH264182   3.869   5.425  16.609 -0.1487  0.4452  0.4030
14256TIP3    H164183   3.786   5.401  16.568 -0.3148  2.4958 -0.5985
14256TIP3    H264184   3.868   5.521  16.610  2.0739  0.5142  0.6418
14257TIP3   OH264185   3.801   3.911   4.415 -0.2157  0.1463  0.1061
14257TIP3    H164186   3.861   3.837   4.409  0.4225  0.6124  0.6332
14257TIP3    H264187   3.839   3.968   4.482 -1.5667  0.1666  0.8916
14258TIP3   OH264188   5.980   6.340   3.489  0.3086  0.6705 -0.1759
14258TIP3    H164189   6.074   6.320   3.492  0.3024  0.6607 -0.0650
14258TIP3    H264190   5.961   6.379   3.574  0.1260  0.3033 -0.0476
14259TIP3   OH264191   5.331   2.487  17.081  0.0063  0.3018 -0.2774
14259TIP3    H164192   5.399   2.505  17.146  1.9065  1.5529 -2.4691
14259TIP3    H264193   5.377   2.486  16.997 -2.1206 -2.4583 -1.6032
14260TIP3   OH264194   4.877   2.870   4.711 -0.0867  0.3150 -0.1070
14260TIP3    H164195   4.947   2.932   4.691 -0.1835  0.7347  0.7957
14260TIP3    H264196   4.816   2.920   4.766 -1.5308  0.2207 -1.5276
14261TIP3   OH264197   1.881   5.214  12.669  0.0159  0.2958  0.3419
14261TIP3    H164198   1.963   5.265  12.666  1.1035 -1.4186 -1.0571
14261TIP3    H264199   1.823   5.261  12.609  0.7234  0.3447 -0.3250
14262TIP3   OH264200   4.379   4.073   3.178  0.6436  0.5184 -0.7946
14262TIP3    H164201   4.382   4.126   3.258  1.2325 -0.1601 -0.3625
14262TIP3    H264202   4.447   4.110   3.122  1.8106 -0.4665 -0.0511
14263TIP3   OH264203   4.327   2.514   6.417  0.3144 -0.0858 -0.8749
14263TIP3    H164204   4.238   2.526   6.452  1.0637  0.5343  0.9533
14263TIP3    H264205   4.379   2.583   6.459  1.2407  1.1119 -3.7286
14264TIP3   OH264206   1.163   0.218   2.185  0.1426  0.0208 -0.2698
14264TIP3    H164207   1.133   0.238   2.097  0.2971 -2.9115 -1.0884
14264TIP3    H264208   1.083   0.221   2.238  0.0912  2.0606 -0.3933
14265TIP3   OH264209   3.147   6.237  12.888  0.2237  0.3855  0.2776
14265TIP3    H164210   3.077   6.171  12.892 -0.8826  1.3689 -1.4438
14265TIP3    H264211   3.157   6.254  12.794  3.5477 -0.4636  0.3580
14266TIP3   OH264212   0.427   0.356  12.072  0.0264 -0.1086 -0.5188
14266TIP3    H164213   0.480   0.361  11.993 -0.6397  1.6849 -0.9061
14266TIP3    H264214   0.356   0.295  12.049  1.3476 -1.8045 -0.2981
14267TIP3   OH264215   4.582   3.215  15.069  0.1828  0.4065 -0.1494
14267TIP3    H164216   4.517   3.284  15.057 -0.3166 -0.0428 -0.0511
14267TIP3    H264217   4.541   3.154  15.131  0.6528  0.0640 -0.1738
14268TIP3   OH264218   0.692   1.959  13.914  1.1258 -0.4694  0.0372
14268TIP3    H164219   0.743   2.032  13.948  1.5000 -0.1737 -1.1148
14268TIP3    H264220   0.754   1.885  13.913  1.1472 -0.4482 -0.1256
14269TIP3   OH264221   6.437   5.243   0.275 -0.0815  0.7276 -0.6512
14269TIP3    H164222   6.401   5.320   0.319  0.6162  1.5367 -1.4503
14269TIP3    H264223   6.363   5.207   0.226 -0.8434 -0.1392  1.0735
14270TIP3   OH264224   6.723   4.994   4.447 -0.0237 -0.4868 -0.2806
14270TIP3    H164225   6.695   5.073   4.401 -1.0035 -0.2428  0.6895
14270TIP3    H264226   6.701   5.011   4.539  1.2467 -1.2338  0.1834
14271TIP3   OH264227   5.202   4.564  11.931  0.6563 -0.3790 -0.1761
14271TIP3    H164228   5.129   4.502  11.930 -0.1152  0.4032  1.9209
14271TIP3    H264229   5.276   4.514  11.896 -0.6452 -1.4706 -1.5082
14272TIP3   OH264230   0.945   1.966  10.947 -0.1011 -0.4792 -0.3833
14272TIP3    H164231   0.959   2.055  10.915  0.4000 -0.6461 -0.6321
14272TIP3    H264232   0.851   1.951  10.936 -0.6173  0.8324  1.7728
14273TIP3   OH264233   3.658   1.269  15.585 -0.3312  0.5484  0.8660
14273TIP3    H164234   3.684   1.236  15.499 -0.5338  2.4119  0.0586
14273TIP3    H264235   3.590   1.208  15.615  1.0876 -1.2550  0.6153
14274TIP3   OH264236   6.102   3.777   4.051  0.6540  0.6144  0.2083
14274TIP3    H164237   6.188   3.738   4.066  1.5331  1.9735 -0.9775
14274TIP3    H264238   6.042   3.703   4.046  2.6051 -1.0950 -4.8443
14275TIP3   OH264239   4.368   0.112  12.520  0.1676  0.1868  0.1904
14275TIP3    H164240   4.443   0.052  12.520  0.0060 -0.0205 -0.2230
14275TIP3    H264241   4.356   0.134  12.612  0.9407  0.4777  0.2305
14276TIP3   OH264242   5.562   3.979   3.786  0.2721  0.2766 -0.4907
14276TIP3    H164243   5.585   3.975   3.879 -1.6960  3.4118  0.3072
14276TIP3    H264244   5.497   3.909   3.775  1.2492 -0.7793  0.1941
14277TIP3   OH264245   2.217   2.947   2.265  0.1788 -0.3053 -0.1827
14277TIP3    H164246   2.173   2.864   2.282  0.5383 -0.2860  0.9467
14277TIP3    H264247   2.302   2.923   2.227  0.1876 -0.4504 -0.0717
14278TIP3   OH264248   3.463   4.814   2.516  0.1515 -0.9304  0.3042
14278TIP3    H164249   3.515   4.779   2.444  0.0344 -0.4291 -0.0296
14278TIP3    H264250   3.512   4.792   2.595  0.2956 -1.4543  0.0712
14279TIP3   OH264251   1.356   5.346  14.740  0.1351  0.1653  0.3909
14279TIP3    H164252   1.341   5.433  14.704  3.5764  0.4534 -0.7087
14279TIP3    H264253   1.369   5.361  14.834  1.0221  0.9460  0.1631
14280TIP3   OH264254   1.852   3.637   0.315 -0.4768 -0.0881  0.1397
14280TIP3    H164255   1.865   3.730   0.333 -0.2441  0.0419 -0.6579
14280TIP3    H264256   1.765   3.618   0.349  0.3355 -0.1414  2.4052
14281TIP3   OH264257   2.769   1.830   1.070  0.4644 -0.0399 -0.2095
14281TIP3    H164258   2.705   1.900   1.086  0.5673  0.0041  0.0197
14281TIP3    H264259   2.854   1.875   1.074  0.5182 -0.1316 -0.3283
14282TIP3   OH264260   0.485   5.200   3.152 -0.1049 -0.7391  0.3674
14282TIP3    H164261   0.531   5.188   3.235  0.8783 -1.9357 -0.3125
14282TIP3    H264262   0.406   5.250   3.175  1.5679  1.5671  1.5611
14283TIP3   OH264263   0.431   0.472  13.738 -0.1498 -0.1957 -0.0185
14283TIP3    H164264   0.494   0.492  13.808 -0.1762 -0.7830  0.1786
14283TIP3    H264265   0.415   0.378  13.747 -1.1089 -0.0440 -0.0160
14284TIP3   OH264266   4.402   6.577  12.038 -0.5062 -0.0904  0.0443
14284TIP3    H164267   4.430   6.665  12.063 -1.2864  0.1909 -0.0469
14284TIP3    H264268   4.359   6.588  11.954  0.8926 -0.8315 -0.8138
14285TIP3   OH264269   5.963   1.053  13.157 -0.9866 -0.1456  0.3733
14285TIP3    H164270   5.873   1.087  13.160 -0.8732  0.1103  1.1742
14285TIP3    H264271   5.997   1.068  13.246 -1.0130 -2.5874  0.8537
14286TIP3   OH264272   1.572   5.193  13.453 -0.2409 -0.3869  0.4676
14286TIP3    H164273   1.611   5.266  13.502 -1.7657 -0.0815  1.2776
14286TIP3    H264274   1.585   5.217  13.361  0.0548  0.4734  0.7201
14287TIP3   OH264275   4.863   5.510  14.080  0.0284  0.4085  0.0043
14287TIP3    H164276   4.854   5.415  14.075  0.6078  0.3364  0.2006
14287TIP3    H264277   4.852   5.530  14.173  1.3096  0.3644  0.1865
14288TIP3   OH264278   4.628   4.936   4.361  0.1085  0.9875  0.0469
14288TIP3    H164279   4.621   5.021   4.318  0.5449  1.4733  0.8971
14288TIP3    H264280   4.696   4.890   4.313 -0.2990  1.0209 -0.5686
14289TIP3   OH264281   3.096   1.331   2.444  0.6086  0.2066 -0.4112
14289TIP3    H164282   3.110   1.425   2.455  0.8820  0.3280 -1.7309
14289TIP3    H264283   3.158   1.304   2.377  0.1709 -0.8256 -0.4271
14290TIP3   OH264284   1.789   5.342   5.827  0.3319  0.7265 -0.2787
14290TIP3    H164285   1.779   5.311   5.917  1.3177  1.2377  0.0249
14290TIP3    H264286   1.817   5.433   5.836  0.1521  0.8677 -1.1073
14291TIP3   OH264287   3.470   2.897  10.903  0.4181 -0.0496 -0.6810
14291TIP3    H164288   3.490   2.985  10.873 -0.1092  0.3199  0.0145
14291TIP3    H264289   3.404   2.864  10.842 -0.2435  0.4856 -0.2682
14292TIP3   OH264290   5.562   3.248   1.519 -0.1769  0.0711  0.4970
14292TIP3    H164291   5.540   3.155   1.527  0.5388 -0.1662 -0.1542
14292TIP3    H264292   5.578   3.261   1.426  1.7023  0.3730  0.8252
14293TIP3   OH264293   0.953   2.164  15.973  0.1826  0.6500  0.4649
14293TIP3    H164294   0.925   2.174  16.064 -0.6562  0.6013  0.2237
14293TIP3    H264295   0.879   2.120  15.931  0.8048  0.1408 -0.1100
14294TIP3   OH264296   1.351   2.057  12.737 -0.1580 -0.1117 -0.2420
14294TIP3    H164297   1.393   2.133  12.696 -1.7046  0.9120 -0.0112
14294TIP3    H264298   1.271   2.092  12.776  0.7292 -1.2232  2.8514
14295TIP3   OH264299   0.976   2.943  13.038 -0.6664  0.3273  0.4376
14295TIP3    H164300   1.020   2.890  12.971  0.2769  2.4729 -0.7566
14295TIP3    H264301   0.936   3.015  12.988 -4.5406 -0.7773  1.6052
14296TIP3   OH264302   2.339   6.526  13.059  0.1375  0.7526 -0.0657
14296TIP3    H164303   2.263   6.488  13.104 -0.5764 -2.1954 -3.2655
14296TIP3    H264304   2.304   6.602  13.013  0.4073  2.4673  2.3547
14297TIP3   OH264305   3.912   6.633  15.472  0.0266 -0.5501 -0.2862
14297TIP3    H164306   3.992   6.686  15.470  0.7720 -1.5896  0.6001
14297TIP3    H264307   3.924   6.568  15.402 -2.2957  2.2706 -3.6073
14298TIP3   OH264308   5.022   3.321  12.647  0.1902 -0.0726  0.2283
14298TIP3    H164309   5.060   3.277  12.724  1.8870 -0.1327 -0.6078
14298TIP3    H264310   5.063   3.278  12.572 -1.4416 -0.0163 -0.7411
14299TIP3   OH264311   1.069   3.081   0.592 -0.1337  0.0177  0.1181
14299TIP3    H164312   1.157   3.044   0.598 -0.4381 -0.7051  0.2583
14299TIP3    H264313   1.022   3.045   0.667 -0.5784  0.3054 -0.0169
14300TIP3   OH264314   3.154   2.920   2.923  0.0005 -0.1288 -0.0065
14300TIP3    H164315   3.133   2.833   2.888 -0.2682 -0.8347  1.8026
14300TIP3    H264316   3.152   2.909   3.018 -0.0733  1.8778  0.2746
14301TIP3   OH264317   1.800   2.175  16.230 -0.0011 -0.0341 -0.1996
14301TIP3    H164318   1.879   2.212  16.189  0.0871  0.5272  0.4463
14301TIP3    H264319   1.816   2.081  16.232  1.3820  0.1712  1.3330
14302TIP3   OH264320   4.923   3.022  16.454  1.0814 -0.1986  0.4323
14302TIP3    H164321   4.932   3.110  16.419  1.9701 -0.5226 -0.1946
14302TIP3    H264322   5.006   3.006  16.499  1.1223 -0.9002  0.1123
14303TIP3   OH264323   0.767   3.808  11.035 -0.4758  0.3563 -0.3668
14303TIP3    H164324   0.752   3.807  11.129  0.6627  2.6608 -0.0834
14303TIP3    H264325   0.680   3.823  10.997 -0.5403  3.2673  0.6156
14304TIP3   OH264326   3.992   1.566   1.686 -0.4952 -0.0832 -0.3396
14304TIP3    H164327   4.072   1.596   1.644  0.1586 -0.3869  0.6635
14304TIP3    H264328   3.935   1.643   1.686  0.0252  0.3037 -0.4994
14305TIP3   OH264329   6.314   1.765  11.394  0.3140 -0.1383  0.4878
14305TIP3    H164330   6.303   1.723  11.309 -0.7778 -2.9624  1.8808
14305TIP3    H264331   6.397   1.813  11.387  0.6572 -0.9577 -1.8838
14306TIP3   OH264332   3.134   3.545  16.443  0.2350  0.0434 -0.3401
14306TIP3    H164333   3.049   3.520  16.408 -0.1821  1.9939 -0.7812
14306TIP3    H264334   3.189   3.559  16.366  0.3658  0.7516 -0.1252
14307TIP3   OH264335   3.372   5.520  12.888  0.0815  0.1869  0.2999
14307TIP3    H164336   3.295   5.466  12.900 -0.0259 -0.1051 -1.4336
14307TIP3    H264337   3.446   5.460  12.896 -0.0131 -0.1282 -0.9687
14308TIP3   OH264338   5.898   2.430   5.620 -0.0284 -0.6029  0.3444
14308TIP3    H164339   5.814   2.398   5.588 -0.5805  0.4943  0.6693
14308TIP3    H264340   5.884   2.446   5.713  0.1747  0.7478  0.1551
14309TIP3   OH264341   1.294   6.026   2.306  0.4147 -0.5306  0.2238
14309TIP3    H164342   1.276   6.117   2.281 -0.9255 -0.5870  0.8544
14309TIP3    H264343   1.208   5.992   2.334  1.2773 -1.3234  2.0674
14310TIP3   OH264344   3.708   1.955   1.685  0.4730  0.4043  0.2007
14310TIP3    H164345   3.762   1.882   1.656  1.5630  1.1911  0.1843
14310TIP3    H264346   3.684   1.933   1.775 -0.4446 -0.6476 -0.2779
14311TIP3   OH264347   5.568   5.140   2.387  0.1128  0.1472 -0.2879
14311TIP3    H164348   5.589   5.101   2.472  0.1008 -0.1809 -0.4341
14311TIP3    H264349   5.537   5.067   2.334 -0.9011  0.5166 -0.2412
14312TIP3   OH264350   2.624   5.181  16.214 -0.2773  0.4962  0.0980
14312TIP3    H164351   2.706   5.169  16.262  1.7270 -0.4215 -3.2023
14312TIP3    H264352   2.606   5.275  16.220 -0.4716  0.3874  2.8808
14313TIP3   OH264353   3.683   6.030   5.394 -0.4372  0.1269  0.0446
14313TIP3    H164354   3.698   5.937   5.408 -0.3165  0.1988  0.4063
14313TIP3    H264355   3.690   6.042   5.299 -0.2796 -0.2009  0.0153
14314TIP3   OH264356   3.991   2.448   4.035  0.1857 -0.4488 -0.0130
14314TIP3    H164357   3.903   2.462   3.999  0.8718 -1.3968 -2.2586
14314TIP3    H264358   3.977   2.437   4.129 -2.4900 -3.1911 -0.5601
14315TIP3   OH264359   3.771   1.857   2.917  0.0025  0.0327 -0.1059
14315TIP3    H164360   3.689   1.899   2.890  0.2124  0.0558 -0.7348
14315TIP3    H264361   3.764   1.850   3.012 -1.0393 -0.6131 -0.2050
14316TIP3   OH264362   2.288   6.520   0.061  0.1171 -0.1219 -0.2663
14316TIP3    H164363   2.217   6.462   0.035 -0.2579  0.3259 -0.2536
14316TIP3    H264364   2.288   6.517   0.157 -0.6569  0.7862 -0.2279
14317TIP3   OH264365   5.356   3.269   0.334 -0.2030 -0.3851  0.4866
14317TIP3    H164366   5.327   3.234   0.251 -1.1597 -0.3645  0.8050
14317TIP3    H264367   5.297   3.343   0.351  0.2283 -0.1490  0.9969
14318TIP3   OH264368   5.624   4.501   0.541 -0.2143  0.0851  0.7427
14318TIP3    H164369   5.694   4.557   0.508  1.6577 -1.3895  2.0656
14318TIP3    H264370   5.622   4.517   0.635  1.7911 -3.4181  1.5477
14319TIP3   OH264371   1.821   5.041  11.603 -0.1798  0.2322  0.0883
14319TIP3    H164372   1.850   4.951  11.616  1.4229  0.4047 -1.6978
14319TIP3    H264373   1.770   5.062  11.681  0.2641 -1.8701  1.0144
14320TIP3   OH264374   4.087   6.342   5.256 -0.4063  0.5190  0.3141
14320TIP3    H164375   4.137   6.424   5.250  0.2897  0.2273  1.5591
14320TIP3    H264376   4.026   6.357   5.328  0.3859 -0.3604  1.1986
14321TIP3   OH264377   1.595   0.496   5.080  0.2227 -0.1351  0.1311
14321TIP3    H164378   1.581   0.484   5.174  0.3437  0.0443  0.1719
14321TIP3    H264379   1.571   0.587   5.063  0.4491 -0.0916  0.0355
14322TIP3   OH264380   4.102   3.622  17.002  0.2013 -0.1573 -0.3765
14322TIP3    H164381   4.176   3.675  17.029  0.4931 -0.5701 -0.3529
14322TIP3    H264382   4.090   3.643  16.909  1.2121 -1.0845 -0.7362
14323TIP3   OH264383   5.296   1.207  14.071  0.3371  0.3704 -0.3862
14323TIP3    H164384   5.235   1.135  14.058  0.0068  0.2508  1.5567
14323TIP3    H264385   5.382   1.165  14.076  0.2359  0.2109 -0.0360
14324TIP3   OH264386   2.769   1.528   4.051 -0.0481  0.2916 -0.2733
14324TIP3    H164387   2.694   1.494   4.099  0.7787 -2.0020 -0.5197
14324TIP3    H264388   2.761   1.490   3.964  2.2435 -1.3829  0.1743
14325TIP3   OH264389   6.090   1.988   4.693  0.4519 -0.2782  0.2662
14325TIP3    H164390   6.150   2.061   4.708  0.2376 -0.3021  1.3260
14325TIP3    H264391   6.142   1.910   4.714  1.1386 -0.5960 -2.2215
14326TIP3   OH264392   0.249   0.232   0.708  0.3493  0.3094  0.2537
14326TIP3    H164393   0.301   0.183   0.772  0.6812 -0.1330 -0.3417
14326TIP3    H264394   0.235   0.318   0.749  1.7682  0.5345  0.3373
14327TIP3   OH264395   3.265   0.059  15.436  0.1342  0.2660  0.0291
14327TIP3    H164396   3.238   0.128  15.375  1.0799  0.1127 -0.5895
14327TIP3    H264397   3.228   0.086  15.520  2.5046  2.9067  0.3949
14328TIP3   OH264398   5.706   3.475   3.737 -0.6064 -0.0395 -0.0792
14328TIP3    H164399   5.741   3.462   3.649  0.1222 -0.0584  0.2049
14328TIP3    H264400   5.633   3.414   3.743  0.6050 -1.5572  0.0215
14329TIP3   OH264401   3.256   3.664   3.045  0.2472  0.2761  0.0816
14329TIP3    H164402   3.283   3.643   2.955  0.1644 -1.3345  0.3990
14329TIP3    H264403   3.175   3.713   3.034 -0.7669 -1.4717 -0.7275
14330TIP3   OH264404   0.774   1.168   4.448  0.3292 -0.1453 -0.1058
14330TIP3    H164405   0.859   1.204   4.474  1.1731 -1.7644 -0.5288
14330TIP3    H264406   0.788   1.131   4.362 -0.7973 -0.5177 -0.1514
14331TIP3   OH264407   6.580   2.922   6.418 -0.5519 -0.4158  0.4514
14331TIP3    H164408   6.528   2.981   6.473 -0.1527 -0.2505  0.6565
14331TIP3    H264409   6.516   2.879   6.362 -0.5752  3.1279 -2.6139
14332TIP3   OH264410   5.673   0.072   4.505  0.4409  0.3625 -0.3260
14332TIP3    H164411   5.637   0.016   4.436 -1.4553  1.1971 -0.0658
14332TIP3    H264412   5.671   0.017   4.583 -0.8735  0.5718 -0.1922
14333TIP3   OH264413   5.086   4.732  11.117 -0.1926 -0.4790  0.3025
14333TIP3    H164414   5.039   4.813  11.098 -1.6534 -1.3236  0.1890
14333TIP3    H264415   5.138   4.715  11.038 -0.0050  0.2483  0.2675
14334TIP3   OH264416   4.136   2.344   1.158  0.3878  0.3681 -0.6691
14334TIP3    H164417   4.207   2.377   1.103  0.5383  0.4588 -0.4244
14334TIP3    H264418   4.140   2.249   1.148 -0.8363  0.4634 -2.3415
14335TIP3   OH264419   2.362   3.762   3.527  0.0152 -0.6090  0.6111
14335TIP3    H164420   2.400   3.821   3.462  0.6423 -1.5223  0.1337
14335TIP3    H264421   2.307   3.819   3.581  1.5792  0.6412  0.9623
14336TIP3   OH264422   4.072   0.112   1.715 -0.5428  0.4207  0.0360
14336TIP3    H164423   4.069   0.016   1.723 -1.0404  0.2518 -1.7728
14336TIP3    H264424   4.138   0.129   1.649 -0.1774  1.3687  0.6254
14337TIP3   OH264425   4.264   6.543   3.236 -0.5081 -0.1700  0.4091
14337TIP3    H164426   4.272   6.634   3.205 -0.3423 -0.3350 -0.0371
14337TIP3    H264427   4.203   6.502   3.175 -0.3804 -0.4255  0.4541
14338TIP3   OH264428   4.053   0.290   2.652  0.1234 -0.7969  0.3415
14338TIP3    H164429   4.135   0.244   2.635  0.3823  0.2632 -1.5506
14338TIP3    H264430   3.985   0.224   2.642  0.7230 -1.8619  2.6512
14339TIP3   OH264431   2.058   6.369   0.899  0.1327 -0.3706  0.1560
14339TIP3    H164432   2.092   6.453   0.867 -0.9800 -0.7002 -2.0595
14339TIP3    H264433   2.130   6.308   0.885  0.3233 -0.1327  0.0877
14340TIP3   OH264434   4.185   1.675  11.370 -0.4872 -0.2221  0.2148
14340TIP3    H164435   4.114   1.667  11.433 -0.3630  1.2456  0.5831
14340TIP3    H264436   4.229   1.757  11.393  0.2305 -0.2003 -1.1017
14341TIP3   OH264437   1.017   2.892   2.406  0.1256 -0.4418  0.4110
14341TIP3    H164438   1.091   2.865   2.352  0.4477  1.0143  0.0833
14341TIP3    H264439   0.975   2.810   2.433 -0.2694 -1.2483 -2.3442
14342TIP3   OH264440   6.143   5.031  13.701 -0.1044  0.0287  0.1744
14342TIP3    H164441   6.081   5.095  13.737 -1.3208 -1.1405  0.2385
14342TIP3    H264442   6.229   5.073  13.712 -1.0093  2.9941 -2.6057
14343TIP3   OH264443   5.058   4.107  10.422 -0.2013 -0.0365 -0.1416
14343TIP3    H164444   5.052   4.198  10.451  1.4377  0.1316 -0.2274
14343TIP3    H264445   5.152   4.092  10.410 -0.4126 -1.8297  0.1575
14344TIP3   OH264446   6.197   1.041  13.350  0.0350 -0.7944 -0.2814
14344TIP3    H164447   6.249   1.086  13.416 -1.1150 -0.9944  0.7974
14344TIP3    H264448   6.256   0.974  13.315  1.5363  0.9896 -1.4053
14345TIP3   OH264449   2.798   2.435   2.818 -0.3668  0.3079 -0.0445
14345TIP3    H164450   2.886   2.411   2.849 -0.0325  3.0002  1.4586
14345TIP3    H264451   2.761   2.354   2.785  2.8771 -0.8336 -1.2667
14346TIP3   OH264452   6.686   3.211  16.428 -0.4297 -0.4075 -0.1526
14346TIP3    H164453   6.602   3.236  16.466  0.9259 -0.0846  2.9210
14346TIP3    H264454   6.737   3.293  16.427  0.4432 -0.9426 -0.3138
14347TIP3   OH264455   2.465   6.761   0.819  0.3777 -0.2543 -0.1344
14347TIP3    H164456   2.512   6.756   0.735  0.7846 -1.7110  0.1527
14347TIP3    H264457   2.510   6.831   0.867  0.9994 -0.3089 -0.6239
14348TIP3   OH264458   2.837   1.317  15.005 -0.4384  0.0815 -0.6363
14348TIP3    H164459   2.853   1.402  15.047  0.2654  0.3544 -1.4346
14348TIP3    H264460   2.764   1.334  14.945  0.2515  0.3670 -1.4308
14349TIP3   OH264461   3.222   2.816  12.279 -0.4751  0.2371  0.1456
14349TIP3    H164462   3.316   2.809  12.262 -0.3647 -0.2676  0.9233
14349TIP3    H264463   3.195   2.726  12.300 -1.4098  0.1126 -1.4076
14350TIP3   OH264464   0.993   0.485   4.018 -0.0603  0.1403 -0.2332
14350TIP3    H164465   1.013   0.431   4.094  0.3755 -0.5017 -0.7943
14350TIP3    H264466   0.960   0.567   4.055 -3.1725 -1.3672  0.6559
14351TIP3   OH264467   3.176   0.732  15.449 -0.5501  0.1714  0.3811
14351TIP3    H164468   3.220   0.791  15.388 -0.4738 -1.2681 -1.0395
14351TIP3    H264469   3.151   0.656  15.395  0.4748 -1.6586  2.3392
14352TIP3   OH264470   3.067   1.601   1.009 -0.3450 -0.3700 -0.2953
14352TIP3    H164471   3.106   1.687   1.024 -2.0658  0.6789 -1.3714
14352TIP3    H264472   2.984   1.604   1.058 -1.6897 -0.3390 -2.4498
14353TIP3   OH264473   0.037   4.673  13.583 -0.2911  0.4658 -0.0977
14353TIP3    H164474   0.023   4.683  13.489 -2.1145 -0.5069  0.0194
14353TIP3    H264475   0.128   4.701  13.597  0.3072 -0.1542 -2.2730
14354TIP3   OH264476   6.515   4.962   1.217 -0.9400 -0.4626  0.1471
14354TIP3    H164477   6.489   5.048   1.249 -0.0595 -0.0891 -0.1219
14354TIP3    H264478   6.460   4.948   1.140  2.0284  1.9387 -2.6611
14355TIP3   OH264479   4.530   1.394  12.037 -0.1301 -0.0189  0.0323
14355TIP3    H164480   4.603   1.372  12.094 -1.1337 -1.5976  0.8000
14355TIP3    H264481   4.474   1.451  12.090 -0.1237  0.0833 -0.0704
14356TIP3   OH264482   0.517   6.264  13.284  0.3325  0.2121 -0.3369
14356TIP3    H164483   0.485   6.345  13.322  1.0205  0.7337 -0.8356
14356TIP3    H264484   0.450   6.239  13.220  0.3831  0.6934 -0.5841
14357TIP3   OH264485   0.185   0.320   0.162 -0.8064  0.1786 -0.4238
14357TIP3    H164486   0.192   0.305   0.068  2.4738  2.9443 -0.8219
14357TIP3    H264487   0.210   0.237   0.202 -0.1098 -0.4248 -2.0335
14358TIP3   OH264488   0.093   3.852   3.301  0.1108  0.4340 -0.1381
14358TIP3    H164489   0.021   3.890   3.352  0.0211  0.2315 -0.1112
14358TIP3    H264490   0.096   3.904   3.221  0.1465  0.6516  0.0032
14359TIP3   OH264491   6.297   0.643   0.047  0.1986 -0.3280  1.0954
14359TIP3    H164492   6.204   0.654   0.027  0.0891 -1.6107  0.8175
14359TIP3    H264493   6.328   0.731   0.069 -0.9797  0.1773  0.7726
14360TIP3   OH264494   6.663   1.913  14.632 -0.4793  0.1485 -0.6276
14360TIP3    H164495   6.706   1.976  14.690 -1.1905  0.3950 -0.3648
14360TIP3    H264496   6.583   1.888  14.679 -0.1402 -1.0696 -0.6506
14361TIP3   OH264497   1.693   4.456   1.067  0.2419 -0.0626 -0.0582
14361TIP3    H164498   1.628   4.453   0.996 -1.0490  0.8856  1.0510
14361TIP3    H264499   1.733   4.369   1.065 -1.1844 -0.7498 -0.6702
14362TIP3   OH264500   4.054   3.497  13.393 -0.0021  0.4908 -0.1488
14362TIP3    H164501   4.078   3.425  13.334  0.3687 -1.3583  2.0849
14362TIP3    H264502   3.960   3.486  13.407  0.3196 -0.5821  1.3830
14363TIP3   OH264503   2.805   3.396   4.447 -0.1555 -0.4702  0.0473
14363TIP3    H164504   2.868   3.372   4.515 -3.5057 -1.3234  3.1299
14363TIP3    H264505   2.783   3.488   4.466 -1.0118 -0.6681  0.0528
14364TIP3   OH264506   1.658   0.843   1.415 -0.2516  0.2261 -0.2764
14364TIP3    H164507   1.709   0.765   1.437 -0.1223  0.7334  1.3863
14364TIP3    H264508   1.717   0.916   1.432 -0.9899  0.7530  0.0725
14365TIP3   OH264509   3.688   0.919   2.690  0.1017  0.3837 -0.2897
14365TIP3    H164510   3.737   0.839   2.672 -0.1409  0.0245  0.6086
14365TIP3    H264511   3.734   0.987   2.640 -0.7106 -0.5963 -2.5055
14366TIP3   OH264512   6.642   6.772  15.412  0.1343  0.3935  0.0182
14366TIP3    H164513   6.578   6.831  15.453 -0.9766  0.3110 -1.5330
14366TIP3    H264514   6.715   6.829  15.389 -0.2962  0.8985 -0.1288
14367TIP3   OH264515   5.450   5.439  15.537  0.4538  0.1780 -0.3147
14367TIP3    H164516   5.463   5.533  15.538  3.5964 -0.1313 -1.1718
14367TIP3    H264517   5.455   5.413  15.629  1.6948  0.6672 -0.2264
14368TIP3   OH264518   5.631   3.741  11.492  0.1164  0.5927 -0.2554
14368TIP3    H164519   5.674   3.655  11.488 -1.4931 -0.2715  0.1256
14368TIP3    H264520   5.690   3.794  11.546  0.2083 -0.8727  1.1812
14369TIP3   OH264521   2.791   3.293   5.262 -0.8299 -0.3906  0.1381
14369TIP3    H164522   2.813   3.247   5.180 -1.0375 -0.9004  0.3600
14369TIP3    H264523   2.875   3.309   5.304 -0.5890  1.2291 -0.8680
14370TIP3   OH264524   0.500   1.155   2.615  0.0443 -0.1432  0.0592
14370TIP3    H164525   0.440   1.209   2.564  1.2180  1.4416  0.2820
14370TIP3    H264526   0.444   1.108   2.676 -1.0256  1.0629  0.0533
14371TIP3   OH264527   5.685   0.166   1.214  0.0773 -0.7979 -0.2718
14371TIP3    H164528   5.628   0.129   1.146 -0.0984 -0.0120 -0.5766
14371TIP3    H264529   5.695   0.258   1.188  0.7621 -0.7116  0.2712
14372TIP3   OH264530   4.627   5.629  10.333 -0.4146  0.7003 -0.1282
14372TIP3    H164531   4.684   5.683  10.278  0.2600  0.4592  0.3125
14372TIP3    H264532   4.543   5.675  10.333 -0.2144  1.0847 -0.7608
14373TIP3   OH264533   0.044   3.924  14.330 -0.6084 -0.3044 -0.2547
14373TIP3    H164534   0.111   3.976  14.286  0.1696 -1.3780 -0.3923
14373TIP3    H264535   0.032   3.966  14.415  3.0406 -2.1326  1.3947
14374TIP3   OH264536   3.571   2.838   0.057 -0.0537  0.0566  0.6288
14374TIP3    H164537   3.504   2.867  -0.005  0.5242  1.0154  0.4245
14374TIP3    H264538   3.573   2.907   0.124  0.4352 -0.1718  0.8565
14375TIP3   OH264539   5.471   5.108  15.141 -0.5354  0.2986  0.2232
14375TIP3    H164540   5.394   5.164  15.154 -0.9923 -0.5849  1.5031
14375TIP3    H264541   5.471   5.090  15.047 -3.5378 -1.8633  0.4742
14376TIP3   OH264542   3.616   1.632   1.789 -0.1253 -0.0591  0.3261
14376TIP3    H164543   3.671   1.554   1.800 -1.4959 -1.0429  0.4743
14376TIP3    H264544   3.583   1.626   1.700 -1.1798 -0.3005  0.7204
14377TIP3   OH264545   6.134   0.274  11.429  0.1413 -0.1057 -0.7692
14377TIP3    H164546   6.192   0.199  11.445  1.1987  0.4592 -1.8204
14377TIP3    H264547   6.095   0.256  11.343 -1.6273 -0.6921  0.1027
14378TIP3   OH264548   5.252   0.745   1.019 -0.0406  0.1032  0.5240
14378TIP3    H164549   5.244   0.834   0.984  0.8286 -0.5799 -1.5586
14378TIP3    H264550   5.328   0.709   0.975 -0.3633 -1.6977  1.3508
14379TIP3   OH264551   2.322   5.914  12.928 -0.4114 -0.0174  0.2488
14379TIP3    H164552   2.331   5.850  12.857  1.5496 -0.0993  0.5255
14379TIP3    H264553   2.304   5.862  13.006  0.6624 -0.2129  0.3785
14380TIP3   OH264554   0.940   0.128  14.941  0.8759  0.4823  0.5821
14380TIP3    H164555   0.890   0.092  15.014  1.6593  2.1524  2.0247
14380TIP3    H264556   1.015   0.170  14.982  0.6804  2.5937 -1.0661
14381TIP3   OH264557   2.362   1.358  13.613 -0.5588 -0.0472  0.0151
14381TIP3    H164558   2.396   1.359  13.523 -0.3621 -0.3987  0.0822
14381TIP3    H264559   2.304   1.281  13.616  0.6265 -0.9514  0.6096
14382TIP3   OH264560   3.438   4.734  11.266  0.0843 -0.8750 -0.0340
14382TIP3    H164561   3.529   4.712  11.249 -0.3697 -2.5742 -0.5365
14382TIP3    H264562   3.423   4.707  11.356  0.4655  0.8844  0.5843
14383TIP3   OH264563   1.656   4.239  11.702 -0.5537  0.4511  0.3270
14383TIP3    H164564   1.571   4.212  11.735 -0.2837 -0.8850 -0.0248
14383TIP3    H264565   1.715   4.167  11.724  0.5497  1.4512  0.7766
14384TIP3   OH264566   6.211   4.062   0.148 -0.0042 -0.2440  0.1715
14384TIP3    H164567   6.275   3.991   0.137 -0.5314 -0.6523 -0.3673
14384TIP3    H264568   6.199   4.069   0.243 -1.9588 -2.7627  0.2347
14385TIP3   OH264569   0.087   3.262   2.569 -0.5331 -0.3935 -0.5707
14385TIP3    H164570   0.025   3.239   2.638  2.1046 -0.4789  1.9916
14385TIP3    H264571   0.060   3.350   2.542 -3.2895 -1.4286 -1.5389
14386TIP3   OH264572   2.837   0.899   2.746  0.5816  0.3906  0.2432
14386TIP3    H164573   2.866   0.889   2.655 -0.2493 -1.4098  0.1208
14386TIP3    H264574   2.749   0.937   2.739  0.9711  1.3415  0.3729
14387TIP3   OH264575   2.528   4.800   0.935 -0.0080 -0.1547 -0.3491
14387TIP3    H164576   2.489   4.803   0.848  1.0512 -1.0755 -0.8788
14387TIP3    H264577   2.523   4.890   0.967  2.9591  1.0898 -2.8960
14388TIP3   OH264578   1.194   5.289   1.709 -0.2948 -0.0769  0.2414
14388TIP3    H164579   1.230   5.336   1.633 -0.5540  0.5368  0.4898
14388TIP3    H264580   1.249   5.212   1.717  0.9655  0.8192  0.5948
14389TIP3   OH264581   2.317   5.750   5.893 -0.3302 -0.3406 -0.1556
14389TIP3    H164582   2.262   5.829   5.891  1.2097  0.7783  0.2116
14389TIP3    H264583   2.350   5.747   5.983  1.0361 -0.4015 -0.6497
14390TIP3   OH264584   5.409   2.848  16.473 -0.3180 -0.6018 -0.4045
14390TIP3    H164585   5.479   2.907  16.446 -1.2492  1.3612  1.2489
14390TIP3    H264586   5.432   2.824  16.563 -0.8263 -1.4479 -0.4928
14391TIP3   OH264587   1.271   1.664  14.254 -0.1357 -0.4398  0.7725
14391TIP3    H164588   1.313   1.578  14.266  0.3902 -0.5063 -1.2581
14391TIP3    H264589   1.343   1.724  14.239 -0.6324 -0.3908 -1.8267
14392TIP3   OH264590   4.336   3.396  13.029 -0.4844  0.2339 -0.0694
14392TIP3    H164591   4.343   3.344  12.949  0.8446 -1.6130  1.1791
14392TIP3    H264592   4.390   3.350  13.093  0.4806  2.9563  1.2505
14393TIP3   OH264593   4.668   1.082  14.356  0.5087  0.0329  0.4976
14393TIP3    H164594   4.621   1.041  14.429  0.0589  2.3811  1.6101
14393TIP3    H264595   4.598   1.116  14.299  0.8686 -0.5758 -0.3183
14394TIP3   OH264596   6.158   2.242   0.622 -0.2712 -0.7480  0.2419
14394TIP3    H164597   6.121   2.158   0.595  0.0857 -0.8300  0.0078
14394TIP3    H264598   6.082   2.298   0.637 -0.4950 -0.3726 -1.9463
14395TIP3   OH264599   2.703   1.110   5.965 -0.3142 -0.2402  0.2338
14395TIP3    H164600   2.692   1.184   6.024  0.5438  0.8650 -0.9623
14395TIP3    H264601   2.745   1.043   6.019  0.3856  0.7161  0.9048
14396TIP3   OH264602   3.250   6.641  12.893  0.3922  0.0127  0.5375
14396TIP3    H164603   3.346   6.648  12.893  0.4962 -1.2123  0.1804
14396TIP3    H264604   3.230   6.577  12.960 -0.2026  0.3772  0.7175
14397TIP3   OH264605   1.919   0.876   2.844  0.2833  0.5282 -0.0111
14397TIP3    H164606   1.910   0.851   2.752 -1.4662  1.4107 -0.1147
14397TIP3    H264607   1.922   0.972   2.843 -0.2509  0.5595  0.8854
14398TIP3   OH264608   3.334   0.526   5.588 -0.0584 -0.3922 -0.1896
14398TIP3    H164609   3.374   0.552   5.671 -0.0965 -1.9833  0.3706
14398TIP3    H264610   3.254   0.578   5.581  0.2696  0.2053  0.4531
14399TIP3   OH264611   2.214   4.398  16.164  0.6202 -0.6750  0.4714
14399TIP3    H164612   2.123   4.427  16.154  0.4017 -0.9546  1.5332
14399TIP3    H264613   2.239   4.369  16.077 -0.2536 -0.4205  0.1192
14400TIP3   OH264614   0.300   0.319   2.453  0.1609  0.8204  0.1786
14400TIP3    H164615   0.385   0.276   2.455 -0.4855 -0.7463 -1.9467
14400TIP3    H264616   0.264   0.304   2.540  1.0372 -0.7678  0.3178
14401TIP3   OH264617   5.219   2.866   3.999  0.1787 -0.1525  0.2144
14401TIP3    H164618   5.202   2.789   3.944 -0.0240 -0.0173  0.0905
14401TIP3    H264619   5.150   2.928   3.977 -1.0962 -0.8373  2.0056
14402TIP3   OH264620   4.791   0.282  12.750 -0.2793  0.9380  0.8289
14402TIP3    H164621   4.775   0.188  12.747 -4.2505  1.4703  0.6386
14402TIP3    H264622   4.745   0.317  12.674  1.4383  3.0609  0.6697
14403TIP3   OH264623   6.732   0.246  11.885 -0.3223 -0.0229 -0.5822
14403TIP3    H164624   6.641   0.275  11.887 -0.8276 -1.4837 -1.3625
14403TIP3    H264625   6.741   0.197  11.804  0.7367 -1.2134  0.2049
14404TIP3   OH264626   0.448   1.742  16.395  0.0211  0.2362  0.1171
14404TIP3    H164627   0.407   1.693  16.324  1.6930  1.9305 -2.1737
14404TIP3    H264628   0.532   1.698  16.410 -0.2338  0.0042  0.9413
14405TIP3   OH264629   6.690   2.635   5.765  0.3178 -0.1131 -0.0304
14405TIP3    H164630   6.721   2.712   5.814  2.3881 -2.0730  1.9927
14405TIP3    H264631   6.624   2.595   5.822 -3.6561  1.9822 -2.7056
14406TIP3   OH264632   5.265   3.327  14.643  0.2798 -0.0182 -0.0313
14406TIP3    H164633   5.263   3.369  14.729  0.8918  1.0732 -0.5167
14406TIP3    H264634   5.177   3.340  14.608 -0.5505 -2.1138  1.1446
14407TIP3   OH264635   3.721   1.623  12.704  1.0412  0.1662 -0.2474
14407TIP3    H164636   3.806   1.668  12.701  0.8734  0.4806 -2.3195
14407TIP3    H264637   3.699   1.610  12.612 -1.3214  0.3885  0.2422
14408TIP3   OH264638   2.245   4.321  12.745 -0.3309  0.3055 -0.2392
14408TIP3    H164639   2.327   4.284  12.777 -1.7199 -1.7966  1.1393
14408TIP3    H264640   2.223   4.268  12.668  0.5897  2.2424 -1.9268
14409TIP3   OH264641   5.024   4.061   0.819 -0.2662  0.0126  0.4937
14409TIP3    H164642   4.954   4.065   0.885 -0.4445  1.5181  0.2493
14409TIP3    H264643   5.029   3.968   0.796 -0.6863 -0.4462  2.0968
14410TIP3   OH264644   6.699   6.514  12.147 -0.0286 -0.0829  0.5459
14410TIP3    H164645   6.669   6.576  12.213 -1.9680 -0.4594  0.0733
14410TIP3    H264646   6.739   6.568  12.079 -4.1834  1.0884 -1.2313
14411TIP3   OH264647   4.170   1.256   5.616  0.8362 -0.4426  0.5433
14411TIP3    H164648   4.098   1.309   5.582  0.7125 -1.8137 -1.4814
14411TIP3    H264649   4.136   1.220   5.698 -0.0472  0.4532  0.5972
14412TIP3   OH264650   0.259   1.851   4.344 -0.1860 -0.1724 -0.3463
14412TIP3    H164651   0.291   1.798   4.417  0.1735  1.5580  0.8298
14412TIP3    H264652   0.316   1.827   4.270  0.9540 -0.3257  0.5504
14413TIP3   OH264653   5.417   3.686  13.219 -0.0187  0.2532 -0.1064
14413TIP3    H164654   5.360   3.713  13.148  0.2525  1.5439  0.1364
14413TIP3    H264655   5.376   3.722  13.298 -0.4333 -1.3327  0.4448
14414TIP3   OH264656   1.245   4.886  16.626  0.3835 -0.3377 -0.1228
14414TIP3    H164657   1.180   4.816  16.615 -1.2405  1.0094  0.3793
14414TIP3    H264658   1.222   4.927  16.709  1.3256  0.7520 -0.3726
14415TIP3   OH264659   5.641   0.912  13.672  0.1737 -0.0244  0.4745
14415TIP3    H164660   5.702   0.840  13.686 -1.8576 -1.8635  0.4493
14415TIP3    H264661   5.616   0.904  13.580  0.3940  1.1486  0.2946
14416TIP3   OH264662   2.656   3.238  13.403 -0.2097 -0.3439  0.0283
14416TIP3    H164663   2.634   3.170  13.467 -0.0977 -0.0253  0.4088
14416TIP3    H264664   2.606   3.314  13.431 -0.6131 -0.3689 -0.6062
14417TIP3   OH264665   4.717   6.565   0.415 -0.4958  0.0391 -0.4384
14417TIP3    H164666   4.631   6.580   0.455 -1.4313  0.5094 -2.4865
14417TIP3    H264667   4.720   6.471   0.400 -1.4881  0.2233 -2.0184
14418TIP3   OH264668   5.536   0.335   3.266  0.4330 -0.6351  0.6999
14418TIP3    H164669   5.610   0.384   3.231 -0.3908  0.1770  0.0616
14418TIP3    H264670   5.525   0.262   3.205 -0.5342  0.3649 -0.3602
14419TIP3   OH264671   1.817   1.601   3.071 -0.0470 -0.5183  0.3759
14419TIP3    H164672   1.804   1.592   3.166  0.7007  2.3359  0.8325
14419TIP3    H264673   1.892   1.544   3.052  1.3683  0.7074  1.9798
14420TIP3   OH264674   1.369   1.216  12.703 -0.4668  0.0859  0.4945
14420TIP3    H164675   1.403   1.128  12.720  3.0514  1.2652  0.4638
14420TIP3    H264676   1.318   1.238  12.781  2.7428 -0.2352  2.8994
14421TIP3   OH264677   4.821   6.703  13.125  0.5198  0.2611 -0.6792
14421TIP3    H164678   4.789   6.696  13.215 -1.4408 -5.2105 -1.4003
14421TIP3    H264679   4.785   6.786  13.093 -0.3761  1.4607  2.9276
14422TIP3   OH264680   5.754   4.120   2.497  0.5669 -0.0316 -0.0683
14422TIP3    H164681   5.830   4.092   2.547  0.5827 -1.2477 -0.7522
14422TIP3    H264682   5.713   4.039   2.466  1.1251  0.6607 -2.8659
14423TIP3   OH264683   3.885   6.479   2.634  0.1777  0.2022  0.1582
14423TIP3    H164684   3.910   6.449   2.722 -2.0848 -1.1801  0.4239
14423TIP3    H264685   3.847   6.401   2.592 -0.9013  1.3993 -1.1901
14424TIP3   OH264686   1.086   1.409  13.625  0.0881 -0.1428  0.0371
14424TIP3    H164687   1.128   1.335  13.669 -1.4887 -0.8145  0.5030
14424TIP3    H264688   0.992   1.392  13.635 -0.3104  1.0024 -1.4281
14425TIP3   OH264689   3.450   2.236  13.915  0.3217  0.9689  0.4856
14425TIP3    H164690   3.377   2.180  13.890  2.4035 -0.8064 -2.1673
14425TIP3    H264691   3.414   2.325  13.912 -2.4740  0.0610  2.5447
14426TIP3   OH264692   6.034   4.904  14.767  1.2336  0.0920  0.1294
14426TIP3    H164693   5.951   4.951  14.781 -0.1141 -2.7250  2.8297
14426TIP3    H264694   6.010   4.830  14.712  2.3181 -0.0179 -0.2202
14427TIP3   OH264695   5.812   2.196  17.175 -0.0588  0.5213  0.5050
14427TIP3    H164696   5.873   2.133  17.212 -2.3767 -1.8392  0.5773
14427TIP3    H264697   5.775   2.153  17.098 -1.0232  2.2004 -0.0514
14428TIP3   OH264698   6.428   0.512   5.718 -0.1196 -0.0018  0.2602
14428TIP3    H164699   6.422   0.596   5.672 -2.9944 -0.9631 -1.3845
14428TIP3    H264700   6.389   0.528   5.804 -0.9500  0.2775 -0.1669
14429TIP3   OH264701   0.286   3.937  15.177 -0.6274 -0.5608 -0.4498
14429TIP3    H164702   0.356   3.996  15.148  0.3804  0.5977  3.6019
14429TIP3    H264703   0.205   3.985  15.158  0.0800  1.1890  0.6216
14430TIP3   OH264704   3.033   6.535   1.962  0.1575 -0.1068 -0.0923
14430TIP3    H164705   2.952   6.496   1.931 -0.3742  0.7393  0.1846
14430TIP3    H264706   3.102   6.473   1.936 -0.7341 -1.7718  1.3454
14431TIP3   OH264707   3.754   6.635  15.709  0.0308 -0.1688 -0.3727
14431TIP3    H164708   3.674   6.624  15.658  0.1746  0.8002 -0.8307
14431TIP3    H264709   3.825   6.623  15.646  0.2192  0.2060 -0.2402
14432TIP3   OH264710   6.422   5.993  15.346  0.7207 -0.2365  0.4692
14432TIP3    H164711   6.433   5.981  15.251 -0.4419 -1.1900  0.4291
14432TIP3    H264712   6.328   5.980  15.361  0.6384  1.3019  1.5767
14433TIP3   OH264713   1.007   3.695   6.177  0.7116  0.5024  0.0636
14433TIP3    H164714   0.929   3.641   6.163  0.6734  0.6941 -0.5150
14433TIP3    H264715   1.050   3.657   6.253 -0.2373  0.7333  0.7251
14434TIP3   OH264716   2.683   2.913  15.724 -0.1617  0.5488 -0.4004
14434TIP3    H164717   2.691   2.967  15.803 -1.2855  0.5579 -0.2791
14434TIP3    H264718   2.726   2.831  15.747 -1.3887  0.1624  0.5979
14435TIP3   OH264719   0.704   4.300   0.669 -0.1421  0.6380 -0.3597
14435TIP3    H164720   0.645   4.339   0.734 -0.7830 -1.4340  0.3813
14435TIP3    H264721   0.761   4.242   0.720  0.4845  0.2599 -1.4598
14436TIP3   OH264722   4.244   2.374  11.214 -0.0875 -0.2690  0.4880
14436TIP3    H164723   4.279   2.443  11.271 -1.5675  0.0501  1.0579
14436TIP3    H264724   4.174   2.418  11.165  0.4475 -0.8172 -0.8156
14437TIP3   OH264725   3.002   4.636  13.827 -0.5325 -0.1900  0.2283
14437TIP3    H164726   2.977   4.726  13.846 -0.6604 -0.3495  0.8294
14437TIP3    H264727   3.091   4.643  13.791 -0.7174  0.2109 -0.1636
14438TIP3   OH264728   5.385   3.774   4.123 -0.0258  0.0986  0.7747
14438TIP3    H164729   5.471   3.809   4.102  0.4689 -1.0198  0.8608
14438TIP3    H264730   5.387   3.684   4.091 -1.1547  0.0516  0.7955
14439TIP3   OH264731   6.488   3.664  12.640 -0.5173  0.4660  0.3584
14439TIP3    H164732   6.581   3.660  12.661 -0.4591  0.8887  0.1999
14439TIP3    H264733   6.486   3.684  12.546 -0.7702 -0.1393  0.2303
14440TIP3   OH264734   4.083   2.249  16.522  0.3836  0.0725  0.2023
14440TIP3    H164735   4.107   2.277  16.434  0.2107 -0.8742 -0.1484
14440TIP3    H264736   4.052   2.159  16.512  1.8989 -0.6441  1.4499
14441TIP3   OH264737   4.447   4.230  15.242 -0.1747 -0.0610 -0.0990
14441TIP3    H164738   4.471   4.265  15.327 -0.1600 -0.0572 -0.1053
14441TIP3    H264739   4.513   4.163  15.224 -0.8860 -0.9389  0.4581
14442TIP3   OH264740   6.478   3.939   1.456  0.2168  0.2907 -0.5973
14442TIP3    H164741   6.436   3.914   1.538  0.2585 -1.1426 -0.9870
14442TIP3    H264742   6.423   3.900   1.388  1.6522 -0.9070 -1.1415
14443TIP3   OH264743   3.676   0.487   4.889  0.0898  0.6668 -0.6800
14443TIP3    H164744   3.689   0.499   4.983 -0.4913 -0.3584 -0.4544
14443TIP3    H264745   3.595   0.534   4.870  1.2030  2.5300 -1.0680
14444TIP3   OH264746   1.329   2.626   6.113 -0.5069 -0.1009 -0.3605
14444TIP3    H164747   1.306   2.682   6.187  0.4494  1.1349 -0.9649
14444TIP3    H264748   1.302   2.538   6.140 -3.1540  0.7814  0.1373
14445TIP3   OH264749   1.017   3.185   2.442 -0.0456 -0.3606 -0.2349
14445TIP3    H164750   1.005   3.091   2.452  1.0509 -0.6456 -1.3196
14445TIP3    H264751   0.932   3.218   2.413 -0.1683 -1.1819 -0.8298
14446TIP3   OH264752   2.083   2.180  15.422 -0.1017 -0.6452  0.4898
14446TIP3    H164753   2.096   2.261  15.471 -0.9662  0.6771 -1.3343
14446TIP3    H264754   2.168   2.159  15.385  0.1754 -0.7317  1.1599
14447TIP3   OH264755   6.217   1.388   4.487  0.5067 -0.3184 -0.1746
14447TIP3    H164756   6.153   1.433   4.432  0.9441  0.2472 -0.2211
14447TIP3    H264757   6.282   1.454   4.508  1.4087 -1.0359 -0.6340
14448TIP3   OH264758   1.382   4.201   1.500 -0.4455 -0.2324  0.1427
14448TIP3    H164759   1.464   4.151   1.493  1.2605  2.4924 -1.9720
14448TIP3    H264760   1.410   4.288   1.530 -2.8877  0.2528  1.2546
14449TIP3   OH264761   2.630   1.024  14.599  0.1767 -0.0017  0.0935
14449TIP3    H164762   2.652   0.940  14.560  2.2554  0.2101  0.6758
14449TIP3    H264763   2.544   1.011  14.639  0.1502 -1.6122 -0.4375
14450TIP3   OH264764   3.133   5.227   3.853  0.6233  0.2877 -0.4354
14450TIP3    H164765   3.199   5.161   3.831 -0.8490 -1.1317 -0.7924
14450TIP3    H264766   3.085   5.240   3.771 -0.9231 -0.3632  0.3297
14451TIP3   OH264767   2.719   0.553  13.019 -0.2535  0.0329 -0.0352
14451TIP3    H164768   2.668   0.607  12.959  0.7210  2.6013  1.2895
14451TIP3    H264769   2.801   0.537  12.972  0.2172  1.4121  0.2601
14452TIP3   OH264770   2.609   0.542  11.797 -0.2064  0.2091 -0.2082
14452TIP3    H164771   2.550   0.616  11.813 -0.4090 -0.1799  0.9041
14452TIP3    H264772   2.696   0.578  11.811 -0.2963  0.2675  0.1955
14453TIP3   OH264773   5.936   0.608  10.541  0.0440  0.6610 -0.3579
14453TIP3    H164774   5.949   0.521  10.503 -1.1099 -0.0568  0.8490
14453TIP3    H264775   5.988   0.607  10.622 -1.6690  0.2965  0.7811
14454TIP3   OH264776   1.457   1.275   2.834  0.3781  0.0186 -0.2471
14454TIP3    H164777   1.365   1.251   2.831 -0.0520  1.3147  1.1439
14454TIP3    H264778   1.473   1.300   2.925  2.2144 -0.5585 -0.3659
14455TIP3   OH264779   0.905   5.249   4.004  0.2531 -0.2454  0.8025
14455TIP3    H164780   0.984   5.302   3.995 -0.2783  0.2199 -1.7077
14455TIP3    H264781   0.937   5.162   4.025  1.4416 -0.0336 -0.0307
14456TIP3   OH264782   5.343   1.746   4.470 -0.0493 -0.1038  0.0743
14456TIP3    H164783   5.355   1.837   4.442 -4.1057  0.3207 -0.9679
14456TIP3    H264784   5.410   1.732   4.536  1.1758  3.4094 -0.2083
14457TIP3   OH264785   6.026   6.358   1.502  0.1048 -0.2144  0.6242
14457TIP3    H164786   6.118   6.380   1.486 -0.0938  1.4823  1.6343
14457TIP3    H264787   6.030   6.273   1.545  1.0699 -1.0787 -1.0575
14458TIP3   OH264788   0.679   3.445  11.051 -0.2514 -1.0122 -0.3489
14458TIP3    H164789   0.692   3.501  10.974  1.3926 -0.1114  0.5312
14458TIP3    H264790   0.671   3.357  11.016 -1.0132 -0.4630 -1.6394
14459TIP3   OH264791   2.016   5.752  11.808 -0.0477 -0.2153 -0.2753
14459TIP3    H164792   1.996   5.749  11.714 -0.5322 -0.2020 -0.1769
14459TIP3    H264793   2.065   5.833  11.820 -0.6833  0.1886 -0.3896
14460TIP3   OH264794   3.894   4.288   5.857 -0.0082 -0.0529 -0.4786
14460TIP3    H164795   3.881   4.303   5.764  0.5787  0.5443 -0.4730
14460TIP3    H264796   3.806   4.289   5.894 -0.5958 -3.3553 -1.4210
14461TIP3   OH264797   3.193   0.297   3.688  0.3522 -0.4648 -0.2437
14461TIP3    H164798   3.259   0.362   3.664  2.1758 -1.4191  1.8215
14461TIP3    H264799   3.241   0.214   3.690 -1.4699 -1.5925 -0.9256
14462TIP3   OH264800   0.433   5.366   5.038 -0.1074  0.1934  0.3018
14462TIP3    H164801   0.386   5.285   5.058 -0.4612  0.3931  0.2869
14462TIP3    H264802   0.506   5.338   4.982 -1.3074  0.1156 -1.2789
14463TIP3   OH264803   5.723   6.123  14.042  0.5193  0.5066 -0.1854
14463TIP3    H164804   5.662   6.196  14.057  1.0148  1.0640 -0.7940
14463TIP3    H264805   5.806   6.166  14.021  1.3492 -0.2333  1.4162
14464TIP3   OH264806   4.120   1.263   1.373  0.2195  0.0553  0.4925
14464TIP3    H164807   4.026   1.270   1.390  0.1566 -0.5763  0.4442
14464TIP3    H264808   4.161   1.319   1.438 -0.2635  1.7761 -0.6181
14465TIP3   OH264809   0.142   4.761  14.221 -0.4287 -0.4905  0.1582
14465TIP3    H164810   0.204   4.711  14.274 -1.8018 -2.1617  0.2922
14465TIP3    H264811   0.137   4.713  14.138 -1.9808 -0.7700  0.3859
14466TIP3   OH264812   2.152   6.129   6.198  0.2750 -0.7800 -0.1314
14466TIP3    H164813   2.059   6.106   6.204  0.0651 -0.0143 -0.4016
14466TIP3    H264814   2.153   6.222   6.175  1.1009 -0.0745  2.4244
14467TIP3   OH264815   2.041   5.495  14.368  0.1179  0.7457 -0.0164
14467TIP3    H164816   1.996   5.496  14.453  0.6271 -1.8828  0.3508
14467TIP3    H264817   2.019   5.580  14.329 -2.7215  0.7813  1.3876
14468TIP3   OH264818   3.028   1.068  11.442 -0.4798  0.3919  0.5723
14468TIP3    H164819   3.036   1.164  11.440  0.9541  0.2751 -0.3054
14468TIP3    H264820   3.005   1.044  11.352  0.2223 -0.1577  0.5322
14469TIP3   OH264821   4.113   3.907   1.827  0.4952 -0.1580  0.6077
14469TIP3    H164822   4.125   3.812   1.816 -2.9885 -0.4824 -2.4295
14469TIP3    H264823   4.030   3.915   1.874  1.0215  1.4417  1.3190
14470TIP3   OH264824   5.632   5.373  15.800  0.1487 -0.4454  0.0225
14470TIP3    H164825   5.669   5.340  15.882  1.6377 -0.9760 -0.8184
14470TIP3    H264826   5.707   5.375  15.740 -1.0386 -0.7080 -1.5179
14471TIP3   OH264827   2.075   0.983  17.125 -0.0253  0.2040  0.2513
14471TIP3    H164828   1.984   0.984  17.095  0.4863 -0.3364 -1.4071
14471TIP3    H264829   2.091   0.892  17.149  0.9540 -0.4230 -2.4590
14472TIP3   OH264830   5.487   6.227  16.607 -0.1146 -0.0629  0.1636
14472TIP3    H164831   5.411   6.209  16.663  0.9250 -1.9395  1.0750
14472TIP3    H264832   5.544   6.282  16.660 -0.7951  1.3222 -0.5094
14473TIP3   OH264833   2.856   2.097   3.976  0.2850  0.1426 -0.3175
14473TIP3    H164834   2.882   2.118   3.886 -0.6769  2.0149 -0.2127
14473TIP3    H264835   2.816   2.010   3.969  1.9607 -0.5911 -1.3303
14474TIP3   OH264836   2.060   2.485   0.710 -0.1009  0.2294  0.0198
14474TIP3    H164837   2.153   2.506   0.714  0.1013 -0.7348  0.8240
14474TIP3    H264838   2.057   2.396   0.675 -0.6582 -0.0925  0.8464
14475TIP3   OH264839   5.054   1.062  14.454  0.1397 -0.0028 -0.1242
14475TIP3    H164840   5.134   1.018  14.482  0.3467  1.0614  1.0481
14475TIP3    H264841   5.076   1.155  14.456 -1.1261  0.3081  0.2323
14476TIP3   OH264842   3.542   1.287   2.812  0.5381 -0.5354 -0.8145
14476TIP3    H164843   3.458   1.268   2.769  0.2116 -1.1864  0.0807
14476TIP3    H264844   3.546   1.225   2.884  0.5285  1.2504  0.8042
14477TIP3   OH264845   2.542   0.046  11.626  0.1848  0.3015 -0.2950
14477TIP3    H164846   2.539  -0.047  11.605 -1.8244  0.4262 -0.7412
14477TIP3    H264847   2.470   0.084  11.576  0.6476  2.0232  0.2849
14478TIP3   OH264848   3.168   4.666   3.032  0.2315 -0.1198  0.1496
14478TIP3    H164849   3.073   4.668   3.022  0.3215  0.1352 -0.6775
14478TIP3    H264850   3.183   4.600   3.100 -0.6042  0.7393  1.2022
14479TIP3   OH264851   2.879   5.115   3.201 -0.8236 -0.0996  0.2381
14479TIP3    H164852   2.940   5.062   3.251  0.1664 -0.7116 -1.5357
14479TIP3    H264853   2.823   5.052   3.156 -1.1651  0.4069 -0.0623
14480TIP3   OH264854   6.429   0.553   3.570 -0.2993  0.3727  0.3543
14480TIP3    H164855   6.346   0.599   3.573 -1.8320 -1.8951 -2.4439
14480TIP3    H264856   6.468   0.578   3.486  1.3255  0.5141  1.1094
14481TIP3   OH264857   4.114   4.287   3.391 -0.0309 -0.4530 -0.0202
14481TIP3    H164858   4.047   4.302   3.324  0.4314  0.7214 -0.2450
14481TIP3    H264859   4.112   4.366   3.445  0.3002 -0.9572  0.7520
14482TIP3   OH264860   6.747   4.143  10.925  0.2092 -0.6657  0.3397
14482TIP3    H164861   6.834   4.158  10.889 -1.1080  0.9618 -2.5183
14482TIP3    H264862   6.744   4.196  11.005  1.3151  0.5858 -0.4069
14483TIP3   OH264863   3.686   2.240   3.764 -0.1502 -0.5915 -0.2490
14483TIP3    H164864   3.756   2.302   3.741 -2.3923  2.5323  0.7042
14483TIP3    H264865   3.690   2.233   3.859 -0.3122 -1.5044 -0.2972
14484TIP3   OH264866   2.533   3.320  11.492 -0.3854  0.4229  0.4205
14484TIP3    H164867   2.508   3.365  11.411  1.6520  0.8125 -0.0426
14484TIP3    H264868   2.500   3.376  11.562  0.5192  1.7174 -0.1579
14485TIP3   OH264869   5.052   5.971  14.840 -0.5233 -0.0255 -0.1308
14485TIP3    H164870   5.102   5.971  14.758  0.6747  2.2619  0.5134
14485TIP3    H264871   5.114   5.940  14.906 -0.9254 -0.1761  0.1797
14486TIP3   OH264872   0.002   2.305  16.602 -1.0917  0.6423 -0.7102
14486TIP3    H164873   0.047   2.280  16.521  1.5253  2.8466 -0.0539
14486TIP3    H264874  -0.029   2.394  16.587  0.8503  1.7211  1.1662
14487TIP3   OH264875   3.280   0.233  12.363 -0.5472 -0.2732  0.1809
14487TIP3    H164876   3.245   0.317  12.392 -1.7469 -0.7506  0.1645
14487TIP3    H264877   3.375   0.246  12.363 -0.6392  0.6187  1.5970
14488TIP3   OH264878   6.025   0.079  15.178  0.2846  0.1797 -0.0231
14488TIP3    H164879   5.986  -0.005  15.204  0.8538  0.0615  0.4813
14488TIP3    H264880   6.095   0.093  15.242 -1.3429  2.2362  1.4411
14489TIP3   OH264881   0.253   0.702  15.264  0.5461 -0.4092 -0.6803
14489TIP3    H164882   0.242   0.655  15.347  2.1405 -0.1992 -0.3229
14489TIP3    H264883   0.339   0.676  15.233  1.2492  1.7864 -0.7657
14490TIP3   OH264884   4.501   4.097   5.288  0.0345  0.8747  0.5614
14490TIP3    H164885   4.558   4.135   5.221 -0.7480 -2.5856 -2.3308
14490TIP3    H264886   4.562   4.064   5.355  1.3683 -0.6143 -1.2822
14491TIP3   OH264887   4.435   3.216   5.864 -0.3234  0.0467  0.4532
14491TIP3    H164888   4.371   3.167   5.914 -0.6415 -0.0367 -0.0303
14491TIP3    H264889   4.473   3.278   5.926 -0.9149  0.1387  0.7213
14492TIP3   OH264890   5.046   3.118   3.327  0.5423 -0.7224 -0.0522
14492TIP3    H164891   5.037   3.102   3.421  0.0663  0.0239  0.0314
14492TIP3    H264892   5.126   3.171   3.320 -0.2543  0.5234  0.0863
14493TIP3   OH264893   6.614   2.888   1.818 -0.3627  0.0952 -0.0840
14493TIP3    H164894   6.635   2.848   1.734 -1.8501  0.6659 -0.7435
14493TIP3    H264895   6.616   2.982   1.802 -1.0969  0.2000  0.4040
14494TIP3   OH264896   4.756   5.030  14.429 -0.0109 -0.0441 -0.4754
14494TIP3    H164897   4.790   4.951  14.471 -0.3865 -0.2049 -0.4771
14494TIP3    H264898   4.755   5.096  14.498  1.1121  0.2029 -0.6738
14495TIP3   OH264899   0.361   6.443   2.223  0.0347  0.3728  0.0969
14495TIP3    H164900   0.453   6.421   2.206  0.1375  0.9822 -0.1771
14495TIP3    H264901   0.365   6.509   2.292 -0.0584  1.8989 -1.2917
14496TIP3   OH264902   0.403   4.236  15.309  0.1373  0.3800  0.0273
14496TIP3    H164903   0.461   4.306  15.280  1.9703 -0.1618  2.1493
14496TIP3    H264904   0.446   4.155  15.282 -0.4571 -0.0167  0.2312
14497TIP3   OH264905   6.233   1.177  16.916 -0.4760 -0.2982  0.4693
14497TIP3    H164906   6.273   1.264  16.919 -2.2649  0.5605  0.6963
14497TIP3    H264907   6.189   1.174  16.831  0.9439 -1.6744 -0.2789
14498TIP3   OH264908   1.152   4.031  15.074 -0.1237  0.1370  0.7893
14498TIP3    H164909   1.069   4.067  15.045  0.3101 -0.2499 -1.0678
14498TIP3    H264910   1.177   4.086  15.149 -0.9606  1.7043 -0.0196
14499TIP3   OH264911   3.481   6.217  16.775 -0.7425  0.0251 -0.1245
14499TIP3    H164912   3.558   6.273  16.760 -1.1124  0.0687 -2.0924
14499TIP3    H264913   3.495   6.142  16.717 -1.6833 -0.4802  0.2954
14500TIP3   OH264914   4.743   1.819  13.762  0.1200  0.3866  0.4033
14500TIP3    H164915   4.816   1.760  13.776 -1.6977 -1.7034  1.7690
14500TIP3    H264916   4.740   1.874  13.840 -0.2498 -0.1224  0.7562
14501TIP3   OH264917   5.889   1.917  13.769 -0.3436  0.0560  0.5708
14501TIP3    H164918   5.817   1.966  13.808 -1.3241  2.4328 -3.6044
14501TIP3    H264919   5.847   1.840  13.729 -0.1636  0.0749  0.3386
14502TIP3   OH264920   2.238   3.986  16.415 -0.0989 -0.2807 -0.3918
14502TIP3    H164921   2.246   3.936  16.496 -0.2817  0.0806 -0.1461
14502TIP3    H264922   2.319   4.038  16.410  0.1825 -0.7392 -0.7472
14503TIP3   OH264923   2.095   0.251   5.823  0.3882  0.0867 -0.1355
14503TIP3    H164924   2.185   0.237   5.794  0.4397  0.1281  0.0007
14503TIP3    H264925   2.063   0.163   5.844  0.8309  0.1948  1.0602
14504TIP3   OH264926   5.376   4.088   0.707  0.3334  0.0200 -0.3026
14504TIP3    H164927   5.459   4.069   0.751  1.2092  0.9644 -1.4573
14504TIP3    H264928   5.353   4.006   0.663  0.0048 -0.6047  0.9941
14505TIP3   OH264929   1.633   5.244  16.590 -0.9891  0.0011 -0.6559
14505TIP3    H164930   1.583   5.162  16.588  0.0810 -0.8543  2.0679
14505TIP3    H264931   1.569   5.310  16.617 -1.8024  0.0580 -2.6055
14506TIP3   OH264932   0.783   3.941   1.206  0.3150 -0.3679 -0.1164
14506TIP3    H164933   0.807   3.922   1.297  0.0363 -0.6011 -0.0905
14506TIP3    H264934   0.759   4.033   1.206  0.2708 -0.3783  0.0558
14507TIP3   OH264935   6.539   2.951  13.932  0.4211  0.3570  0.3142
14507TIP3    H164936   6.629   2.942  13.963  0.9161  2.0003 -0.5610
14507TIP3    H264937   6.485   2.933  14.010  1.4995 -0.2245  0.9449
14508TIP3   OH264938   2.917   3.718  15.876  0.5876 -0.7954 -0.8684
14508TIP3    H164939   2.896   3.693  15.966  0.4119 -1.1378 -0.9993
14508TIP3    H264940   2.834   3.749  15.840  1.0784  1.3571 -0.2876
14509TIP3   OH264941   3.400   3.818  11.426  0.2127  0.2688  0.1409
14509TIP3    H164942   3.376   3.894  11.373  0.1460  1.6163  1.9987
14509TIP3    H264943   3.364   3.837  11.513 -1.9753 -3.0143  0.1596
14510TIP3   OH264944   1.257   5.415   3.444 -0.8254  0.1907 -0.1750
14510TIP3    H164945   1.258   5.464   3.361 -0.7601 -0.6390 -0.6779
14510TIP3    H264946   1.349   5.397   3.462 -0.9590 -1.7174 -1.2086
14511TIP3   OH264947   2.731   0.519  13.940  0.1884  0.0179  0.5351
14511TIP3    H164948   2.731   0.513  14.036  0.0541  0.3923  0.5594
14511TIP3    H264949   2.663   0.457  13.913 -1.8827  1.9877  0.8374
14512TIP3   OH264950   5.700   1.543  15.362 -1.1749 -0.2003 -0.2838
14512TIP3    H164951   5.642   1.532  15.437 -0.5692  0.2132  0.2517
14512TIP3    H264952   5.644   1.528  15.286 -1.9415  0.0230  0.2324
14513TIP3   OH264953   3.323   1.453   3.732  0.1019  0.2613 -0.0512
14513TIP3    H164954   3.303   1.373   3.684  0.8798 -2.2256  3.3490
14513TIP3    H264955   3.408   1.482   3.698  0.4243 -1.1513 -0.4779
14514TIP3   OH264956   6.294   5.998   1.789  0.0040 -0.0406  0.2751
14514TIP3    H164957   6.267   5.906   1.785 -0.6754  0.1662  0.0778
14514TIP3    H264958   6.335   6.007   1.875 -0.3052 -0.4236  0.4641
14515TIP3   OH264959   3.413   4.855   2.018  0.3832  0.2990  0.1094
14515TIP3    H164960   3.451   4.767   2.023  1.0570  0.5951  0.2422
14515TIP3    H264961   3.372   4.868   2.103  1.4685  0.6421  0.5904
14516TIP3   OH264962   1.247   3.569  15.189 -0.2158  0.1839  0.4571
14516TIP3    H164963   1.307   3.542  15.258  1.0478  0.9728 -0.2963
14516TIP3    H264964   1.195   3.640  15.228 -0.3476 -0.1840  0.9622
14517TIP3   OH264965   6.344   1.282   2.323 -0.3049 -0.7908  0.0060
14517TIP3    H164966   6.299   1.295   2.239 -0.1264 -0.5775 -0.0569
14517TIP3    H264967   6.393   1.201   2.311 -1.3029 -1.4639  0.3490
14518TIP3   OH264968   5.805   3.909  17.137 -0.3027  0.3608 -0.3326
14518TIP3    H164969   5.753   3.976  17.182  0.4008  0.1052  0.8922
14518TIP3    H264970   5.817   3.840  17.202  1.3095  0.2801 -0.6761
14519TIP3   OH264971   3.768   6.112  15.838 -0.3792 -0.0551  0.0157
14519TIP3    H164972   3.795   6.046  15.775 -1.0839 -0.2451 -0.1021
14519TIP3    H264973   3.810   6.193  15.808  1.7034 -0.7185  1.0153
14520TIP3   OH264974   4.239   4.463   3.041  0.1354  0.1149  0.0231
14520TIP3    H164975   4.332   4.479   3.061  0.0849  0.7750 -0.2414
14520TIP3    H264976   4.231   4.485   2.948 -0.6082  1.5511  0.4109
14521TIP3   OH264977   6.082   0.630  14.293  0.6597 -0.0373  0.3404
14521TIP3    H164978   6.109   0.696  14.358  2.4338 -0.2677 -0.1255
14521TIP3    H264979   6.148   0.636  14.224  0.8516 -2.2814  0.2637
14522TIP3   OH264980   6.738   0.644   5.609 -0.2858  0.3583  0.3527
14522TIP3    H164981   6.679   0.575   5.636 -2.4979  1.8268 -0.4416
14522TIP3    H264982   6.735   0.708   5.680  1.0139  0.1004  0.6687
14523TIP3   OH264983   0.807   1.052   1.031  0.2096  0.0961 -0.3090
14523TIP3    H164984   0.874   1.102   1.076  0.1291 -1.4496  1.6541
14523TIP3    H264985   0.725   1.098   1.050  0.4142  0.6587 -0.7428
14524TIP3   OH264986   5.755   4.501   4.555  0.3366 -0.2920 -0.6022
14524TIP3    H164987   5.818   4.457   4.497  2.0104  1.2020 -0.0264
14524TIP3    H264988   5.709   4.430   4.599  1.9369 -1.4717 -0.7405
14525TIP3   OH264989   5.653   0.256   0.108 -0.0889  0.3236  0.1335
14525TIP3    H164990   5.746   0.240   0.124 -0.2537 -0.9491 -0.0859
14525TIP3    H264991   5.651   0.331   0.049  0.7271  1.3571  1.3855
14526TIP3   OH264992   2.961   0.899  17.173 -0.8743  0.8926 -0.2987
14526TIP3    H164993   2.940   0.832  17.237  0.1680 -1.5842 -2.3852
14526TIP3    H264994   2.885   0.901  17.114 -0.9821  1.7105 -0.1467
14527TIP3   OH264995   1.684   1.779   0.125  0.2536  0.3367  0.2014
14527TIP3    H164996   1.610   1.805   0.070  0.3920  2.0204  0.7653
14527TIP3    H264997   1.647   1.775   0.214  0.5581 -0.0562  0.3132
14528TIP3   OH264998   2.111   4.929  14.085  0.4076  0.1920  0.3422
14528TIP3    H164999   2.145   4.885  14.163 -1.3687 -1.0379  0.5067
14528TIP3    H265000   2.125   4.866  14.014 -1.4283 -0.3710  0.4255
14529TIP3   OH265001   3.407   4.837  17.160  0.7017 -0.2306  0.2588
14529TIP3    H165002   3.400   4.755  17.209  1.3961 -0.2156  0.3899
14529TIP3    H265003   3.428   4.903  17.226  1.7603 -0.2299 -0.0556
14530TIP3   OH265004   6.546   2.604   6.007 -0.4591  0.6052 -0.0923
14530TIP3    H165005   6.585   2.539   6.066  2.1903  1.7184 -0.4610
14530TIP3    H265006   6.496   2.661   6.065 -1.1863 -0.6042  0.5001
14531TIP3   OH265007   1.727   2.317   3.614  0.0301  0.3123 -0.1672
14531TIP3    H165008   1.637   2.347   3.613 -0.6418 -1.5135 -1.9790
14531TIP3    H265009   1.721   2.223   3.635  1.3875 -0.0423 -1.1923
14532TIP3   OH265010   3.885   1.771  12.216 -0.6269 -0.1898  0.6389
14532TIP3    H165011   3.941   1.848  12.228 -1.0154  0.1481  0.3303
14532TIP3    H265012   3.796   1.807  12.209 -0.9633 -0.7646  1.7627
14533TIP3   OH265013   1.068   3.186  17.184  0.3730 -0.3076  0.1035
14533TIP3    H165014   1.148   3.206  17.231  0.3083 -0.0942  0.1206
14533TIP3    H265015   1.016   3.134  17.246 -0.2752  1.0660  0.7600
14534TIP3   OH265016   4.004   3.427  14.602 -0.1504 -0.2677 -0.0075
14534TIP3    H165017   4.064   3.439  14.676  0.6169  2.2300 -0.9528
14534TIP3    H265018   3.946   3.503  14.605 -0.6263 -0.5344 -1.5173
14535TIP3   OH265019   4.740   3.153   5.709 -0.1213 -0.3444 -0.6293
14535TIP3    H165020   4.655   3.157   5.665 -0.1643  0.6706 -0.4629
14535TIP3    H265021   4.750   3.237   5.752  1.4005 -0.0659 -1.4371
14536TIP3   OH265022   5.938   4.522   0.823 -0.6284  0.4486 -0.5875
14536TIP3    H165023   6.001   4.465   0.780 -0.3791 -0.3758  0.8096
14536TIP3    H265024   5.983   4.606   0.833 -0.5894  0.5643 -1.6235
14537TIP3   OH265025   3.243   6.458  15.251  0.1407  0.0544 -0.4060
14537TIP3    H165026   3.325   6.498  15.222 -1.3341  3.6486 -0.0306
14537TIP3    H265027   3.197   6.435  15.170 -0.6597  2.9715 -0.8917
14538TIP3   OH265028   5.278   4.501  12.750  0.8298 -0.0670 -0.3613
14538TIP3    H165029   5.356   4.553  12.731  0.4615  0.7981  0.4126
14538TIP3    H265030   5.213   4.565  12.778 -0.1733 -0.7729 -1.0078
14539TIP3   OH265031   0.694   5.480  11.274  0.2956 -0.3551  0.7543
14539TIP3    H165032   0.666   5.491  11.183 -2.8454 -1.3290  1.4702
14539TIP3    H265033   0.764   5.416  11.270  0.2711 -0.3301 -0.9791
14540TIP3   OH265034   6.652   6.270   4.034 -0.1842 -0.0142  0.0137
14540TIP3    H165035   6.608   6.355   4.028 -1.5496 -0.5473  1.7423
14540TIP3    H265036   6.590   6.208   3.996 -0.1650 -0.5127  0.7664
14541TIP3   OH265037   2.958   3.162  11.845  0.0611  0.4532  0.1081
14541TIP3    H165038   2.955   3.245  11.797  0.7553 -0.6065 -1.9081
14541TIP3    H265039   2.891   3.108  11.802  1.0776 -0.7180 -0.0597
14542TIP3   OH265040   6.572   5.056  15.496  0.4177 -0.1409 -0.4538
14542TIP3    H165041   6.660   5.092  15.510  0.2515  0.4669 -0.9307
14542TIP3    H265042   6.584   4.990  15.428  0.5307 -0.1651 -0.4114
14543TIP3   OH265043   4.381   5.679   4.795  0.0678 -0.1429 -0.2582
14543TIP3    H165044   4.318   5.711   4.730 -1.5210 -2.9507 -0.2708
14543TIP3    H265045   4.328   5.664   4.874  1.0143 -1.2234  0.1914
14544TIP3   OH265046   6.666   1.772  12.477  0.2493 -0.3076  0.1086
14544TIP3    H165047   6.757   1.756  12.499  0.6483  2.3158  0.6427
14544TIP3    H265048   6.669   1.819  12.393 -0.2893  2.8688  1.7255
14545TIP3   OH265049   6.600   1.248   2.167 -0.2109 -0.0776  0.2910
14545TIP3    H165050   6.544   1.171   2.158 -0.4115 -0.0360  1.1237
14545TIP3    H265051   6.666   1.237   2.099 -1.6025  0.2221 -1.1609
14546TIP3   OH265052   5.977   2.055  16.375 -0.1651  0.4078 -0.5580
14546TIP3    H165053   5.896   2.020  16.412  0.7548 -0.5533  0.6242
14546TIP3    H265054   6.034   2.068  16.450  0.8169  1.0066 -1.3818
14547TIP3   OH265055   4.088   0.241   3.181  0.4993 -0.5678  0.3620
14547TIP3    H165056   4.158   0.237   3.246 -1.5926 -1.5038  2.7211
14547TIP3    H265057   4.033   0.165   3.200 -1.8355  0.7772 -0.5483
14548TIP3   OH265058   2.116   4.239   4.573 -0.6244 -0.0826 -0.0365
14548TIP3    H165059   2.026   4.268   4.558 -1.4745 -0.5768  3.3468
14548TIP3    H265060   2.145   4.290   4.649  1.8336 -0.2414 -0.7975
14549TIP3   OH265061   1.792   6.579  14.198  0.6371  0.2748 -0.3868
14549TIP3    H165062   1.759   6.498  14.239  0.4237  0.0881 -0.9205
14549TIP3    H265063   1.717   6.638  14.196  0.3992 -0.0362 -1.3099
14550TIP3   OH265064   1.363   3.129  14.960 -0.1235 -0.0110  0.4146
14550TIP3    H165065   1.455   3.155  14.962 -0.4942  1.5790 -0.8224
14550TIP3    H265066   1.321   3.188  15.023 -0.7340  1.5108 -1.3035
14551TIP3   OH265067   6.703   0.488  11.683 -0.4121  0.3848 -0.0672
14551TIP3    H165068   6.791   0.449  11.687  0.0963  1.4991 -0.1730
14551TIP3    H265069   6.708   0.565  11.740 -1.7922 -0.4158  1.2148
14552TIP3   OH265070   1.805   2.088  12.823 -0.6261 -0.0399 -0.6168
14552TIP3    H165071   1.767   2.132  12.899 -1.1497  0.7472 -1.3108
14552TIP3    H265072   1.781   1.996  12.834  0.0897 -0.1106  0.6257
14553TIP3   OH265073   5.017   3.306  11.767  0.2031  0.2212 -0.0187
14553TIP3    H165074   5.047   3.327  11.678 -0.2645  2.7363  0.3242
14553TIP3    H265075   5.072   3.233  11.795  1.1618  0.1545 -1.9406
14554TIP3   OH265076   0.703   0.513  11.387 -0.1277  0.7670  0.3615
14554TIP3    H165077   0.664   0.447  11.445 -0.2158  0.2630 -0.2617
14554TIP3    H265078   0.629   0.552  11.341  0.0048  0.5972 -0.0008
14555TIP3   OH265079   0.105   6.047  13.748  0.1130 -0.5442  0.0836
14555TIP3    H165080   0.089   5.953  13.751  0.1373 -0.5583 -0.1897
14555TIP3    H265081   0.200   6.055  13.753  0.1111 -0.5345  0.1039
14556TIP3   OH265082   6.250   2.683   0.254  0.1162  0.1776  0.2800
14556TIP3    H165083   6.221   2.622   0.187  0.5123  0.4591 -0.1536
14556TIP3    H265084   6.346   2.680   0.250  0.2305  2.9271 -1.7293
14557TIP3   OH265085   4.099   0.144   0.622 -0.3990  0.3475 -0.5028
14557TIP3    H165086   4.036   0.132   0.693  2.5865  2.0122  2.7005
14557TIP3    H265087   4.101   0.239   0.608  0.6058  0.2197 -1.3479
14558TIP3   OH265088   5.475   4.249  11.454  0.2536  0.1090  0.6819
14558TIP3    H165089   5.435   4.283  11.374 -0.0652 -0.3400  0.6482
14558TIP3    H265090   5.546   4.193  11.424 -0.5110 -0.8806  0.6741
14559TIP3   OH265091   2.438   1.564   3.814 -0.1157 -0.0428  0.1910
14559TIP3    H165092   2.505   1.561   3.746  1.3831 -2.0410  1.6302
14559TIP3    H265093   2.436   1.476   3.851 -1.5523  0.6913  2.0837
14560TIP3   OH265094   5.842   3.591   5.698  0.5549 -0.1442 -0.3813
14560TIP3    H165095   5.855   3.513   5.642 -0.9067 -1.4162  0.9701
14560TIP3    H265096   5.789   3.649   5.645  0.2563 -0.7857 -0.8032
14561TIP3   OH265097   6.220   0.654   1.858  0.3086  0.5605 -0.1577
14561TIP3    H165098   6.176   0.605   1.928  0.2540 -0.6294 -0.9912
14561TIP3    H265099   6.306   0.613   1.850  0.1848  0.4318 -1.0114
14562TIP3   OH265100   0.116   5.444   1.998  0.4419 -0.3629 -0.2061
14562TIP3    H165101   0.137   5.475   1.910  1.9978 -1.8376 -0.4247
14562TIP3    H265102   0.178   5.489   2.055  1.0695 -1.1768 -0.2163
14563TIP3   OH265103   4.672   3.929   4.380 -0.0452 -0.2873  0.1688
14563TIP3    H165104   4.761   3.942   4.348  0.7617 -2.4355  1.3317
14563TIP3    H265105   4.620   3.916   4.301  0.9631 -0.5463 -0.4668
14564TIP3   OH265106   3.657   1.292   5.471  0.3409 -0.0932  0.0755
14564TIP3    H165107   3.720   1.351   5.513 -1.6522  1.1632  1.4702
14564TIP3    H265108   3.584   1.288   5.532 -2.2005  0.8056 -2.6850
14565TIP3   OH265109   2.838   6.357  13.621  0.5306  0.8501 -0.0774
14565TIP3    H165110   2.774   6.285  13.615  0.3304  0.7330  2.3193
14565TIP3    H265111   2.917   6.322  13.579 -0.5846  0.5832 -2.0829
14566TIP3   OH265112   5.551   3.130  15.869 -0.1845  0.1714 -0.2936
14566TIP3    H165113   5.557   3.225  15.860 -0.1050  0.0358 -2.1612
14566TIP3    H265114   5.459   3.110  15.849  0.5263 -0.3806 -3.6066
14567TIP3   OH265115   0.969   6.388  16.416 -0.8155 -0.1854 -0.0158
14567TIP3    H165116   1.060   6.414  16.432 -1.5117  1.1337  2.1180
14567TIP3    H265117   0.928   6.465  16.378 -1.2592 -0.5072 -0.2032
14568TIP3   OH265118   4.572   5.133  15.000 -0.4045  0.6351  0.3707
14568TIP3    H165119   4.622   5.133  14.918 -2.2971  1.0963 -0.8416
14568TIP3    H265120   4.594   5.049  15.041  0.5965  0.4075 -0.5713
14569TIP3   OH265121   5.327   3.006  13.529 -0.2014  0.0241  0.0450
14569TIP3    H165122   5.372   2.950  13.592 -1.2740 -0.0968  0.7302
14569TIP3    H265123   5.367   3.093  13.542  0.6617 -0.3236 -0.2174
14570TIP3   OH265124   4.718   5.908  12.574  0.1155 -0.6581 -0.3106
14570TIP3    H165125   4.745   5.817  12.588  0.6606 -0.3562  0.6490
14570TIP3    H265126   4.637   5.917  12.624  0.1542 -0.5675 -0.2633
14571TIP3   OH265127   6.412   5.587   4.028 -0.4791 -0.5912 -0.2115
14571TIP3    H165128   6.380   5.669   4.065 -0.0410 -0.3551 -0.3433
14571TIP3    H265129   6.382   5.588   3.937 -0.6184 -0.6563 -0.1662
14572TIP3   OH265130   6.579   5.218  17.025  0.3854 -0.0317  0.1270
14572TIP3    H165131   6.606   5.308  17.010  1.4799 -0.3400  0.1303
14572TIP3    H265132   6.641   5.166  16.973  0.0496 -0.7912  0.4798
14573TIP3   OH265133   4.803   4.208  15.625 -0.1819 -0.6706 -0.1477
14573TIP3    H165134   4.738   4.142  15.601  1.5485 -2.6999  0.5105
14573TIP3    H265135   4.783   4.231  15.716  1.8778 -3.7949  1.2486
14574TIP3   OH265136   6.074   2.481   4.930 -0.1006  0.0882  0.2932
14574TIP3    H165137   6.090   2.453   5.020  1.1070  0.7950  0.3211
14574TIP3    H265138   6.141   2.547   4.913 -0.9087  0.6605 -0.8126
14575TIP3   OH265139   4.532   4.644   5.945 -0.7455  0.2227  0.0813
14575TIP3    H165140   4.573   4.725   5.913 -0.4609  0.3406  0.7214
14575TIP3    H265141   4.603   4.581   5.946 -1.2124 -0.3719 -1.5079
14576TIP3   OH265142   1.899   6.102  13.980 -0.4708 -0.0232  0.0865
14576TIP3    H165143   1.852   6.144  13.908  1.5331  1.1000 -0.6331
14576TIP3    H265144   1.835   6.041  14.018 -2.0551  0.4664 -1.6563
14577TIP3   OH265145   1.251   0.749  11.860  0.9756 -0.0972  0.0187
14577TIP3    H165146   1.228   0.796  11.940 -0.2058 -0.2878 -0.1866
14577TIP3    H265147   1.338   0.780  11.838 -0.1089  2.7933 -0.6676
14578TIP3   OH265148   1.527   0.001   3.924  0.0779 -0.3158 -0.2253
14578TIP3    H165149   1.540  -0.093   3.921  1.7652 -0.1311  0.2316
14578TIP3    H265150   1.529   0.029   3.833  0.7072 -0.6075 -0.3059
14579TIP3   OH265151   2.076   5.425  12.090 -0.4886  0.6787 -0.4106
14579TIP3    H165152   2.106   5.515  12.091 -0.2823  0.6346 -1.4796
14579TIP3    H265153   2.110   5.386  12.171  0.5171  1.2021 -0.5794
14580TIP3   OH265154   1.464   5.688  11.072 -0.2071  0.3336  0.2940
14580TIP3    H165155   1.383   5.637  11.070 -0.7194  1.1192  0.7603
14580TIP3    H265156   1.443   5.768  11.024  0.4398  0.3417  0.0086
14581TIP3   OH265157   0.939   4.411   5.381 -0.3784  0.2162  1.0626
14581TIP3    H165158   1.029   4.409   5.347 -0.3026 -0.4220  1.2989
14581TIP3    H265159   0.885   4.384   5.307 -0.3238  0.0014  1.1029
14582TIP3   OH265160   3.152   4.526   2.563 -0.3286  0.6502 -0.0480
14582TIP3    H165161   3.219   4.480   2.614 -0.1313  0.5459 -0.3967
14582TIP3    H265162   3.094   4.565   2.628 -1.6941 -1.7766  0.3095
14583TIP3   OH265163   0.394   4.605   4.266  0.5205 -0.0479 -0.3205
14583TIP3    H165164   0.327   4.615   4.334  0.1340 -0.0604 -0.6894
14583TIP3    H265165   0.448   4.532   4.295 -0.9627 -1.5128 -1.0737
14584TIP3   OH265166   5.191   0.739  14.691 -0.6420 -0.0429 -0.4694
14584TIP3    H165167   5.195   0.797  14.768  0.2755  0.2463 -0.7224
14584TIP3    H265168   5.217   0.653  14.724  0.0957  0.1550 -0.5129
14585TIP3   OH265169   4.933   1.234  11.619 -0.3415 -0.1743  0.5440
14585TIP3    H165170   4.990   1.311  11.621  1.2768 -1.1934 -1.5817
14585TIP3    H265171   4.845   1.269  11.619  0.3365  1.6257  0.7748
14586TIP3   OH265172   1.544   3.929  11.553 -0.3096  0.3494 -0.1601
14586TIP3    H165173   1.495   3.968  11.480  0.3508  1.5768  0.0281
14586TIP3    H265174   1.520   3.982  11.629 -0.7437 -0.7252  0.4731
14587TIP3   OH265175   1.219   3.849   4.607  0.2356  0.7066  0.2959
14587TIP3    H165176   1.207   3.801   4.525 -1.8873  0.5126  0.6575
14587TIP3    H265177   1.232   3.940   4.579  0.9268  0.4377 -0.2895
14588TIP3   OH265178   2.175   4.978  10.564  0.3061 -0.1470  0.3032
14588TIP3    H165179   2.267   5.002  10.553 -0.4993  2.5429 -1.7343
14588TIP3    H265180   2.157   4.918  10.492  0.5132 -0.9072  0.8769
14589TIP3   OH265181   5.791   0.102  11.161  0.5880  0.0909  0.4914
14589TIP3    H165182   5.713   0.157  11.150 -0.4504 -1.2210  0.9516
14589TIP3    H265183   5.859   0.145  11.110 -0.2006  1.7430  0.7740
14590TIP3   OH265184   6.760   4.564  15.592 -0.3796 -0.3325  0.6677
14590TIP3    H165185   6.778   4.581  15.499  2.2810 -0.1175  1.1488
14590TIP3    H265186   6.729   4.649  15.626  1.4027  0.3952  0.5543
14591TIP3   OH265187   3.532   1.005  15.785  0.1573  0.2380  0.1034
14591TIP3    H165188   3.623   0.986  15.808 -0.0609 -0.2563  0.5931
14591TIP3    H265189   3.491   1.027  15.869  0.4095  3.0746 -0.4226
14592TIP3   OH265190   0.966   2.447  17.133 -0.0398  0.0958 -0.1854
14592TIP3    H165191   1.046   2.478  17.091  1.3819 -2.0754  0.7651
14592TIP3    H265192   0.921   2.527  17.162  1.7709  1.3554 -0.7192
14593TIP3   OH265193   0.978   4.993   4.001 -0.5613  0.7386 -0.6960
14593TIP3    H165194   0.938   4.964   4.084  0.0497  1.7665 -0.0180
14593TIP3    H265195   1.048   4.930   3.986 -2.7010 -1.4304 -2.2005
14594TIP3   OH265196   3.696   4.551  17.219 -0.7993  0.2190 -0.0023
14594TIP3    H165197   3.636   4.531  17.290 -2.3021 -1.7253 -1.6969
14594TIP3    H265198   3.755   4.476  17.214  0.7994  1.3840  0.6149
14595TIP3   OH265199   6.670   1.742  13.732  0.1548 -0.7111  0.7279
14595TIP3    H165200   6.660   1.715  13.824  0.2072  0.8977  1.2358
14595TIP3    H265201   6.721   1.671  13.692 -1.3726 -2.3069  1.4797
14596TIP3   OH265202   4.733   4.971   0.457 -0.2587 -0.1879 -0.0683
14596TIP3    H165203   4.700   5.056   0.487 -0.4342 -0.3374  0.1625
14596TIP3    H265204   4.674   4.948   0.385 -0.1219 -0.0468 -0.2269
14597TIP3   OH265205   4.708   6.371   6.468  0.0786 -0.1793 -0.2851
14597TIP3    H165206   4.640   6.436   6.450 -0.8511 -1.3524 -1.2108
14597TIP3    H265207   4.661   6.298   6.510  0.8329 -0.8369 -0.5574
14598TIP3   OH265208   2.666   3.611   0.287 -0.0085  0.0054  0.0543
14598TIP3    H165209   2.745   3.618   0.340  0.7994 -1.6203 -0.8557
14598TIP3    H265210   2.661   3.694   0.240  0.4789  0.5913  1.0059
14599TIP3   OH265211   6.159   3.794  13.964  0.4547  0.3491  0.0584
14599TIP3    H165212   6.090   3.729  13.981  0.1896  0.4534 -0.6083
14599TIP3    H265213   6.112   3.878  13.960  0.5279  0.3510 -1.0154
14600TIP3   OH265214   2.166   3.545  15.178 -0.0156 -0.7211 -0.4812
14600TIP3    H165215   2.260   3.548  15.194  0.1443 -1.0520 -1.3009
14600TIP3    H265216   2.130   3.495  15.251  0.5179 -1.0934 -0.4734
14601TIP3   OH265217   5.865   0.857   0.728 -0.4928  0.3633  0.4277
14601TIP3    H165218   5.864   0.762   0.721 -1.1756  0.2890  1.3797
14601TIP3    H265219   5.930   0.876   0.795 -1.3570  0.4710  1.2615
14602TIP3   OH265220   0.405   4.225  16.116  0.4961  0.0392  0.1107
14602TIP3    H165221   0.388   4.144  16.067  1.2647 -1.8308  2.7249
14602TIP3    H265222   0.488   4.209  16.160 -0.0555  1.6768  1.8434
14603TIP3   OH265223   1.620   5.727  12.288 -0.6819  0.4379 -0.4469
14603TIP3    H165224   1.574   5.724  12.205  0.7577  0.5538 -1.2885
14603TIP3    H265225   1.703   5.681  12.271 -0.3890  0.4004  0.9390
14604TIP3   OH265226   1.623   0.289  12.480 -0.3277 -0.5095  0.7866
14604TIP3    H165227   1.715   0.312  12.494  0.1100 -1.3716 -0.4607
14604TIP3    H265228   1.617   0.197  12.506 -1.4982  0.2161  3.4224
14605TIP3   OH265229   4.527   4.930   5.540 -0.4223  0.0372  0.8576
14605TIP3    H165230   4.537   4.835   5.549 -1.8723 -0.2616 -0.2193
14605TIP3    H265231   4.481   4.941   5.456 -1.3011  1.6164  1.4983
14606TIP3   OH265232   4.073   4.471   6.328 -0.0997  0.9202 -0.7348
14606TIP3    H165233   3.992   4.445   6.285  0.7450  0.2202 -1.9760
14606TIP3    H265234   4.115   4.532   6.267  1.2112 -0.2265 -1.0341
14607TIP3   OH265235   2.207   4.956  14.977  0.0519 -0.2577  0.5918
14607TIP3    H165236   2.153   4.893  14.931 -0.2789 -0.9096  1.8246
14607TIP3    H265237   2.155   4.982  15.053  0.5547  0.8148  0.5954
14608TIP3   OH265238   0.129   6.209  12.816 -0.2619 -0.2752  0.9289
14608TIP3    H165239   0.065   6.232  12.748 -0.6554  1.5283  1.8490
14608TIP3    H265240   0.202   6.171  12.768 -1.4213 -1.0642 -0.2900
14609TIP3   OH265241   4.342   5.811   1.208  0.1322 -0.4586 -0.2606
14609TIP3    H165242   4.335   5.883   1.271  0.9811 -1.2106  0.7421
14609TIP3    H265243   4.406   5.841   1.144 -0.2282  0.0515 -0.3866
14610TIP3   OH265244   6.026   4.045   6.011  0.4736  0.0926 -0.3139
14610TIP3    H165245   5.985   3.986   5.948  0.8170 -0.4990  0.0109
14610TIP3    H265246   6.003   4.009   6.097 -0.4345  1.1791 -0.0708
14611TIP3   OH265247   5.510   0.043   5.457  0.1425 -0.4361 -0.3440
14611TIP3    H165248   5.524   0.008   5.544 -1.4976 -0.9987 -0.2728
14611TIP3    H265249   5.520   0.138   5.467 -2.9380 -0.1410  1.1689
14612TIP3   OH265250   1.375   0.298  17.074 -0.4279 -0.5803 -0.6817
14612TIP3    H165251   1.392   0.382  17.030 -1.9976 -0.7041 -1.6100
14612TIP3    H265252   1.387   0.232  17.006  0.7427 -1.1325  0.0333
14613TIP3   OH265253   3.031   1.990   3.079  0.0149  0.5229  0.0987
14613TIP3    H165254   3.086   1.956   3.149 -0.3154 -0.7283 -0.2309
14613TIP3    H265255   3.092   2.033   3.019  0.6643 -0.9084 -0.3022
14614TIP3   OH265256   2.143   0.938   0.514 -0.1255  0.1729  0.5225
14614TIP3    H165257   2.103   0.954   0.599 -0.7147  0.3505  0.2220
14614TIP3    H265258   2.107   0.853   0.487 -0.8991  0.6673 -0.0715
14615TIP3   OH265259   3.590   3.584   0.662  0.0157  0.1434  0.2131
14615TIP3    H165260   3.524   3.651   0.647 -0.5542 -0.5721 -0.5566
14615TIP3    H265261   3.549   3.503   0.632  1.1590 -0.3425 -0.0782
14616TIP3   OH265262   0.436   1.637  12.514  0.2786  0.0282  0.2371
14616TIP3    H165263   0.468   1.600  12.596  0.4251 -1.1455 -0.3356
14616TIP3    H265264   0.512   1.682  12.476  0.2606  0.4023  0.6406
14617TIP3   OH265265   4.475   6.076  11.192  0.1252  0.1209  0.2846
14617TIP3    H165266   4.462   5.982  11.205 -1.0959  0.4459  1.7462
14617TIP3    H265267   4.390   6.108  11.162  1.0660  0.5006 -2.2216
14618TIP3   OH265268   0.438   0.602   3.472  0.6059  0.5382 -0.1525
14618TIP3    H165269   0.508   0.662   3.447  0.1681  0.9401 -0.4279
14618TIP3    H265270   0.413   0.559   3.390 -0.3147  1.3044 -0.2854
14619TIP3   OH265271   2.907   4.192   0.998  0.3187  0.8274 -0.3394
14619TIP3    H165272   2.847   4.134   0.951  0.2020  1.3710 -0.8659
14619TIP3    H265273   2.994   4.164   0.970  0.3514 -0.1805  0.6745
14620TIP3   OH265274   6.557   2.743   1.259  0.3472 -0.4093  0.2841
14620TIP3    H165275   6.516   2.814   1.210 -0.0451 -1.0283 -0.2880
14620TIP3    H265276   6.646   2.737   1.223  0.2799 -0.4124  0.1172
14621TIP3   OH265277   0.955   4.428  15.788 -0.2141  0.2512  0.1533
14621TIP3    H165278   0.942   4.403  15.696  0.1348 -0.3834  0.2726
14621TIP3    H265279   0.904   4.365  15.838  1.5190 -0.9395  0.5107
14622TIP3   OH265280   1.119   1.472  12.651 -0.2439  0.0817 -0.3737
14622TIP3    H165281   1.125   1.409  12.723  0.6021 -0.4731 -0.9103
14622TIP3    H265282   1.025   1.475  12.630 -0.3251 -0.8509 -0.2024
14623TIP3   OH265283   3.322   0.469   3.512  0.2282 -0.0962  0.1251
14623TIP3    H165284   3.253   0.459   3.447 -0.8392 -0.8183  1.3400
14623TIP3    H265285   3.383   0.398   3.494 -1.2362 -1.7277  1.2897
14624TIP3   OH265286   1.634   4.323   0.141  0.0835  0.1653  0.6964
14624TIP3    H165287   1.586   4.380   0.081 -0.4018  0.0054  0.9213
14624TIP3    H265288   1.688   4.382   0.193  0.7136  0.2827 -0.0734
14625TIP3   OH265289   6.461   4.207   1.463  0.1079  0.6542  0.5423
14625TIP3    H165290   6.503   4.125   1.438  0.1759  1.0090 -0.5691
14625TIP3    H265291   6.373   4.182   1.493 -0.2473  0.2602 -0.7772
14626TIP3   OH265292   0.961   0.911   3.409 -0.8152  0.0512  0.0034
14626TIP3    H165293   0.878   0.872   3.436  0.5721 -2.2269  1.3326
14626TIP3    H265294   0.980   0.870   3.324 -0.8005  0.1889 -0.0603
14627TIP3   OH265295   1.731   0.164  13.605  0.1680  0.0756 -0.2598
14627TIP3    H165296   1.735   0.146  13.698 -0.6340  1.9636  0.1946
14627TIP3    H265297   1.801   0.228  13.590  1.3778 -1.4123 -1.3136
14628TIP3   OH265298   1.537   5.081   0.221 -0.1794  0.3120  0.1830
14628TIP3    H165299   1.567   5.023   0.291 -0.5158 -2.1552 -1.5700
14628TIP3    H265300   1.464   5.129   0.259 -1.0325 -1.7266  1.2899
14629TIP3   OH265301   2.315   3.811  15.776 -0.1535 -0.3083  0.1395
14629TIP3    H165302   2.376   3.826  15.849 -0.3198  0.2036  0.1809
14629TIP3    H265303   2.228   3.820  15.816 -0.2645  1.6615 -0.4175
14630TIP3   OH265304   5.159   4.850   0.975  0.4910  0.1862  0.1028
14630TIP3    H165305   5.238   4.825   0.927  1.3825  1.5984  0.7741
14630TIP3    H265306   5.102   4.888   0.908 -1.0055 -3.5598 -0.9950
14631TIP3   OH265307   5.303   6.364   0.280  0.2309 -0.4366 -0.5814
14631TIP3    H165308   5.285   6.452   0.313  3.5110 -0.2084  1.0390
14631TIP3    H265309   5.228   6.311   0.310 -0.2442  1.1752  1.2668
14632TIP3   OH265310   0.756   3.599  10.846 -0.7671  0.1946 -0.6125
14632TIP3    H165311   0.744   3.665  10.914 -1.4253 -0.6993  0.1651
14632TIP3    H265312   0.727   3.641  10.765  0.1460  1.3177 -0.3805
14633TIP3   OH265313   6.508   6.065  13.406  0.2152 -0.2307 -0.0701
14633TIP3    H165314   6.582   6.027  13.360  0.9636  0.9667  0.1101
14633TIP3    H265315   6.449   6.095  13.336  0.1177 -0.7365 -0.2119
14634TIP3   OH265316   2.953   3.204   4.296  0.5006  0.3725 -0.1654
14634TIP3    H165317   2.881   3.147   4.268 -0.0595  0.0622  1.7811
14634TIP3    H265318   2.913   3.290   4.308  0.1279 -0.0403  2.0031
14635TIP3   OH265319   3.201   4.728   0.512  0.2607 -0.2784  0.4091
14635TIP3    H165320   3.174   4.638   0.529  0.1896 -0.1984  0.7285
14635TIP3    H265321   3.280   4.739   0.565  1.7386 -0.9408 -1.5413
14636TIP3   OH265322   5.456   1.497  11.475  0.4867 -0.1413 -0.0821
14636TIP3    H165323   5.457   1.569  11.538 -1.0818  1.1114 -1.3821
14636TIP3    H265324   5.529   1.515  11.416 -0.0130  0.5377 -0.5138
14637TIP3   OH265325   1.427   2.097  14.859  0.4328 -0.4125 -0.1532
14637TIP3    H165326   1.476   2.170  14.822  0.5726  0.6623  1.9940
14637TIP3    H265327   1.470   2.018  14.825  1.4368  0.5073 -1.0581
14638TIP3   OH265328   1.968   0.286   2.355  0.0792 -0.4221 -0.1192
14638TIP3    H165329   1.913   0.262   2.429 -0.4225 -1.1185 -0.7069
14638TIP3    H265330   1.942   0.375   2.333  2.4393  1.1103  2.5297
14639TIP3   OH265331   0.606   1.390   1.561  0.1895 -0.2728  0.0457
14639TIP3    H165332   0.668   1.427   1.624  0.9943 -0.7906 -0.4104
14639TIP3    H265333   0.652   1.395   1.477 -0.4766 -0.4836 -0.3368
14640TIP3   OH265334   4.044   2.838  11.993 -0.2628  0.1587 -0.0572
14640TIP3    H165335   3.980   2.783  11.948  1.8746 -1.5334 -1.2121
14640TIP3    H265336   4.004   2.858  12.078 -1.5494 -2.3794  0.0120
14641TIP3   OH265337   5.389   6.698  16.736 -0.2324  0.4070  0.2067
14641TIP3    H165338   5.417   6.780  16.696 -0.6650  1.3130  1.6978
14641TIP3    H265339   5.293   6.702  16.735 -0.2549  0.0612  0.5820
14642TIP3   OH265340   6.725   3.464   5.633  0.2447 -0.3096 -0.7950
14642TIP3    H165341   6.808   3.488   5.674  0.7092 -2.2816 -0.4882
14642TIP3    H265342   6.674   3.425   5.704 -1.2443  1.4875 -0.8232
14643TIP3   OH265343   0.731   6.238   5.239 -0.0333 -0.6311  0.2641
14643TIP3    H165344   0.677   6.161   5.223  0.9686 -1.3626  0.2549
14643TIP3    H265345   0.806   6.228   5.180 -0.8416  1.4039 -1.2317
14644TIP3   OH265346   6.591   4.307  14.530 -0.2589 -0.2774  0.1714
14644TIP3    H165347   6.608   4.361  14.452  2.6945 -0.9494  0.2564
14644TIP3    H265348   6.616   4.362  14.603 -1.3873 -0.2707  0.5730
14645TIP3   OH265349   4.518   2.145  13.352 -0.0498 -0.0481  0.6007
14645TIP3    H165350   4.490   2.057  13.330  0.2736 -0.0272  0.1069
14645TIP3    H265351   4.581   2.169  13.284 -1.1007  1.0598 -0.0351
14646TIP3   OH265352   2.504   5.421   4.461  0.5792 -0.1935  0.1739
14646TIP3    H165353   2.509   5.501   4.513  0.0283 -1.6127  2.5090
14646TIP3    H265354   2.596   5.397   4.446  0.7602  1.0440 -0.9346
14647TIP3   OH265355   5.437   3.722  14.200  0.6532  0.2802 -0.4450
14647TIP3    H165356   5.470   3.670  14.274 -1.9772 -0.9149  0.0034
14647TIP3    H265357   5.430   3.659  14.129 -1.5773  0.1871 -0.2022
14648TIP3   OH265358   4.157   6.712  15.682 -0.2121 -0.4052 -0.3023
14648TIP3    H165359   4.250   6.714  15.659  0.0192 -0.4356  0.5625
14648TIP3    H265360   4.155   6.665  15.766 -0.7726  1.3374  0.7184
14649TIP3   OH265361   5.847   1.304  12.177  0.5551 -0.5081 -0.0197
14649TIP3    H165362   5.820   1.390  12.146 -0.1270 -1.1097 -1.1447
14649TIP3    H265363   5.940   1.315  12.199  0.5420  0.4441 -0.3941
14650TIP3   OH265364   4.276   3.042  15.559 -0.1234 -0.0107 -0.3081
14650TIP3    H165365   4.239   3.033  15.471 -0.5179 -0.0187 -0.1452
14650TIP3    H265366   4.213   2.997  15.616 -0.3090  0.7107  0.0769
14651TIP3   OH265367   3.019   5.137   0.172 -0.3734 -0.6650 -0.1768
14651TIP3    H165368   3.025   5.221   0.216  1.4958 -1.4790  1.2837
14651TIP3    H265369   2.934   5.138   0.128  0.2737  2.5913 -1.5806
14652TIP3   OH265370   1.898   3.476  15.091 -0.2889  0.2516  0.1948
14652TIP3    H165371   1.879   3.393  15.047 -0.6908  0.6466 -0.4043
14652TIP3    H265372   1.993   3.479  15.096 -0.2520 -0.0312 -0.2171
14653TIP3   OH265373   4.520   0.695   3.153 -0.1841 -0.1883 -0.0942
14653TIP3    H165374   4.473   0.739   3.224  0.1293  0.1304 -0.0800
14653TIP3    H265375   4.566   0.766   3.108 -0.7166 -0.3246 -0.8782
14654TIP3   OH265376   1.299   0.602   4.053 -0.3482  0.0313  0.0781
14654TIP3    H165377   1.289   0.520   4.006 -0.8644 -0.1878  0.5493
14654TIP3    H265378   1.310   0.668   3.985  0.1475 -0.4400 -0.2973
14655TIP3   OH265379   0.020   0.569   2.218  0.2777  0.5675 -0.1279
14655TIP3    H165380  -0.046   0.626   2.179  0.1549 -0.0354 -0.8164
14655TIP3    H265381   0.037   0.607   2.304 -0.1047  1.4006 -0.4143
14656TIP3   OH265382   4.863   3.139   6.332  0.0151 -0.1431 -0.5186
14656TIP3    H165383   4.798   3.096   6.277  0.2421 -0.3667 -0.6104
14656TIP3    H265384   4.830   3.228   6.343  0.0936 -0.0248 -1.2210
14657TIP3   OH265385   5.139   5.408  15.493  0.3173 -0.1848  0.0108
14657TIP3    H165386   5.127   5.338  15.429  0.6005  0.6135 -0.9442
14657TIP3    H265387   5.169   5.363  15.572 -1.3980 -1.3462  0.0590
14658TIP3   OH265388   5.415   2.020  16.122  0.2765  0.2900 -0.6184
14658TIP3    H165389   5.361   1.941  16.120  0.9803 -0.2911  1.0074
14658TIP3    H265390   5.502   1.990  16.093  0.7850  0.2226  0.8960
14659TIP3   OH265391   0.119   1.040  11.906 -0.0337  0.1901  0.0159
14659TIP3    H165392   0.201   1.052  11.858 -0.2879  0.8209 -0.2822
14659TIP3    H265393   0.072   1.122  11.892 -0.6777 -0.1345  0.2604
14660TIP3   OH265394   3.474   6.443   2.775 -0.0837 -0.5100 -0.2196
14660TIP3    H165395   3.560   6.479   2.798  0.2316 -1.4369  0.1248
14660TIP3    H265396   3.484   6.412   2.685 -0.8225  1.6284 -1.0764
14661TIP3   OH265397   1.682   1.246  15.794 -0.2903  0.5264  0.6770
14661TIP3    H165398   1.632   1.204  15.724  0.8375 -0.4441  0.4089
14661TIP3    H265399   1.721   1.323  15.753 -0.4326  0.5025  0.4968
14662TIP3   OH265400   3.876   1.811   5.374 -0.5833  0.2774 -0.5352
14662TIP3    H165401   3.900   1.731   5.328 -2.6630 -0.3121 -0.6950
14662TIP3    H265402   3.781   1.806   5.383 -0.4264  0.9764  2.7105
14663TIP3   OH265403   1.776   3.774   0.677  0.4559  0.2247 -0.7496
14663TIP3    H165404   1.862   3.736   0.658  0.0005 -0.4333 -1.5263
14663TIP3    H265405   1.715   3.700   0.672  0.1193  0.2092  2.0878
14664TIP3   OH265406   5.099   1.900  10.649 -0.6430 -0.1808  0.0143
14664TIP3    H165407   5.104   1.947  10.566 -0.0097 -2.2194 -1.1838
14664TIP3    H265408   5.005   1.897  10.669 -0.8151  0.2713 -0.6773
14665TIP3   OH265409   5.516   5.941  14.471 -0.3803  0.4969  0.0688
14665TIP3    H165410   5.472   5.902  14.547 -0.0588  0.7266  0.3807
14665TIP3    H265411   5.586   5.995  14.510 -0.4617  0.9266 -0.3758
14666TIP3   OH265412   4.945   1.241   1.753  0.0039  0.0865  0.0228
14666TIP3    H165413   4.938   1.319   1.699  1.4895 -0.5152 -1.1032
14666TIP3    H265414   4.983   1.272   1.836 -0.7193  0.7505  0.1107
14667TIP3   OH265415   1.194   3.982   5.951  0.9031  0.0521  0.0628
14667TIP3    H165416   1.270   3.934   5.919 -0.3120 -1.6293 -0.4943
14667TIP3    H265417   1.124   3.959   5.890 -0.6803 -0.5768  1.9818
14668TIP3   OH265418   2.021   2.289   5.190  0.2509  0.2038  0.8110
14668TIP3    H165419   1.965   2.279   5.267  0.5569 -1.6711  0.8391
14668TIP3    H265420   1.962   2.273   5.116  0.1571  1.0896  0.6825
14669TIP3   OH265421   1.722   1.088  11.501 -0.4832  0.3297 -0.0215
14669TIP3    H165422   1.802   1.036  11.502 -1.2858 -0.9219  0.3416
14669TIP3    H265423   1.720   1.128  11.413  0.1510 -0.2176 -0.2895
14670TIP3   OH265424   4.381   4.600  10.481  0.1381  0.1314  0.2086
14670TIP3    H165425   4.382   4.526  10.542  1.3373  0.6236  0.8149
14670TIP3    H265426   4.318   4.662  10.520  0.7706  0.3682  0.8675
14671TIP3   OH265427   6.014   6.632   1.214 -0.3562  0.1504 -0.1955
14671TIP3    H165428   5.966   6.557   1.250 -1.0149  0.2275 -0.8778
14671TIP3    H265429   5.997   6.704   1.276  0.5726 -0.3358  0.6525
14672TIP3   OH265430   2.793   5.698   0.048  0.6561  0.1078  0.0521
14672TIP3    H165431   2.821   5.726  -0.040  0.7185  3.6309  1.0109
14672TIP3    H265432   2.873   5.693   0.098  0.3780  3.0122  0.9976
14673TIP3   OH265433   0.566   2.066  17.066  0.8769  0.2425  0.1471
14673TIP3    H165434   0.622   2.135  17.031  2.1024  0.4750  2.3698
14673TIP3    H265435   0.589   1.988  17.014  1.4624  0.8833 -0.5805
14674TIP3   OH265436   4.671   1.521   2.771 -0.0805 -0.3306 -0.1184
14674TIP3    H165437   4.576   1.538   2.770  0.1519  1.0749 -1.2824
14674TIP3    H265438   4.708   1.593   2.821  0.4845 -0.1480 -0.7872
14675TIP3   OH265439   2.600   1.610   3.250  0.2585  0.0945  0.4733
14675TIP3    H165440   2.616   1.517   3.264  1.5325  0.3826  1.0195
14675TIP3    H265441   2.683   1.653   3.269  0.0952  1.2282 -1.1124
14676TIP3   OH265442   0.178   0.744  11.477 -0.2761 -0.0800 -0.6533
14676TIP3    H165443   0.122   0.797  11.533 -0.4798 -1.4001  0.4593
14676TIP3    H265444   0.266   0.778  11.491 -0.6869  1.7341 -2.0883
14677TIP3   OH265445   4.287   3.866  14.184  0.3967  0.2597 -0.1398
14677TIP3    H165446   4.254   3.783  14.218 -2.0936  0.4587 -1.8043
14677TIP3    H265447   4.332   3.843  14.103 -0.7522  0.5514 -0.8772
14678TIP3   OH265448   3.008   4.288  16.434 -0.0018  0.3522 -0.1755
14678TIP3    H165449   2.913   4.290  16.427  0.0857  0.6711 -1.8316
14678TIP3    H265450   3.038   4.335  16.356  1.5130  0.2542  0.3184
14679TIP3   OH265451   6.241   2.015  14.793 -0.5082  0.2914 -0.4286
14679TIP3    H165452   6.261   2.108  14.784 -0.4439  0.2647 -0.5638
14679TIP3    H265453   6.186   2.010  14.871 -4.1293  1.0252 -2.6871
14680TIP3   OH265454   3.512   2.184   3.492 -0.0560  0.1684 -0.0475
14680TIP3    H165455   3.573   2.185   3.565  0.8756 -1.8958 -0.7243
14680TIP3    H265456   3.567   2.199   3.415 -0.8523  1.1379 -0.4574
14681TIP3   OH265457   1.752   0.797  12.803 -0.0732  0.7034 -0.4132
14681TIP3    H165458   1.822   0.852  12.768 -0.8409  1.0559 -1.4647
14681TIP3    H265459   1.677   0.817  12.747 -1.3762  1.2738  1.4594
14682TIP3   OH265460   5.403   5.483  11.526  0.2760  0.4730  0.1815
14682TIP3    H165461   5.319   5.525  11.546 -0.6922 -0.7067 -1.2537
14682TIP3    H265462   5.448   5.546  11.470 -1.7886 -0.8086 -3.2206
14683TIP3   OH265463   0.355   3.126  11.449 -0.0387  0.0307 -0.0927
14683TIP3    H165464   0.325   3.045  11.490 -0.2143  0.5276  0.7955
14683TIP3    H265465   0.450   3.115  11.441  0.1709  0.3767  1.5489
14684TIP3   OH265466   6.757   3.385   5.358  0.1166 -0.2071 -0.0513
14684TIP3    H165467   6.849   3.358   5.360  0.5471  1.0339 -1.6991
14684TIP3    H265468   6.745   3.437   5.438  1.1376  0.4907 -0.3417
14685TIP3   OH265469   1.421   4.636  14.417 -0.6369  0.7022  0.0113
14685TIP3    H165470   1.496   4.613  14.472 -1.7319 -1.3622  0.7662
14685TIP3    H265471   1.381   4.552  14.394 -0.9158  1.5422 -3.0393
14686TIP3   OH265472   1.116   5.259  15.458  0.5137 -0.3137 -0.6620
14686TIP3    H165473   1.088   5.194  15.522 -1.4348  0.9488 -0.1436
14686TIP3    H265474   1.090   5.343  15.496 -0.3011  0.5167 -2.8644
14687TIP3   OH265475   1.557   1.121   3.948  0.0679  0.3326 -0.3669
14687TIP3    H165476   1.617   1.073   3.891  0.5479  0.9844 -0.4112
14687TIP3    H265477   1.607   1.137   4.028 -1.1900 -2.2755  1.1074
14688TIP3   OH265478   2.897   2.507  11.499 -0.0894 -0.5087 -0.2159
14688TIP3    H165479   2.869   2.429  11.548 -1.5413 -0.0165 -0.2276
14688TIP3    H265480   2.966   2.475  11.441  0.8550 -1.3460  1.2981
14689TIP3   OH265481   6.365   0.202   2.675  0.2025  0.2634  0.5491
14689TIP3    H165482   6.335   0.259   2.605  2.1000 -1.0591 -1.5132
14689TIP3    H265483   6.289   0.150   2.698 -0.6112  1.1084 -0.1595
14690TIP3   OH265484   4.120   1.922   5.896 -0.5527  0.4805 -0.3096
14690TIP3    H165485   4.102   1.911   5.803  0.1503  0.5514 -0.4571
14690TIP3    H265486   4.182   1.852   5.917 -1.2546  0.0213  0.2699
14691TIP3   OH265487   2.311   1.561  13.999 -0.3265 -0.4551 -0.5398
14691TIP3    H165488   2.304   1.559  14.095 -2.1723  2.2003 -0.5210
14691TIP3    H265489   2.260   1.486  13.970  2.5472 -3.0250  0.4961
14692TIP3   OH265490   1.175   6.638   5.353 -0.0454 -0.1523 -0.4781
14692TIP3    H165491   1.115   6.703   5.388  0.3445  0.3486 -0.7408
14692TIP3    H265492   1.123   6.593   5.285  0.2755  1.1584 -1.6197
14693TIP3   OH265493   3.867   5.213  14.378 -0.4737 -0.0578 -0.2387
14693TIP3    H165494   3.938   5.167  14.422 -0.1438  0.6254 -0.0480
14693TIP3    H265495   3.816   5.252  14.449  0.0878  1.0895 -0.4442
14694TIP3   OH265496   3.062   2.737   4.684  0.5690  0.5465  0.0494
14694TIP3    H165497   3.133   2.748   4.621  2.0385 -0.9248  1.3581
14694TIP3    H265498   3.055   2.642   4.695  0.3794  0.7500  2.1064
14695TIP3   OH265499   4.005   2.344   0.883 -0.3330  0.0150 -0.0701
14695TIP3    H165500   4.027   2.339   0.790 -0.7768 -0.9258 -0.1363
14695TIP3    H265501   3.934   2.408   0.887 -0.5052 -0.1525 -0.4164
14696TIP3   OH265502   5.325   0.815  16.488 -0.6402 -0.3709 -0.4009
14696TIP3    H165503   5.310   0.879  16.557 -0.1932 -1.1855  0.4726
14696TIP3    H265504   5.410   0.839  16.452  0.5280 -1.6621  1.3263
14697TIP3   OH265505   1.248   0.297  11.627  0.2438  0.1054  0.1633
14697TIP3    H165506   1.255   0.357  11.701 -0.5840 -0.2011  0.5067
14697TIP3    H265507   1.305   0.334  11.560  2.8063 -0.7992  1.7053
14698TIP3   OH265508   2.014   5.493  15.296  0.4446  0.1260  0.1693
14698TIP3    H165509   1.966   5.538  15.366 -0.1284 -0.7015  0.3139
14698TIP3    H265510   1.961   5.417  15.275 -0.7957  1.6477 -2.9629
14699TIP3   OH265511   5.682   4.706  13.797  0.6242  0.0510  0.0301
14699TIP3    H165512   5.621   4.642  13.762  0.6034  0.5066 -0.8008
14699TIP3    H265513   5.683   4.776  13.731  1.7621  0.2134  0.2031
14700TIP3   OH265514   3.430   2.785   2.582  0.1997 -0.2296  0.2560
14700TIP3    H165515   3.397   2.805   2.494 -0.0043  0.4450  0.4857
14700TIP3    H265516   3.514   2.830   2.588  1.6773 -2.6411 -0.6478
14701TIP3   OH265517   2.665   6.062  12.946  0.7118 -0.3083  0.5712
14701TIP3    H165518   2.716   6.109  12.880 -0.9267 -1.0811 -1.3300
14701TIP3    H265519   2.676   6.115  13.026  1.3692  1.6183 -0.7166
14702TIP3   OH265520   0.378   3.432  11.382  0.1391 -0.1293  0.2510
14702TIP3    H165521   0.369   3.342  11.413 -0.4972 -0.0646  0.2762
14702TIP3    H265522   0.372   3.425  11.287  2.3134 -0.3530  0.0941
14703TIP3   OH265523   2.338   5.249   5.148 -0.5892  0.0184  0.5179
14703TIP3    H165524   2.347   5.300   5.228 -2.1952  1.5283 -0.2008
14703TIP3    H265525   2.401   5.289   5.087  0.3409 -0.8708  0.8626
14704TIP3   OH265526   5.414   1.653   4.235 -0.6331 -0.0948  0.1058
14704TIP3    H165527   5.438   1.742   4.211 -0.3750 -0.3504 -0.5955
14704TIP3    H265528   5.421   1.652   4.331  0.9208  0.2130  0.0244
14705TIP3   OH265529   2.517   1.919  15.162  0.1150  0.2862 -0.3143
14705TIP3    H165530   2.585   1.852  15.162  0.3412  0.5120 -0.0433
14705TIP3    H265531   2.520   1.957  15.250 -0.0016  0.6520 -0.4644
14706TIP3   OH265532   2.631   4.699  12.226  0.0799  0.2347 -0.9214
14706TIP3    H165533   2.594   4.672  12.142  1.2920 -0.6501 -1.2060
14706TIP3    H265534   2.720   4.662  12.226  0.4383  1.0237  0.3451
14707TIP3   OH265535   3.405   2.021  14.451 -0.3832  0.0945 -0.1049
14707TIP3    H165536   3.349   2.057  14.383  0.0067 -1.8482 -1.5162
14707TIP3    H265537   3.448   1.946  14.410  0.8649 -0.3498  1.8898
14708TIP3   OH265538   0.243   3.980   4.699  0.2174 -0.3538 -0.1554
14708TIP3    H165539   0.292   3.988   4.618  0.9479 -1.7188  0.1149
14708TIP3    H265540   0.214   3.889   4.700 -2.0409  0.2912 -0.1187
14709TIP3   OH265541   5.510   5.584  15.951 -0.2455  0.3333  0.4549
14709TIP3    H165542   5.586   5.640  15.968 -0.9009  1.6251 -0.6680
14709TIP3    H265543   5.539   5.524  15.882  0.7665 -1.4376  2.3265
14710TIP3   OH265544   6.777   2.198  14.419  0.1630  0.1724 -0.4683
14710TIP3    H165545   6.755   2.237  14.335 -0.3818 -0.0774 -0.4502
14710TIP3    H265546   6.756   2.266  14.483  0.8658  0.4709 -0.5530
14711TIP3   OH265547   0.647   2.742  11.706 -0.4986 -0.0754 -0.1989
14711TIP3    H165548   0.558   2.708  11.698  0.5095 -2.9760 -0.3681
14711TIP3    H265549   0.636   2.833  11.732 -3.4951 -0.2573 -0.5057
14712TIP3   OH265550   3.661   4.159   5.204 -0.3225 -0.1297  0.3646
14712TIP3    H165551   3.690   4.071   5.177  1.2161  0.3486  0.3804
14712TIP3    H265552   3.630   4.200   5.123 -2.6523 -1.2077  0.6042
14713TIP3   OH265553   3.175   4.043   0.412  0.0550 -0.1643 -0.1023
14713TIP3    H165554   3.232   3.973   0.380 -0.7226 -0.1024 -1.7331
14713TIP3    H265555   3.105   3.997   0.458 -0.4737 -0.5016 -1.1989
14714TIP3   OH265556   1.626   3.183   0.318 -0.0723  0.1874 -0.6377
14714TIP3    H165557   1.689   3.235   0.269  0.0722 -0.1897 -0.8634
14714TIP3    H265558   1.678   3.136   0.382 -0.2932  0.8613  0.0395
14715TIP3   OH265559   6.156   0.856  14.428 -0.0542 -0.8878 -0.3932
14715TIP3    H165560   6.123   0.887  14.512  0.7323 -1.2349  0.0532
14715TIP3    H265561   6.250   0.850  14.439  0.2436  0.4994 -1.7836
14716TIP3   OH265562   1.328   6.475   0.111 -0.3033  0.3059 -0.1024
14716TIP3    H165563   1.416   6.451   0.142 -0.4110  0.0005 -0.0243
14716TIP3    H265564   1.336   6.474   0.016 -0.5298 -0.9669 -0.1324
14717TIP3   OH265565   0.113   4.241  12.521 -0.0095 -0.1820 -0.9605
14717TIP3    H165566   0.132   4.277  12.608 -1.1263 -0.9870 -0.3544
14717TIP3    H265567   0.197   4.244  12.475  1.0500 -1.4009  0.7611
14718TIP3   OH265568   3.490   0.036  17.234  0.6405  0.8295 -0.1432
14718TIP3    H165569   3.417   0.095  17.215 -0.9034 -0.6738  0.9460
14718TIP3    H265570   3.568   0.090  17.219 -0.5948  2.0236 -2.8643
14719TIP3   OH265571   1.701   4.776  14.626 -0.2709 -0.3378 -0.1064
14719TIP3    H165572   1.729   4.825  14.549 -1.2391 -1.7225 -1.4109
14719TIP3    H265573   1.683   4.688  14.593  0.5480 -1.3422  1.9682
14720TIP3   OH265574   2.815   2.652  15.693 -0.0373  0.1743  0.6346
14720TIP3    H165575   2.839   2.665  15.784 -0.9271  1.8102  0.6917
14720TIP3    H265576   2.863   2.720  15.646 -0.4130  0.0340  0.0384
14721TIP3   OH265577   6.284   6.616   1.947  0.4375  0.0489 -0.7369
14721TIP3    H165578   6.217   6.593   1.883  1.1067  0.0539 -1.4532
14721TIP3    H265579   6.314   6.532   1.982 -0.5166  0.0789  0.2075
14722TIP3   OH265580   4.607   3.675   4.198  0.0456  0.3436 -0.8998
14722TIP3    H165581   4.564   3.596   4.231  1.1501  0.8489  2.0071
14722TIP3    H265582   4.535   3.730   4.167 -0.7876 -1.4714 -2.3848
14723TIP3   OH265583   0.916   0.969  12.934 -0.3272  0.3952  0.1123
14723TIP3    H165584   0.869   0.957  12.851 -0.6290 -1.2166  0.4772
14723TIP3    H265585   0.950   0.882  12.954  3.4093  1.5499 -0.4276
14724TIP3   OH265586   5.132   6.348  11.971 -0.1153  0.9529  0.5774
14724TIP3    H165587   5.140   6.262  12.012  0.0257  1.0674  0.7847
14724TIP3    H265588   5.208   6.355  11.914  0.4248  1.3682  1.3365
14725TIP3   OH265589   4.702   5.779   3.519  0.4968  0.7394 -0.4331
14725TIP3    H165590   4.613   5.809   3.504  0.8409  1.4553 -1.1310
14725TIP3    H265591   4.692   5.688   3.548 -0.5699  1.5796  2.0522
14726TIP3   OH265592   5.885   1.564  12.019 -0.0640 -0.3727  0.3116
14726TIP3    H165593   5.800   1.608  12.030  0.3897  0.3484  1.1499
14726TIP3    H265594   5.882   1.526  11.931 -0.0007  2.5072 -1.0586
14727TIP3   OH265595   4.247   0.358  16.744  0.1096  0.4177 -0.1867
14727TIP3    H165596   4.310   0.350  16.816 -2.3717 -0.2610  2.0319
14727TIP3    H265597   4.249   0.451  16.721 -1.0259  1.2758  2.7581
14728TIP3   OH265598   2.314   1.086   2.403  0.0781  0.4941 -0.8449
14728TIP3    H165599   2.314   1.037   2.485 -1.7350  1.5659 -0.1430
14728TIP3    H265600   2.320   1.018   2.335  1.2458 -0.4315  0.1265
14729TIP3   OH265601   0.199   0.316  16.173 -0.1242  0.4691  0.1374
14729TIP3    H165602   0.277   0.337  16.122 -0.4760  0.6428 -0.3345
14729TIP3    H265603   0.196   0.385  16.240  1.6591 -1.0574  1.9566
14730TIP3   OH265604   6.101   1.932  17.103  0.2750  0.0355 -0.1492
14730TIP3    H165605   6.079   1.879  17.026 -1.4297  0.1209  0.2556
14730TIP3    H265606   6.042   1.900  17.172  0.4428  1.2743  0.5934
14731TIP3   OH265607   5.733   6.201   4.766 -0.4641 -0.5733 -0.2921
14731TIP3    H165608   5.699   6.182   4.853  0.9510  2.7165  1.1566
14731TIP3    H265609   5.816   6.153   4.761 -0.1365 -0.1181  0.5600
14732TIP3   OH265610   5.073   5.214  12.951 -0.4275  0.0703  0.1243
14732TIP3    H165611   5.007   5.248  13.012  0.4162  0.0119  1.1023
14732TIP3    H265612   5.091   5.287  12.892 -0.4348  0.5126  0.6589
14733TIP3   OH265613   2.744   4.715   5.194 -0.2238 -0.5414  0.3279
14733TIP3    H165614   2.787   4.775   5.132 -1.1925  0.3106  0.4551
14733TIP3    H265615   2.797   4.635   5.190 -0.0880 -0.4115 -1.3967
14734TIP3   OH265616   0.361   0.309   4.125  0.3731  0.5874  0.2900
14734TIP3    H165617   0.335   0.270   4.042  0.8234  0.4395  0.2182
14734TIP3    H265618   0.422   0.378   4.101  3.7155 -1.9996  0.6699
14735TIP3   OH265619   2.640   5.979  10.363  0.9234  0.0367 -0.2815
14735TIP3    H165620   2.724   5.940  10.388 -0.0073 -1.8408  0.1433
14735TIP3    H265621   2.575   5.911  10.382 -1.1304  2.4976  2.4375
14736TIP3   OH265622   1.504   1.287   5.401  0.5003  0.1199 -0.0493
14736TIP3    H165623   1.551   1.211   5.365  1.9302  1.3809 -0.9211
14736TIP3    H265624   1.421   1.250   5.432  1.5169 -1.9565  0.3927
14737TIP3   OH265625   6.690   2.811  15.366 -0.6383  0.1811 -0.2388
14737TIP3    H165626   6.729   2.883  15.417 -0.0851 -0.6814  0.5811
14737TIP3    H265627   6.607   2.793  15.409 -1.6336  1.4827 -1.5120
14738TIP3   OH265628   0.910   5.417   4.383 -0.1296 -0.0849  0.0477
14738TIP3    H165629   0.908   5.442   4.291 -2.1422 -0.0030  0.0614
14738TIP3    H265630   0.946   5.493   4.428 -0.9233  0.6278 -0.4928
14739TIP3   OH265631   0.179   5.329  13.560 -0.4371 -0.1556  0.1537
14739TIP3    H165632   0.092   5.296  13.539 -0.6737  0.4701  0.1213
14739TIP3    H265633   0.213   5.269  13.625 -0.8612 -0.4534  0.1015
14740TIP3   OH265634   3.017   3.740  14.391 -0.0072  0.3687  0.0066
14740TIP3    H165635   2.981   3.827  14.371  1.5559  0.9201 -0.5666
14740TIP3    H265636   3.109   3.746  14.365  0.8644 -0.5649  2.6019
14741TIP3   OH265637   0.034   2.295   3.781 -0.5871 -0.3778 -0.3182
14741TIP3    H165638  -0.013   2.372   3.751 -1.5749 -1.4922 -1.7802
14741TIP3    H265639   0.103   2.329   3.838 -1.8083  1.4576  0.1205
14742TIP3   OH265640   0.210   5.008  17.008 -0.0769  0.1909  0.1562
14742TIP3    H165641   0.287   5.052  16.972 -1.4837  1.7545 -1.1044
14742TIP3    H265642   0.177   4.954  16.936 -0.4699 -0.0673  0.5252
14743TIP3   OH265643   5.678   3.698  13.332  0.3146 -0.3048  0.5989
14743TIP3    H165644   5.601   3.749  13.307  0.8156 -0.4318 -1.3761
14743TIP3    H265645   5.716   3.746  13.405 -0.8936  0.4873  0.7293
14744TIP3   OH265646   3.364   2.398   1.264  0.1109 -0.1618 -0.3415
14744TIP3    H165647   3.379   2.407   1.170  0.9366  1.3857 -0.0972
14744TIP3    H265648   3.442   2.434   1.304 -1.1761  1.3507  0.9469
14745TIP3   OH265649   0.235   3.781  13.106  0.0587  0.1270 -0.1020
14745TIP3    H165650   0.150   3.795  13.065  0.0989 -2.1872 -1.1062
14745TIP3    H265651   0.291   3.849  13.069 -1.2782  1.6003  0.4777
14746TIP3   OH265652   6.637   2.103   0.469  0.1309  0.4145  0.1847
14746TIP3    H165653   6.585   2.112   0.548 -2.5624 -0.8244 -1.3219
14746TIP3    H265654   6.663   2.011   0.467  1.6388  0.7983  0.4028
14747TIP3   OH265655   2.288   3.232   5.915 -0.5126  0.1585  0.0703
14747TIP3    H165656   2.356   3.229   5.981  0.1323  1.0828 -0.5322
14747TIP3    H265657   2.239   3.312   5.934  1.2863  1.8885 -2.0637
14748TIP3   OH265658   5.452   5.378   3.688 -0.5965 -0.3430  0.6765
14748TIP3    H165659   5.397   5.367   3.765 -1.2089 -1.5564  0.0812
14748TIP3    H265660   5.501   5.458   3.705 -1.4633 -0.0478  1.8700
14749TIP3   OH265661   0.809   2.388   0.679  0.0126 -0.2431 -0.3882
14749TIP3    H165662   0.799   2.372   0.585  1.1788  1.6773 -0.8923
14749TIP3    H265663   0.720   2.403   0.711 -0.3618 -0.5807 -1.2379
14750TIP3   OH265664   3.771   0.617   0.527 -0.4283 -0.0657  0.5130
14750TIP3    H165665   3.731   0.645   0.610 -1.4510 -0.4161  0.1502
14750TIP3    H265666   3.757   0.692   0.468 -0.7538 -0.2766  0.3207
14751TIP3   OH265667   5.446   4.758   0.974 -0.0992  0.2750 -0.3853
14751TIP3    H165668   5.496   4.746   1.054 -0.1988  0.1225 -0.3461
14751TIP3    H265669   5.511   4.781   0.907  0.0931 -0.5114 -0.4736
14752TIP3   OH265670   2.787   5.654  15.421 -0.4725 -0.2434 -0.2180
14752TIP3    H165671   2.873   5.630  15.455 -0.0602  1.3978 -0.0280
14752TIP3    H265672   2.761   5.579  15.367  0.7779 -1.0355  0.2422
14753TIP3   OH265673   1.219   5.656   2.305 -0.8764  0.2654 -0.2511
14753TIP3    H165674   1.137   5.628   2.345 -0.0387 -3.4697 -0.7558
14753TIP3    H265675   1.287   5.628   2.367  0.1188  2.2477 -0.3655
14754TIP3   OH265676   5.794   5.795   1.538 -0.4345  0.1324  0.2159
14754TIP3    H165677   5.747   5.761   1.462 -2.3059 -1.0083  1.7827
14754TIP3    H265678   5.735   5.861   1.575 -0.1330 -0.2022  1.3436
14755TIP3   OH265679   0.529   4.233   5.655  0.1524 -0.5995 -0.3398
14755TIP3    H165680   0.537   4.328   5.642 -3.2934 -0.3137 -1.3851
14755TIP3    H265681   0.610   4.197   5.621  1.0496  1.8814 -1.0557
14756TIP3   OH265682   5.582   1.852   1.276  0.1034  0.2105 -0.3559
14756TIP3    H165683   5.492   1.875   1.254 -0.3919 -0.9429  0.4000
14756TIP3    H265684   5.634   1.886   1.203 -1.2659 -1.9009 -2.4329
14757TIP3   OH265685   6.753   0.997  17.184  0.3279  0.4244  0.3929
14757TIP3    H165686   6.824   1.046  17.227 -0.2283 -0.8376  2.9300
14757TIP3    H265687   6.674   1.024  17.231  0.0390 -3.0585  2.1744
14758TIP3   OH265688   4.063   5.698   3.309  0.5129 -0.2129 -0.2372
14758TIP3    H165689   4.112   5.631   3.358  2.6117  1.5906  0.3142
14758TIP3    H265690   3.998   5.729   3.372 -0.4818 -1.6597 -0.4946
14759TIP3   OH265691   4.303   2.744  13.965  0.0891  0.0655 -0.4302
14759TIP3    H165692   4.299   2.697  13.882 -0.8065 -0.7216  0.0279
14759TIP3    H265693   4.301   2.837  13.941  0.0615 -0.1526 -1.2894
14760TIP3   OH265694   0.585   1.270   2.031 -0.3375 -0.1222  0.0180
14760TIP3    H165695   0.559   1.311   2.113 -0.9901 -0.6035  0.0514
14760TIP3    H265696   0.537   1.188   2.028 -0.6174  0.0626 -1.0196
14761TIP3   OH265697   1.882   6.062   1.091  0.0310  0.3095 -0.7245
14761TIP3    H165698   1.927   6.071   1.175  0.8468  1.5954 -1.2761
14761TIP3    H265699   1.942   6.010   1.037 -0.7682 -1.0634 -0.3512
14762TIP3   OH265700   0.686   0.930  11.679 -0.5078 -0.1134  0.8134
14762TIP3    H165701   0.664   1.023  11.669 -0.7108 -0.2980 -0.7466
14762TIP3    H265702   0.705   0.900  11.590  1.4043 -1.1296  1.4950
14763TIP3   OH265703   4.278   1.575   5.479  0.4996 -0.5549  0.1941
14763TIP3    H165704   4.357   1.527   5.505 -0.0449 -0.6355  1.8160
14763TIP3    H265705   4.250   1.621   5.558  0.5623  1.8787 -1.1205
14764TIP3   OH265706   3.733   0.427  13.294  0.3257  0.6572 -0.1761
14764TIP3    H165707   3.812   0.374  13.281  0.1850  0.3077  0.3560
14764TIP3    H265708   3.661   0.373  13.262  0.4055  1.4218 -1.7042
14765TIP3   OH265709   3.867   4.344   3.288 -0.8809  0.0838 -0.3063
14765TIP3    H165710   3.773   4.330   3.280 -1.1500 -1.4200  3.5278
14765TIP3    H265711   3.876   4.436   3.314 -1.7089 -0.6166  2.7725
14766TIP3   OH265712   2.984   2.138   2.408  0.3085  0.1171  0.0776
14766TIP3    H165713   2.962   2.047   2.425  2.0406 -0.4241 -0.2731
14766TIP3    H265714   2.962   2.151   2.315 -0.9743  0.4098  0.4120
14767TIP3   OH265715   1.211   6.151   1.628 -0.8189 -0.1866  0.0581
14767TIP3    H165716   1.166   6.132   1.546 -0.8113  0.4485 -0.1017
14767TIP3    H265717   1.233   6.066   1.665 -1.6047 -0.4898 -0.1661
14768TIP3   OH265718   2.376   0.539   4.180 -0.2779 -0.2541  0.7375
14768TIP3    H165719   2.407   0.522   4.091 -3.0529 -1.6226 -0.0885
14768TIP3    H265720   2.329   0.622   4.174 -2.8826 -1.6637  0.1215
14769TIP3   OH265721   4.622   5.715  14.793 -0.1628  0.1452 -0.2192
14769TIP3    H165722   4.697   5.750  14.842 -0.9343  0.5061  0.7436
14769TIP3    H265723   4.614   5.773  14.717  0.1766  0.4662 -0.0159
14770TIP3   OH265724   2.772   6.030  11.638 -0.2758 -0.0705 -0.6504
14770TIP3    H165725   2.766   5.949  11.587 -1.1579  0.3255 -1.1941
14770TIP3    H265726   2.687   6.036  11.683  1.0875 -1.3618  2.3739
14771TIP3   OH265727   1.808   2.378  10.649  0.3757  0.1477 -0.4961
14771TIP3    H165728   1.762   2.306  10.607 -3.2607  0.6715  2.1488
14771TIP3    H265729   1.889   2.339  10.683  0.5872 -1.5614 -2.7370
14772TIP3   OH265730   4.966   6.217   5.752 -0.7481  0.4242  0.4480
14772TIP3    H165731   5.003   6.301   5.778  2.6127 -0.2900 -1.4648
14772TIP3    H265732   5.014   6.152   5.805  2.8607 -0.6905 -3.6547
14773TIP3   OH265733   1.485   5.880  16.929  0.1427 -0.3320 -0.6518
14773TIP3    H165734   1.555   5.917  16.983 -0.0963 -1.5885  0.5834
14773TIP3    H265735   1.426   5.839  16.992  0.6879 -3.3203 -1.9177
14774TIP3   OH265736   1.921   0.442   5.952 -0.1955  0.2544  0.7404
14774TIP3    H165737   1.971   0.512   5.993 -0.9450  0.5545  1.1480
14774TIP3    H265738   1.988   0.384   5.915  0.4665  2.5509 -2.0056
14775TIP3   OH265739   3.271   3.885  14.733  0.2325  0.8834  0.0152
14775TIP3    H165740   3.344   3.850  14.784  0.2349 -1.2923 -1.3472
14775TIP3    H265741   3.201   3.898  14.798  1.2276  1.2627  1.0441
14776TIP3   OH265742   2.900   0.791  12.964  0.1917 -0.1081  0.1828
14776TIP3    H165743   2.981   0.834  12.936  0.6418 -1.2001 -0.2271
14776TIP3    H265744   2.903   0.795  13.060 -0.7643  2.5492  0.1769
14777TIP3   OH265745   1.302   2.674  11.669  0.2267  0.1568 -0.2310
14777TIP3    H165746   1.374   2.619  11.639  0.2880  0.3527 -0.4398
14777TIP3    H265747   1.230   2.613  11.684  0.3900 -0.0192 -0.1644
14778TIP3   OH265748   2.762   4.887   0.688  0.3990  0.1268  0.1131
14778TIP3    H165749   2.692   4.949   0.708  0.8440  0.2179  1.4974
14778TIP3    H265750   2.826   4.938   0.637  1.4105  1.2632  2.3783
14779TIP3   OH265751   4.519   5.708   0.892  0.4887  0.0209  0.1833
14779TIP3    H165752   4.565   5.725   0.974 -1.0311 -0.0117  1.0855
14779TIP3    H265753   4.455   5.778   0.885  0.5125 -0.0443 -0.9392
14780TIP3   OH265754   4.257   3.265   2.952 -0.7153 -0.2762  0.4846
14780TIP3    H165755   4.198   3.323   2.903 -1.0192 -2.0669 -1.4385
14780TIP3    H265756   4.342   3.277   2.911 -0.4530 -0.1465  1.0556
14781TIP3   OH265757   1.022   2.448  12.827  0.2109 -0.7616 -0.4829
14781TIP3    H165758   0.984   2.445  12.915  2.6709  1.1618  0.7523
14781TIP3    H265759   1.018   2.357  12.797 -1.4676 -1.3211  1.2385
14782TIP3   OH265760   0.836   4.497  11.578  0.0597  0.5265 -0.4599
14782TIP3    H165761   0.786   4.511  11.497 -1.9948  3.1050  1.0884
14782TIP3    H265762   0.788   4.428  11.624  2.3339 -2.3705 -2.1204
14783TIP3   OH265763   3.643   1.193   1.220  0.2847  0.5077 -0.2268
14783TIP3    H165764   3.592   1.255   1.169 -1.9646 -1.2942 -0.3410
14783TIP3    H265765   3.577   1.138   1.263  2.1486 -0.9206  0.9546
14784TIP3   OH265766   6.308   3.902   2.097 -0.2220 -0.6850 -0.2361
14784TIP3    H165767   6.274   3.980   2.139 -0.8831 -0.6081 -0.9043
14784TIP3    H265768   6.266   3.900   2.011  0.1033 -1.5486 -0.3866
14785TIP3   OH265769   2.069   4.549  10.632  0.8630 -0.3420 -0.4413
14785TIP3    H165770   2.079   4.572  10.540  1.7681 -0.0329 -0.2729
14785TIP3    H265771   1.997   4.604  10.663  0.9414 -0.0272 -0.8204
14786TIP3   OH265772   6.334   2.265  12.768 -0.3166 -0.0365 -0.0260
14786TIP3    H165773   6.313   2.275  12.861 -0.2639 -0.4091  0.0271
14786TIP3    H265774   6.250   2.276  12.723 -0.8343 -2.3123  0.2345
14787TIP3   OH265775   2.780   5.546   4.457 -0.1998  0.1576  0.3099
14787TIP3    H165776   2.858   5.537   4.402 -0.2888 -1.3201  0.3844
14787TIP3    H265777   2.761   5.640   4.457  0.9075  0.4023 -0.6362
14788TIP3   OH265778   4.236   3.935  13.286 -0.4310 -0.5673  0.2125
14788TIP3    H165779   4.167   3.879  13.252  0.4414 -1.8425  0.4793
14788TIP3    H265780   4.210   3.955  13.376 -0.9706 -0.1291 -0.0293
14789TIP3   OH265781   4.418   3.067   2.398  0.2432  0.2821  0.5561
14789TIP3    H165782   4.450   2.985   2.436 -0.6195 -0.5392 -0.4233
14789TIP3    H265783   4.461   3.136   2.450  0.9974 -0.7748  1.3882
14790TIP3   OH265784   4.693   5.276   3.014  0.7896  0.5497  0.0129
14790TIP3    H165785   4.607   5.318   3.015  0.1185 -0.7585  0.3329
14790TIP3    H265786   4.741   5.318   3.086 -0.1880  0.1717  0.9257
14791TIP3   OH265787   4.919   3.511   6.151  0.1676  0.0041  0.0145
14791TIP3    H165788   4.968   3.592   6.141 -0.5489  0.4255 -0.2160
14791TIP3    H265789   4.836   3.528   6.106 -0.0241 -0.8278  0.0361
14792TIP3   OH265790   4.619   0.046  11.228 -0.1803 -0.2511 -0.4452
14792TIP3    H165791   4.709   0.051  11.197 -0.9594 -0.7650 -3.0370
14792TIP3    H265792   4.599  -0.048  11.225 -0.8375 -0.1286  0.0123
14793TIP3   OH265793   1.997   4.048  13.752 -0.1157  0.7314  0.1899
14793TIP3    H165794   2.079   4.077  13.794 -0.1632 -1.2590  1.7887
14793TIP3    H265795   1.931   4.108  13.787  0.2456  0.6633  1.0160
14794TIP3   OH265796   5.666   3.104  14.384 -0.1424 -0.6165  0.2418
14794TIP3    H165797   5.734   3.120  14.449 -0.5341  0.2845  0.4492
14794TIP3    H265798   5.713   3.089  14.303  0.3121  1.4505  0.0621
14795TIP3   OH265799   3.930   5.757  16.716 -0.0748  0.2173  0.2163
14795TIP3    H165800   3.982   5.750  16.636  0.0111 -0.2007  0.3019
14795TIP3    H265801   3.906   5.849  16.721 -2.4607 -0.1794 -1.8038
14796TIP3   OH265802   1.502   1.814  13.568 -0.2425  0.0241 -0.6111
14796TIP3    H165803   1.563   1.876  13.529  0.0346 -0.2416 -0.5999
14796TIP3    H265804   1.433   1.869  13.606 -0.3156  0.2981 -1.1310
14797TIP3   OH265805   6.572   0.708   1.653  0.1678  0.4517 -0.0963
14797TIP3    H165806   6.636   0.646   1.618  1.8300  2.0621 -0.1256
14797TIP3    H265807   6.523   0.659   1.718  0.5626 -1.2063 -0.9970
14798TIP3   OH265808   1.092   3.543   2.043 -0.1577  0.2728  0.0396
14798TIP3    H165809   1.151   3.470   2.021 -1.1686 -0.0766 -1.7114
14798TIP3    H265810   1.141   3.621   2.016 -0.2629  0.0179 -0.9299
14799TIP3   OH265811   0.318   6.219   0.018  0.4584 -0.0444  0.3420
14799TIP3    H165812   0.387   6.275   0.054  0.9118 -0.9250  0.8607
14799TIP3    H265813   0.358   6.176  -0.057  0.4877 -0.5674  0.6495
14800TIP3   OH265814   5.945   6.506   3.724  0.6094 -0.4872 -0.3044
14800TIP3    H165815   5.919   6.551   3.805  0.3749 -0.8579 -0.1706
14800TIP3    H265816   5.990   6.573   3.673 -0.8569  0.2716 -0.6616
14801TIP3   OH265817   2.847   1.297  13.911 -0.4075 -0.3439  0.1322
14801TIP3    H165818   2.825   1.305  13.819  0.7469  0.2817 -0.1089
14801TIP3    H265819   2.782   1.236  13.946 -1.3919  0.0897 -0.8902
14802TIP3   OH265820   3.119   0.619   2.006 -0.1759  0.3091  0.3809
14802TIP3    H165821   3.050   0.607   2.072  1.4599  0.0080  2.0921
14802TIP3    H265822   3.201   0.612   2.054  1.1013  2.8801 -1.2058
14803TIP3   OH265823   6.681   3.464   5.070 -0.0925  0.1425 -0.2809
14803TIP3    H165824   6.717   3.460   5.158  0.1261 -1.8033 -0.4175
14803TIP3    H265825   6.590   3.492   5.082  0.3703  1.4681  0.3753
14804TIP3   OH265826   6.219   4.471  11.396  0.7736 -0.2408  0.0066
14804TIP3    H165827   6.283   4.459  11.466  0.6029 -0.2290  0.1634
14804TIP3    H265828   6.171   4.388  11.393  0.2856  0.0204  0.4004
14805TIP3   OH265829   6.381   6.191  14.599  0.5827 -0.3293  0.1095
14805TIP3    H165830   6.399   6.271  14.649  1.9097  0.2654 -1.2408
14805TIP3    H265831   6.357   6.223  14.512  0.4439 -1.3849 -0.2461
14806TIP3   OH265832   2.170   3.952  11.959 -0.8068  0.4985 -0.1199
14806TIP3    H165833   2.185   4.022  12.022  1.0150 -0.7949  1.0087
14806TIP3    H265834   2.080   3.924  11.974 -0.4412  0.2928  1.8789
14807TIP3   OH265835   2.951   4.430   3.429  0.1185  0.3212 -0.1067
14807TIP3    H165836   2.988   4.342   3.434  0.5565  0.3870 -1.5521
14807TIP3    H265837   2.856   4.417   3.436  0.2538 -0.0839  1.2782
14808TIP3   OH265838   3.888   4.378   2.608  0.1596  0.1618  0.0039
14808TIP3    H165839   3.915   4.470   2.607 -3.2565  1.3267 -0.0898
14808TIP3    H265840   3.932   4.341   2.685  1.6208  1.8373  0.0355
14809TIP3   OH265841   4.861   6.244  15.299 -0.8915 -0.5587  0.4405
14809TIP3    H165842   4.770   6.274  15.302 -0.6054  0.3700  0.4304
14809TIP3    H265843   4.899   6.274  15.381 -0.4070 -0.2688  0.1186
14810TIP3   OH265844   0.948   4.146  10.882  0.6000 -0.5456  0.1528
14810TIP3    H165845   0.974   4.057  10.857 -0.7814 -1.0192  0.2891
14810TIP3    H265846   0.888   4.174  10.813  0.6661  0.0977  0.3512
14811TIP3   OH265847   4.687   3.610   1.469  0.3739  0.5679 -0.6413
14811TIP3    H165848   4.700   3.537   1.529  2.4093  0.4552 -1.1353
14811TIP3    H265849   4.738   3.682   1.507  0.2921  1.0135 -1.3487
14812TIP3   OH265850   1.915   2.889   2.634 -0.1209 -0.2931  0.3136
14812TIP3    H165851   2.004   2.926   2.633 -0.1445 -0.2408 -0.4670
14812TIP3    H265852   1.922   2.811   2.689  0.4131 -0.2804  0.2686
14813TIP3   OH265853   3.321   4.341   2.708  0.0034  0.7187 -0.1015
14813TIP3    H165854   3.231   4.319   2.731  0.3806 -0.8670 -0.0569
14813TIP3    H265855   3.374   4.306   2.780  0.7254  0.9458 -0.5073
14814TIP3   OH265856   5.035   1.645  15.839  0.4437  0.6885  0.7484
14814TIP3    H165857   5.079   1.724  15.807 -1.5290  1.1120 -1.1335
14814TIP3    H265858   4.954   1.677  15.878 -0.0165 -0.3578  0.6888
14815TIP3   OH265859   1.258   2.794  11.901  0.2163 -0.0440  0.5099
14815TIP3    H165860   1.197   2.863  11.873 -0.7517  0.2174  3.0305
14815TIP3    H265861   1.285   2.752  11.819 -2.9516  0.1672 -0.7935
14816TIP3   OH265862   6.317   0.083  11.502 -0.4903  0.2269  0.2199
14816TIP3    H165863   6.377   0.039  11.441 -0.7746  1.2430 -0.8170
14816TIP3    H265864   6.331   0.037  11.585 -1.1477 -2.1877 -0.9003
14817TIP3   OH265865   0.014   1.615   5.225 -0.0460  0.3353 -0.6621
14817TIP3    H165866  -0.024   1.585   5.307 -1.6032  2.6275 -0.4549
14817TIP3    H265867   0.080   1.548   5.203 -1.1869 -1.5326  1.2164
14818TIP3   OH265868   1.186   5.585  14.741  0.8546  0.2917 -1.0214
14818TIP3    H165869   1.104   5.565  14.697  0.9457 -1.0273 -0.6430
14818TIP3    H265870   1.171   5.559  14.832  1.7378 -0.0940 -0.9809
14819TIP3   OH265871   6.237   0.395   3.962 -0.0439  0.5273 -0.0154
14819TIP3    H165872   6.187   0.315   3.947 -1.5567  1.6661 -1.3523
14819TIP3    H265873   6.323   0.376   3.923  0.1386 -0.9216  0.9835
14820TIP3   OH265874   2.772   4.835   0.268 -0.3168 -0.1617  0.5888
14820TIP3    H165875   2.746   4.882   0.347 -0.3324 -0.9932  1.0827
14820TIP3    H265876   2.866   4.852   0.259 -0.2784 -0.2184  0.8869
14821TIP3   OH265877   5.424   0.604  14.337  0.2353 -0.0507 -0.0802
14821TIP3    H165878   5.494   0.579  14.276  1.6868  0.1774  1.4290
14821TIP3    H265879   5.358   0.536  14.325  0.0022  0.4984 -2.5687
14822TIP3   OH265880   5.735   0.811  11.291 -0.4586  0.7509  0.2126
14822TIP3    H165881   5.794   0.880  11.262  1.6498 -1.6697 -1.7228
14822TIP3    H265882   5.668   0.807  11.223  0.1279  0.1158 -0.3414
14823TIP3   OH265883   0.256   1.624   0.124  0.0953 -0.5157  0.3088
14823TIP3    H165884   0.283   1.674   0.048  0.3106  0.3565  0.9406
14823TIP3    H265885   0.212   1.687   0.181 -0.2552 -1.1917  0.8070
14824TIP3   OH265886   1.059   3.696  11.955 -0.1122 -0.4702 -0.4560
14824TIP3    H165887   1.124   3.735  12.014 -1.3977  1.6307 -0.3131
14824TIP3    H265888   1.005   3.770  11.927 -2.8056 -2.1644 -0.1240
14825TIP3   OH265889   6.695   3.458   1.612  0.5750 -0.1762 -0.2455
14825TIP3    H165890   6.614   3.509   1.619  0.1990 -0.8342  0.4341
14825TIP3    H265891   6.762   3.522   1.591  0.0320  0.5278  0.1064
14826TIP3   OH265892   4.032   5.583  14.959 -0.3396  0.3436  0.2191
14826TIP3    H165893   4.044   5.659  14.903 -2.4025  1.6626  1.4320
14826TIP3    H265894   3.996   5.619  15.040 -0.8689 -1.8767  1.0360
14827TIP3   OH265895   2.561   6.698  15.125  0.2125  0.1111  0.3947
14827TIP3    H165896   2.579   6.637  15.054  0.5731  0.5196  0.1311
14827TIP3    H265897   2.579   6.648  15.205  0.7969 -0.0373  0.1749
14828TIP3   OH265898   0.457   1.052   4.613  0.2832 -0.6747 -0.1626
14828TIP3    H165899   0.489   1.128   4.564  0.9347 -0.5733  0.4099
14828TIP3    H265900   0.369   1.037   4.578 -0.1558  0.8166  0.2537
14829TIP3   OH265901   6.558   0.730   3.358 -0.2131 -1.1540 -0.1747
14829TIP3    H165902   6.534   0.809   3.407 -1.2127 -1.1634 -0.6221
14829TIP3    H265903   6.646   0.708   3.389 -0.7044 -1.0070  1.4290
14830TIP3   OH265904   5.599   2.650   0.974  0.0674 -0.1995 -0.3743
14830TIP3    H165905   5.584   2.587   0.904  0.3665  0.9143 -1.4617
14830TIP3    H265906   5.649   2.720   0.934 -1.0842  1.2181  0.5468
14831TIP3   OH265907   4.928   0.869   0.584  0.4505  0.4492 -1.1141
14831TIP3    H165908   4.995   0.937   0.596  0.3011  0.6980 -1.6462
14831TIP3    H265909   4.846   0.912   0.610 -0.1930  1.6462 -4.6272
14832TIP3   OH265910   6.217   0.526  13.382  0.6144 -0.6721 -0.0457
14832TIP3    H165911   6.278   0.600  13.372  0.6362 -0.7749 -0.7084
14832TIP3    H265912   6.272   0.453  13.409  0.9379 -0.9892 -1.4945
14833TIP3   OH265913   1.391   6.273  11.357  0.9189 -0.1427 -0.4461
14833TIP3    H165914   1.327   6.206  11.334  0.5856  0.0712 -0.1443
14833TIP3    H265915   1.343   6.356  11.350  0.9863 -0.0298  0.3885
14834TIP3   OH265916   2.042   6.361  16.750  0.5778  0.4894  0.3645
14834TIP3    H165917   2.090   6.390  16.827  1.0531  0.9814 -0.1074
14834TIP3    H265918   1.952   6.391  16.764  0.7592  0.9630  0.5275
14835TIP3   OH265919   6.249   1.104   3.888  0.0189  0.3700 -0.4748
14835TIP3    H165920   6.195   1.178   3.859 -0.3216 -0.4902 -2.1983
14835TIP3    H265921   6.262   1.053   3.808 -0.2189 -1.7447  0.7918
14836TIP3   OH265922   5.961   0.645   3.072  0.3475  0.0794  0.1854
14836TIP3    H165923   6.051   0.626   3.043  0.2681  0.8824 -0.6442
14836TIP3    H265924   5.971   0.714   3.138  0.4401 -0.8820  1.1879
14837TIP3   OH265925   1.977   2.881   1.934  0.2940 -0.5220 -0.6373
14837TIP3    H165926   1.902   2.887   1.874  0.5702  1.7291 -0.8522
14837TIP3    H265927   1.963   2.953   1.996  1.7855 -0.6750 -0.0979
14838TIP3   OH265928   0.014   6.446  11.614  0.5395  0.3105 -0.0716
14838TIP3    H165929   0.046   6.511  11.552  1.1552  1.1269  1.0484
14838TIP3    H265930  -0.071   6.420  11.580  0.7562  0.9225 -1.1183
14839TIP3   OH265931   4.607   1.894   3.562  0.3225 -0.4734 -0.1547
14839TIP3    H165932   4.593   1.978   3.604  0.0138 -0.2154 -0.7698
14839TIP3    H265933   4.648   1.915   3.478 -0.2716 -0.8935 -0.5543
14840TIP3   OH265934   2.932   2.178  17.104  0.1345 -0.0305  0.0827
14840TIP3    H165935   2.884   2.206  17.182  1.7558  0.4486  0.9443
14840TIP3    H265936   2.983   2.102  17.133 -0.3089 -0.7295 -0.9045
14841TIP3   OH265937   4.998   2.936  11.977 -0.1298 -0.3771 -0.6900
14841TIP3    H165938   5.050   2.967  11.903  1.0581 -0.8539 -0.0767
14841TIP3    H265939   4.923   2.892  11.937 -0.6911  1.2780 -1.5895
14842TIP3   OH265940   0.797   2.879  11.495 -0.2390  0.3730 -0.2099
14842TIP3    H165941   0.837   2.867  11.409  1.0653  0.2350  0.3939
14842TIP3    H265942   0.757   2.794  11.515  0.5403  0.0149 -0.1497
14843TIP3   OH265943   4.829   5.538  16.183  0.1953 -0.2130  0.7389
14843TIP3    H165944   4.912   5.523  16.138  0.4362 -2.3362  1.7667
14843TIP3    H265945   4.779   5.594  16.123  2.9239  2.5621  0.8269
14844TIP3   OH265946   4.436   0.340  14.680  0.3125 -0.4079  0.2942
14844TIP3    H165947   4.349   0.310  14.656  0.8760 -1.1148 -0.9916
14844TIP3    H265948   4.421   0.412  14.741 -1.1350 -1.5097  1.3035
14845TIP3   OH265949   4.758   0.713  14.052 -0.2270  0.2958 -0.2679
14845TIP3    H165950   4.740   0.688  14.142 -0.6199  1.7001  0.0671
14845TIP3    H265951   4.853   0.699  14.042  0.0874  1.4774  0.8277
14846TIP3   OH265952   1.054   2.606  15.714  0.2870  0.0391 -0.4344
14846TIP3    H165953   1.021   2.663  15.784 -0.6281 -0.8813 -0.0878
14846TIP3    H265954   1.081   2.526  15.759  0.0485 -0.4185 -1.0857
14847TIP3   OH265955   5.987   0.813   2.404  0.4496 -0.3933 -0.0341
14847TIP3    H165956   6.051   0.882   2.421  1.1384 -1.4225  1.8719
14847TIP3    H265957   6.036   0.744   2.360 -0.5741  0.8209 -3.4153
14848TIP3   OH265958   5.990   3.419   4.388  0.2733  0.5043 -0.0094
14848TIP3    H165959   5.904   3.380   4.404  0.3163  0.1282 -0.6659
14848TIP3    H265960   5.981   3.510   4.416  0.0831  0.1112  1.2581
14849TIP3   OH265961   0.163   5.081  17.265  0.3376 -0.2563  0.2638
14849TIP3    H165962   0.075   5.046  17.278 -1.2299  3.2037  0.0122
14849TIP3    H265963   0.176   5.077  17.170  0.5560 -0.9247  0.3149
14850TIP3   OH265964   5.243   6.315  13.974 -0.6326  0.2885 -0.2097
14850TIP3    H165965   5.174   6.377  13.949 -0.7986  0.2840  0.2281
14850TIP3    H265966   5.231   6.303  14.068 -0.5167 -0.3144 -0.2721
14851TIP3   OH265967   0.258   2.518   3.581 -0.3770 -0.4108  0.2044
14851TIP3    H165968   0.279   2.447   3.641  0.6446 -0.9630 -0.7607
14851TIP3    H265969   0.184   2.486   3.529  0.4301 -1.0227 -0.6011
14852TIP3   OH265970   0.798   6.228  12.097  0.0764 -0.1143  0.3446
14852TIP3    H165971   0.747   6.201  12.021  1.5189 -1.4282 -0.2139
14852TIP3    H265972   0.864   6.159  12.108 -0.0736  0.0256  2.8054
14853TIP3   OH265973   1.990   6.524   3.135 -0.6947  0.4943 -0.1753
14853TIP3    H165974   1.930   6.452   3.116  0.1994 -0.1667 -0.6164
14853TIP3    H265975   2.077   6.488   3.115  0.2340  0.2871  3.5490
14854TIP3   OH265976   4.419   3.807  10.746 -0.4982 -0.3098 -0.1962
14854TIP3    H165977   4.330   3.776  10.731 -0.9315 -0.3509  2.0704
14854TIP3    H265978   4.409   3.890  10.793  0.6076 -0.9545  1.2773
14855TIP3   OH265979   1.037   6.133   1.417 -0.1845  0.0692  0.0767
14855TIP3    H165980   1.002   6.210   1.460 -1.2808 -0.9315  1.0645
14855TIP3    H265981   0.972   6.112   1.349  0.1614  0.0669 -0.2608
14856TIP3   OH265982   2.729   4.485   1.369 -0.2101 -0.3039  0.5898
14856TIP3    H165983   2.685   4.566   1.348  1.6451  1.0827  1.7046
14856TIP3    H265984   2.778   4.462   1.290 -0.4915 -0.1730  0.3788
14857TIP3   OH265985   1.861   4.680  10.758 -0.2357 -0.3683  0.1864
14857TIP3    H165986   1.813   4.692  10.676  0.9382  0.8079 -0.3556
14857TIP3    H265987   1.797   4.641  10.818 -1.3890 -0.3406 -0.9920
14858TIP3   OH265988   1.264   0.852   5.944 -0.1968  0.2123  0.3572
14858TIP3    H165989   1.266   0.835   6.038  1.3210 -1.4252  0.0822
14858TIP3    H265990   1.347   0.818   5.911 -0.8343  0.4181 -1.6337
14859TIP3   OH265991   1.766   1.171  11.257 -0.0877 -0.2170 -0.0960
14859TIP3    H165992   1.778   1.245  11.198  3.8858 -0.5192  0.0869
14859TIP3    H265993   1.702   1.115  11.213 -1.9913  2.4460 -1.0000
14860TIP3   OH265994   6.624   6.172   5.636 -0.3179 -0.0598  0.3419
14860TIP3    H165995   6.622   6.094   5.693 -2.3425  0.2775  0.8104
14860TIP3    H265996   6.567   6.235   5.680 -0.1559  1.0355 -0.9572
14861TIP3   OH265997   1.854   6.111  12.484  0.9591  0.1823  0.3799
14861TIP3    H165998   1.810   6.078  12.406 -0.7011  2.0763  0.4420
14861TIP3    H265999   1.946   6.086  12.472  0.7516  0.3874 -2.1939
14862TIP3   OH266000   4.799   2.014  15.456 -0.5136 -1.0628 -0.3500
14862TIP3    H166001   4.727   2.056  15.408 -1.4014 -2.4518 -0.3041
14862TIP3    H266002   4.755   1.967  15.527  0.8051  1.6671  2.5300
14863TIP3   OH266003   1.464   3.405  16.122 -0.0023  0.5106 -0.6370
14863TIP3    H166004   1.499   3.327  16.164  1.2039  1.0014 -0.6960
14863TIP3    H266005   1.535   3.436  16.066 -1.1308  0.5845 -2.0875
14864TIP3   OH266006   4.861   4.815  12.922  0.3991  0.2123  0.1248
14864TIP3    H166007   4.774   4.797  12.885  0.3830  0.6294 -0.0402
14864TIP3    H266008   4.894   4.889  12.872  0.5047  0.5821  0.7352
14865TIP3   OH266009   3.327   1.213   6.590 -0.0550  0.0292  0.3071
14865TIP3    H166010   3.310   1.120   6.581 -4.4108  0.7850 -3.2182
14865TIP3    H266011   3.365   1.239   6.506  0.5595  1.5668  1.0063
14866TIP3   OH266012   3.923   6.388  14.116 -0.2438  0.7090 -0.3766
14866TIP3    H166013   4.001   6.355  14.160  0.6884  0.1761 -2.2938
14866TIP3    H266014   3.851   6.368  14.175  1.0568  1.2413  1.4598
14867TIP3   OH266015   2.243   6.730  11.339  0.3140  0.4933 -0.0615
14867TIP3    H166016   2.287   6.784  11.405  0.3882  2.1081 -1.3463
14867TIP3    H266017   2.307   6.722  11.269 -0.3416  0.2434 -0.6405
14868TIP3   OH266018   4.186   5.130   5.170 -0.2617 -0.3937  0.5414
14868TIP3    H166019   4.096   5.146   5.199 -0.6569  0.0242 -0.8484
14868TIP3    H266020   4.223   5.217   5.154 -0.5591 -0.6036 -1.5835
14869TIP3   OH266021   2.496   2.180  11.647  0.7286 -0.4516  0.4261
14869TIP3    H166022   2.584   2.214  11.628  0.6350 -0.3282  0.2116
14869TIP3    H266023   2.479   2.206  11.737  2.4080 -3.5669  1.8102
14870TIP3   OH266024   2.191   3.443   1.254 -0.1945 -0.2853  0.3410
14870TIP3    H166025   2.244   3.379   1.207 -0.1974 -1.8706  2.3621
14870TIP3    H266026   2.249   3.480   1.319 -0.6386  0.5894  0.2522
14871TIP3   OH266027   6.667   0.086   5.195 -0.5707 -0.4431 -1.0839
14871TIP3    H166028   6.760   0.062   5.197 -0.5150 -0.1918 -0.7048
14871TIP3    H266029   6.656   0.126   5.109 -0.0844  0.4802 -0.7314
14872TIP3   OH266030   0.351   1.879  13.330 -0.0360 -0.3901  0.0862
14872TIP3    H166031   0.330   1.826  13.407  0.3428 -0.5933  0.0499
14872TIP3    H266032   0.444   1.897  13.338 -0.1545  0.2564  0.0845
14873TIP3   OH266033   4.899   0.086   1.391 -0.2799  0.1483 -0.1482
14873TIP3    H166034   4.898   0.024   1.465  0.5016  0.0714 -0.1881
14873TIP3    H266035   4.948   0.040   1.323 -1.3350  0.0668 -0.8672
14874TIP3   OH266036   4.683   0.284   2.573 -0.2739  0.5865  0.4794
14874TIP3    H166037   4.674   0.350   2.641 -1.9722  0.4418  0.4420
14874TIP3    H266038   4.616   0.307   2.508  0.4373 -0.0263 -0.5053
14875TIP3   OH266039   2.634   5.763   4.014 -0.1209 -0.2613 -0.1162
14875TIP3    H166040   2.641   5.736   4.106 -0.1663  0.5299  0.1246
14875TIP3    H266041   2.588   5.691   3.972  0.6939 -1.0442  0.2977
14876TIP3   OH266042   0.095   5.654   3.830 -0.3609 -0.0459  0.4589
14876TIP3    H166043   0.132   5.573   3.866 -1.1629 -0.5591  0.1432
14876TIP3    H266044   0.011   5.628   3.793 -0.6351  0.9388  0.3637
14877TIP3   OH266045   3.515   5.494  16.232  0.4203  0.7241  0.3982
14877TIP3    H166046   3.548   5.437  16.302  0.1011 -0.7759 -0.6175
14877TIP3    H266047   3.448   5.547  16.274 -1.0145 -1.3563  0.9354
14878TIP3   OH266048   4.496   0.570  13.373 -0.1894  0.8795  0.1204
14878TIP3    H166049   4.557   0.645  13.372 -0.1939  0.9428 -2.2686
14878TIP3    H266050   4.551   0.496  13.347 -0.9152  0.7987 -1.2860
14879TIP3   OH266051   0.323   3.102  16.637  0.0423  0.2223  0.1869
14879TIP3    H166052   0.335   3.152  16.718 -1.9048  2.4642 -0.7695
14879TIP3    H266053   0.382   3.143  16.574  1.4746 -1.4452  0.3614
14880TIP3   OH266054   4.568   4.723   4.535  0.1579  0.2521  0.3275
14880TIP3    H166055   4.597   4.797   4.481 -0.1240  0.1086 -0.0221
14880TIP3    H266056   4.525   4.664   4.473 -1.9563  1.0021  1.0046
14881TIP3   OH266057   1.755   1.822   4.310 -0.0056  0.2250 -0.6024
14881TIP3    H166058   1.835   1.872   4.328 -0.9488  2.1306 -1.4332
14881TIP3    H266059   1.704   1.878   4.253 -2.0847 -0.8378  0.1131
14882TIP3   OH266060   1.510   2.105  13.447 -0.1745 -0.3419 -0.1830
14882TIP3    H166061   1.503   2.192  13.486  1.6157 -1.3842  2.8618
14882TIP3    H266062   1.435   2.099  13.387 -1.2273  2.6998  0.6464
14883TIP3   OH266063   3.719   4.041  10.712  0.5488 -0.4182 -0.2816
14883TIP3    H166064   3.741   4.119  10.765  1.4891 -1.0505  0.2894
14883TIP3    H266065   3.796   3.985  10.720 -0.1558 -1.4488 -0.6255
14884TIP3   OH266066   2.774   2.027   3.189 -0.2656  0.4215  0.0450
14884TIP3    H166067   2.868   2.024   3.174  0.1320 -0.2244  2.2636
14884TIP3    H266068   2.745   1.937   3.171 -0.2653  0.3540  0.3763
14885TIP3   OH266069   1.427   2.334  15.854 -0.4502  0.5047 -0.6717
14885TIP3    H166070   1.498   2.396  15.870 -1.1725  1.2849 -0.4134
14885TIP3    H266071   1.347   2.386  15.865 -1.1430 -0.8716  1.4177
14886TIP3   OH266072   5.367   1.121  16.248 -0.5666 -0.4839  0.6453
14886TIP3    H166073   5.358   1.102  16.341 -0.8760 -0.0419  0.7096
14886TIP3    H266074   5.461   1.131  16.234 -0.6275  1.3528  1.3043
14887TIP3   OH266075   4.205   2.711   0.182  0.5390  0.6601  0.4701
14887TIP3    H166076   4.235   2.782   0.126  0.8029 -0.1836 -0.4883
14887TIP3    H266077   4.279   2.695   0.242  0.1963  1.6651  1.1749
14888TIP3   OH266078   5.990   2.014  13.540 -0.9197 -0.0520 -0.3976
14888TIP3    H166079   6.085   2.012  13.529 -0.9282 -0.3921 -0.4429
14888TIP3    H266080   5.975   1.974  13.626 -1.0791 -1.0106 -0.8545
14889TIP3   OH266081   4.930   3.316   0.667 -0.1791 -0.1973  0.3420
14889TIP3    H166082   4.910   3.386   0.604  0.1610  0.6399  1.1308
14889TIP3    H266083   5.025   3.304   0.659  0.1358  1.0009  1.7292
14890TIP3   OH266084   2.028   2.890  14.617  0.3578  0.5846  0.3648
14890TIP3    H166085   2.053   2.798  14.621  1.7602  0.7129 -2.7018
14890TIP3    H266086   2.106   2.937  14.645  0.2550  0.8607  0.1917
14891TIP3   OH266087   3.264   2.101   3.450  0.4047 -0.3538  0.5808
14891TIP3    H166088   3.358   2.116   3.462  0.1792  1.8698  0.0138
14891TIP3    H266089   3.227   2.188   3.441 -1.1988 -1.2434 -3.0881
14892TIP3   OH266090   2.386   6.252   0.558 -0.2339  0.3269  0.0059
14892TIP3    H166091   2.420   6.183   0.614 -1.7308 -0.6938 -0.2790
14892TIP3    H266092   2.295   6.226   0.541 -0.1867  1.2346 -1.8812
14893TIP3   OH266093   2.214   3.352  12.278 -0.3553 -0.3648  0.5436
14893TIP3    H166094   2.269   3.325  12.204  1.1390 -1.0356  1.8400
14893TIP3    H266095   2.266   3.417  12.324 -1.8056  1.0108  0.3416
14894TIP3   OH266096   6.425   0.726   5.499 -0.7915  0.5708  0.0426
14894TIP3    H166097   6.344   0.777   5.499 -0.4180  1.1821 -0.5053
14894TIP3    H266098   6.474   0.758   5.423  1.5009  2.6816  2.2101
14895TIP3   OH266099   1.733   0.415   1.068 -0.4819  0.2245 -0.0247
14895TIP3    H166100   1.802   0.481   1.080  2.3825 -2.2240 -1.5916
14895TIP3    H266101   1.747   0.382   0.979 -2.0722 -2.1388  0.5106
14896TIP3   OH266102   5.816   6.316  16.020  0.0345  0.4636  0.5541
14896TIP3    H166103   5.773   6.249  15.966 -0.1281  1.7783 -1.0362
14896TIP3    H266104   5.753   6.388  16.023  1.8137  2.2711 -1.4812
14897TIP3   OH266105   2.357   5.988   3.877 -0.2140 -0.4418 -0.4387
14897TIP3    H166106   2.448   5.959   3.883  0.5886  1.5622 -1.7532
14897TIP3    H266107   2.346   6.048   3.951  0.1795  0.7590 -1.3077
14898TIP3   OH266108   4.712   6.160  16.336 -0.0603 -0.4533 -0.5758
14898TIP3    H166109   4.665   6.095  16.284  1.6331  0.4061 -3.3824
14898TIP3    H266110   4.794   6.118  16.360 -0.1952 -0.3203  0.1609
14899TIP3   OH266111   1.153   4.526   2.079 -0.1274 -0.1647 -0.3537
14899TIP3    H166112   1.059   4.528   2.099 -0.1151  1.3182 -0.3705
14899TIP3    H266113   1.164   4.448   2.024 -1.0272 -1.3754  1.0905
14900TIP3   OH266114   3.298   3.803   2.473 -0.4721 -0.4180  0.2256
14900TIP3    H166115   3.388   3.772   2.480  0.0707  1.3312  2.2556
14900TIP3    H266116   3.261   3.756   2.398  1.4665 -2.7400  0.6258
14901TIP3   OH266117   0.863   3.392  14.093  0.4069  0.3155 -0.0233
14901TIP3    H166118   0.816   3.371  14.012 -0.4893  1.3711  0.1924
14901TIP3    H266119   0.868   3.488  14.092  1.9722  0.2591  0.3018
14902TIP3   OH266120   0.998   2.032   3.248  0.0261  0.4292 -0.2583
14902TIP3    H166121   1.061   2.009   3.180  1.8596 -1.3277  1.8791
14902TIP3    H266122   1.020   2.122   3.272  0.3597  0.5211 -0.8888
14903TIP3   OH266123   1.953   4.410   0.859 -0.1193  0.4130 -0.4612
14903TIP3    H166124   2.018   4.398   0.789  0.9714  1.1315  0.3891
14903TIP3    H266125   1.874   4.439   0.813  0.4886  0.6068 -1.4299
14904TIP3   OH266126   1.589   6.500   3.572 -0.1442 -0.2027  0.1406
14904TIP3    H166127   1.596   6.580   3.519  1.1347  0.1812  0.8502
14904TIP3    H266128   1.567   6.530   3.660  2.9864 -0.3342  1.0675
14905TIP3   OH266129   6.067   4.916  12.038 -0.0392 -0.1408 -0.6502
14905TIP3    H166130   6.092   4.985  12.099 -1.3806  0.0388 -0.2683
14905TIP3    H266131   6.125   4.843  12.059  0.7747  0.5482 -0.4454
14906TIP3   OH266132   5.785   6.370   2.952 -0.3390  0.1802  0.0703
14906TIP3    H166133   5.831   6.290   2.976 -1.9359 -0.4973  0.9901
14906TIP3    H266134   5.842   6.441   2.981  1.1812 -0.5863 -0.9235
14907TIP3   OH266135   5.208   3.330   3.571  0.3057 -0.0688 -0.3430
14907TIP3    H166136   5.218   3.237   3.591  0.2297 -0.1316 -0.5918
14907TIP3    H266137   5.265   3.374   3.633  0.0864 -0.2624 -0.0016
14908TIP3   OH266138   0.489   5.539  15.597  0.0860 -0.4056  0.1010
14908TIP3    H166139   0.485   5.462  15.654 -2.5776  0.0714  0.6606
14908TIP3    H266140   0.550   5.514  15.528  1.8294 -1.7788  2.0021
14909TIP3   OH266141   4.378   5.645   2.140  0.3299  0.0149  0.5172
14909TIP3    H166142   4.376   5.639   2.044  0.3926  0.7227  0.4670
14909TIP3    H266143   4.401   5.557   2.169 -2.1755 -0.9177 -0.0119
14910TIP3   OH266144   4.084   6.591  16.908 -0.1585  0.4060 -0.7132
14910TIP3    H166145   4.072   6.627  16.996 -0.3364 -0.8707 -0.1897
14910TIP3    H266146   3.999   6.551  16.888  0.8152 -2.1051 -0.1190
14911TIP3   OH266147   0.871   6.272  17.076  0.6302 -0.1387  0.0023
14911TIP3    H166148   0.849   6.344  17.135 -0.8365 -0.6440  0.1035
14911TIP3    H266149   0.852   6.306  16.988 -1.3666 -0.7974  0.1293
14912TIP3   OH266150   5.748   6.028   1.702 -0.0989  0.2622 -0.0316
14912TIP3    H166151   5.821   6.017   1.762  0.1709  1.6693 -0.0821
14912TIP3    H266152   5.671   6.038   1.758  0.1498  1.5561  0.0966
14913TIP3   OH266153   2.559   3.805   2.198 -0.1479  0.1525  0.3875
14913TIP3    H166154   2.485   3.751   2.226 -0.1563 -0.2686 -0.4016
14913TIP3    H266155   2.585   3.767   2.114 -1.1093  2.2666 -0.9585
14914TIP3   OH266156   3.050   0.423  16.606  0.2622  0.1140  0.3499
14914TIP3    H166157   3.144   0.414  16.591  0.0920  0.6704 -1.2198
14914TIP3    H266158   3.011   0.424  16.519 -1.1364  0.6968  0.9392
14915TIP3   OH266159   2.088   3.785   0.943 -0.0391 -0.1130  0.1107
14915TIP3    H166160   2.152   3.795   1.013 -0.6628 -2.1245  1.0358
14915TIP3    H266161   2.083   3.691   0.927 -0.5294  0.2118 -2.0891
14916TIP3   OH266162   3.188   5.142   5.923 -0.0608  0.5904  0.6706
14916TIP3    H166163   3.135   5.220   5.939  1.5406  1.4697  1.9980
14916TIP3    H266164   3.132   5.069   5.951 -1.2778  1.2970  0.1747
14917TIP3   OH266165   3.278   1.940  12.233  0.1601  0.0903  0.7919
14917TIP3    H166166   3.216   1.889  12.285  0.0120  0.0946  0.6219
14917TIP3    H266167   3.364   1.903  12.253 -0.1035 -1.4484 -0.7330
14918TIP3   OH266168   5.523   4.905   0.034 -0.1045 -0.1327  0.3515
14918TIP3    H166169   5.572   4.984   0.059  0.9965 -0.1644 -1.5541
14918TIP3    H266170   5.572   4.868  -0.039  0.2863 -3.4879  2.1142
14919TIP3   OH266171   2.111   3.812  11.086 -0.0677  0.2476 -0.2799
14919TIP3    H166172   2.039   3.819  11.149  0.3009 -1.3202  0.3792
14919TIP3    H266173   2.073   3.839  11.003 -1.3594 -0.2910  0.1074
14920TIP3   OH266174   5.652   3.151  16.818 -0.2925 -0.0822  0.5514
14920TIP3    H166175   5.576   3.185  16.771 -0.8080 -1.1529  0.5997
14920TIP3    H266176   5.651   3.198  16.901 -1.9554 -1.3327  1.3009
14921TIP3   OH266177   4.957   1.585   0.117 -0.5979  0.3016  0.8495
14921TIP3    H166178   4.893   1.657   0.120  0.7129  1.5426  0.3064
14921TIP3    H266179   5.012   1.605   0.042 -0.5212 -1.5993  0.3654
14922TIP3   OH266180   2.565   1.969   4.394 -0.1610  0.1499  0.1407
14922TIP3    H166181   2.577   1.935   4.305  1.0115 -0.1259  0.3857
14922TIP3    H266182   2.473   1.993   4.398 -0.7272 -1.7044 -0.5162
14923TIP3   OH266183   1.462   6.705  13.543 -0.0029 -0.4372  0.1032
14923TIP3    H166184   1.420   6.660  13.469  2.8216 -2.2201 -0.5962
14923TIP3    H266185   1.539   6.747  13.504 -0.2637  1.4776  1.5346
14924TIP3   OH266186   4.275   5.708   1.658  0.3197  0.5288  0.1557
14924TIP3    H166187   4.253   5.671   1.743  1.6499  1.6300  1.0179
14924TIP3    H266188   4.206   5.771   1.640 -0.6751 -0.6283 -0.2264
14925TIP3   OH266189   3.269   1.533  10.811 -0.1823  0.2673  0.6222
14925TIP3    H166190   3.349   1.518  10.761 -0.8203 -0.8050 -0.1210
14925TIP3    H266191   3.246   1.448  10.846 -0.2091  0.8482  2.1012
14926TIP3   OH266192   5.454   1.158  15.434  0.0228  0.0231 -0.0216
14926TIP3    H166193   5.466   1.204  15.517  0.1738 -0.7015  0.3593
14926TIP3    H266194   5.373   1.195  15.398  0.7957  1.4846 -0.3190
14927TIP3   OH266195   4.161   2.086   5.143 -0.1756 -0.3021  0.0378
14927TIP3    H166196   4.180   2.113   5.233 -0.7600  2.0238 -0.4604
14927TIP3    H266197   4.205   2.152   5.089  1.2060 -2.3383 -1.4531
14928TIP3   OH266198   6.505   5.072   0.832 -0.1256 -0.1249  0.2218
14928TIP3    H166199   6.421   5.070   0.787 -1.1479  0.4708  2.0128
14928TIP3    H266200   6.515   5.163   0.861  0.6533 -0.4140  0.8919
14929TIP3   OH266201   4.234   1.433   1.577 -0.5678  0.0030 -0.8933
14929TIP3    H166202   4.191   1.499   1.523 -2.0563  2.5420  2.9748
14929TIP3    H266203   4.323   1.467   1.590 -0.8919  0.5706 -0.0629
14930TIP3   OH266204   0.431   1.436  15.180  0.1950  0.5879 -0.0646
14930TIP3    H166205   0.487   1.513  15.172  0.5358  0.6702  2.2185
14930TIP3    H266206   0.353   1.457  15.130  1.9203  0.6894 -2.9160
14931TIP3   OH266207   0.582   0.516   3.884 -0.4050  0.0864  0.5976
14931TIP3    H166208   0.618   0.518   3.972  3.0547 -0.3319 -0.6784
14931TIP3    H266209   0.548   0.604   3.870  1.0112  0.8362  1.6123
14932TIP3   OH266210   0.653   5.975   4.122  0.9074 -0.3504  0.5271
14932TIP3    H166211   0.624   5.961   4.212  0.4487 -1.9658  0.1515
14932TIP3    H266212   0.707   6.054   4.126 -2.5788  2.2498  1.5068
14933TIP3   OH266213   4.389   1.800  14.131 -0.4076 -0.4754  0.0102
14933TIP3    H166214   4.433   1.885  14.126  0.8357 -1.1240 -0.5707
14933TIP3    H266215   4.352   1.798  14.219  2.3430 -0.6030  1.2909
14934TIP3   OH266216   6.509   0.137  14.913 -0.2512 -0.2851 -0.1100
14934TIP3    H166217   6.435   0.096  14.869  0.8153 -0.7197 -1.5955
14934TIP3    H266218   6.486   0.230  14.916 -0.6385 -0.3339 -1.0587
14935TIP3   OH266219   3.016   0.380  14.592 -0.1971  0.0204  0.0265
14935TIP3    H166220   3.056   0.330  14.520 -1.7183  1.8420 -2.2053
14935TIP3    H266221   3.015   0.318  14.666  2.9318 -1.4031 -0.9542
14936TIP3   OH266222   2.708   0.141   4.975  0.1806  0.4167 -0.0477
14936TIP3    H166223   2.644   0.070   4.967  2.3090 -1.7457  0.9791
14936TIP3    H266224   2.766   0.113   5.045  1.1683  3.1996  0.3564
14937TIP3   OH266225   1.043   1.521   4.550  0.0388  0.1344 -0.1086
14937TIP3    H166226   1.029   1.576   4.627  2.5009  0.8305 -0.0845
14937TIP3    H266227   1.063   1.434   4.586  0.5360  0.2982  0.0090
14938TIP3   OH266228   6.152   1.591   3.615  0.6302 -0.1843  0.3164
14938TIP3    H166229   6.193   1.591   3.529  0.7704 -0.2241  0.3823
14938TIP3    H266230   6.123   1.500   3.628  1.3693 -0.3819  0.6669
14939TIP3   OH266231   4.757   2.041   1.133 -0.3375 -0.0921  1.0848
14939TIP3    H166232   4.792   1.971   1.076  2.0075  1.3291  0.6522
14939TIP3    H266233   4.682   2.075   1.085 -3.0345 -3.6634  2.3228
14940TIP3   OH266234   0.055   6.617   2.991 -0.4803  0.0794  0.1409
14940TIP3    H166235   0.030   6.650   3.077  1.3258 -0.7912  1.0618
14940TIP3    H266236  -0.017   6.642   2.933 -1.8349  0.5188  1.9368
14941TIP3   OH266237   0.160   4.636   4.786  0.7666 -0.5576 -0.4526
14941TIP3    H166238   0.160   4.545   4.816  0.3532 -0.2419  0.5689
14941TIP3    H266239   0.067   4.657   4.774  0.0241  1.5343  5.4085
14942TIP3   OH266240   3.136   4.481  17.033 -0.1527 -0.0312 -0.2575
14942TIP3    H166241   3.199   4.511  17.099 -0.2946  1.3281 -0.7029
14942TIP3    H266242   3.091   4.407  17.074  0.0124  0.5591  1.0232
14943TIP3   OH266243   3.260   3.085  11.193  0.1944 -0.1037 -0.0791
14943TIP3    H166244   3.204   3.161  11.180 -1.3216 -0.9676  1.0160
14943TIP3    H266245   3.344   3.121  11.222  0.2787  1.2249 -1.8227
14944TIP3   OH266246   3.851   5.555  10.242  0.2369  0.3470 -1.4803
14944TIP3    H166247   3.769   5.520  10.277  0.0035 -0.1151 -2.4507
14944TIP3    H266248   3.906   5.478  10.229  1.6882  0.8181  1.2040
14945TIP3   OH266249   4.845   0.141   4.347 -0.1702  0.3418  0.3221
14945TIP3    H166250   4.940   0.141   4.357  0.2571  1.3016 -2.6023
14945TIP3    H266251   4.817   0.054   4.376  1.7175 -0.2792  0.3976
14946TIP3   OH266252   1.955   1.475  16.682  0.1681  0.5166 -0.3795
14946TIP3    H166253   1.896   1.400  16.692 -1.3170  1.7503  0.4507
14946TIP3    H266254   1.910   1.534  16.622  1.0890  0.9915 -0.6210
14947TIP3   OH266255   4.086   3.959   1.482 -0.0112  0.0786 -0.6157
14947TIP3    H166256   4.129   3.886   1.438  0.9613  1.1039 -1.4182
14947TIP3    H266257   4.063   4.020   1.412 -1.2730  0.3298 -0.0177
14948TIP3   OH266258   4.246   4.435   5.094 -0.4526 -0.0142 -0.5580
14948TIP3    H166259   4.225   4.517   5.049 -0.5191  0.4296  0.2617
14948TIP3    H266260   4.302   4.388   5.033 -1.3421  0.1326 -1.5092
14949TIP3   OH266261   2.640   5.455  16.212 -0.2496  0.1604  0.4218
14949TIP3    H166262   2.682   5.492  16.134 -2.7856  2.0159 -0.2108
14949TIP3    H266263   2.692   5.489  16.285  0.0138  1.5135 -0.3523
14950TIP3   OH266264   1.728   0.878   1.784  0.0845  0.4533 -0.5091
14950TIP3    H166265   1.780   0.802   1.759  1.3003  0.8872  0.5586
14950TIP3    H266266   1.694   0.855   1.871  0.3580  1.0548 -0.2368
14951TIP3   OH266267   3.554   2.693  12.371 -0.6024  0.6508  0.4499
14951TIP3    H166268   3.480   2.645  12.333 -0.6783  1.2396 -0.1749
14951TIP3    H266269   3.558   2.774  12.320 -0.8389  1.5911  1.8603
14952TIP3   OH266270   1.948   6.167  11.749 -0.0785 -0.3656 -0.3341
14952TIP3    H166271   1.868   6.121  11.725  0.0041 -0.1528 -1.0321
14952TIP3    H266272   1.973   6.216  11.670 -0.1948  0.9161  0.3988
14953TIP3   OH266273   1.558   6.728   3.390  0.3369  0.4690  0.3245
14953TIP3    H166274   1.643   6.700   3.356 -0.7305 -1.8485 -0.6531
14953TIP3    H266275   1.530   6.797   3.330  1.4018  1.0811  0.5118
14954TIP3   OH266276   3.680   0.847   6.065  0.3769  0.1334 -0.3286
14954TIP3    H166277   3.617   0.832   5.995  1.2190 -1.1447 -0.8529
14954TIP3    H266278   3.642   0.804   6.141 -0.7323  1.8713  0.1517
14955TIP3   OH266279   5.321   2.170   1.566  0.3881  0.2366  0.4553
14955TIP3    H166280   5.267   2.248   1.580  1.5061  1.8923 -3.1575
14955TIP3    H266281   5.411   2.202   1.569  0.8567 -0.1996 -3.4263
14956TIP3   OH266282   6.699   6.574   3.782  0.4112  0.1075 -0.0356
14956TIP3    H166283   6.657   6.505   3.730  0.1048 -1.1122  1.7428
14956TIP3    H266284   6.763   6.528   3.837  0.1053  1.2047  1.3080
14957TIP3   OH266285   0.015   2.581  12.532  0.0416 -0.5373 -0.3000
14957TIP3    H166286   0.031   2.659  12.478 -1.0892 -0.0252  0.0677
14957TIP3    H266287   0.064   2.596  12.612 -0.8411  0.2124  0.1184
14958TIP3   OH266288   5.761   5.702   5.670 -0.3542 -0.9202 -0.1387
14958TIP3    H166289   5.689   5.668   5.724 -1.7467 -0.1929 -1.4681
14958TIP3    H266290   5.805   5.766   5.726 -1.3569 -0.6599  0.3763
14959TIP3   OH266291   0.409   0.816  13.512 -0.1753 -0.2953  0.8467
14959TIP3    H166292   0.436   0.876  13.442  1.4256 -2.3125 -0.3684
14959TIP3    H266293   0.441   0.857  13.592 -2.2734  2.1974  0.5606
14960TIP3   OH266294   0.503   6.250   4.355  0.1075 -0.6676  0.6644
14960TIP3    H166295   0.513   6.238   4.261  2.4050  0.4975  0.6993
14960TIP3    H266296   0.474   6.341   4.365 -2.0106 -1.3216  1.0613
14961TIP3   OH266297   4.942   4.469  15.653  0.2198 -0.0028 -0.7648
14961TIP3    H166298   4.939   4.374  15.665  2.5700 -0.1266 -0.6878
14961TIP3    H266299   4.972   4.503  15.738 -0.8321  0.8491 -0.7128
14962TIP3   OH266300   3.184   1.042   5.281 -0.2358 -0.0185  0.4008
14962TIP3    H166301   3.278   1.029   5.292 -0.2712  0.3414  1.2143
14962TIP3    H266302   3.172   1.137   5.288 -0.6870 -0.0860  0.5679
14963TIP3   OH266303   5.970   6.510  13.883 -0.2453  0.2684 -0.7237
14963TIP3    H166304   6.024   6.453  13.938 -0.5839 -0.2215 -0.8844
14963TIP3    H266305   5.981   6.597  13.920 -0.2167 -0.0035 -0.0695
14964TIP3   OH266306   6.114   0.775   6.649  0.4371 -0.2592  0.5416
14964TIP3    H166307   6.189   0.766   6.591 -0.6980 -2.3800 -0.7119
14964TIP3    H266308   6.116   0.697   6.704 -1.5038 -1.0131 -0.3732
14965TIP3   OH266309   2.159   0.856  16.641 -0.0927  0.2943 -0.1887
14965TIP3    H166310   2.204   0.811  16.569 -2.6880 -0.6184 -1.3317
14965TIP3    H266311   2.186   0.808  16.720  0.0998 -0.9081 -0.9665
14966TIP3   OH266312   0.457   2.269  15.761  0.3970  0.2145 -0.0559
14966TIP3    H166313   0.465   2.311  15.847  2.8245 -0.5965  0.1694
14966TIP3    H266314   0.444   2.176  15.781  1.5952 -0.0717 -0.5469
14967TIP3   OH266315   0.607   2.982  10.584  0.8404  0.0192 -0.3191
14967TIP3    H166316   0.606   3.077  10.577  2.0454 -0.0057 -1.1478
14967TIP3    H266317   0.695   2.961  10.616  0.2632 -0.7705  0.8064
14968TIP3   OH266318   4.318   4.277   1.661 -0.1978  0.3096  0.2535
14968TIP3    H166319   4.323   4.363   1.621  0.7260 -0.3401 -1.1153
14968TIP3    H266320   4.225   4.254   1.657 -0.3251  0.8947 -0.1622
14969TIP3   OH266321   0.197   2.292   2.146 -0.0321 -0.6127  0.2837
14969TIP3    H166322   0.266   2.272   2.208 -0.1490 -2.9582 -0.2686
14969TIP3    H266323   0.241   2.342   2.077  0.4540  0.4449  1.3201
14970TIP3   OH266324   1.747   4.641   6.070  0.2521  0.3296  0.2410
14970TIP3    H166325   1.719   4.552   6.046 -0.2613  0.2392  1.1191
14970TIP3    H266326   1.718   4.651   6.161  1.2596  1.0135  0.5028
14971TIP3   OH266327   1.312   1.840  13.920 -0.1667 -0.3314 -0.7145
14971TIP3    H166328   1.392   1.794  13.894 -0.5684 -1.1758 -0.5049
14971TIP3    H266329   1.241   1.779  13.899 -0.5004 -1.3108  2.6765
14972TIP3   OH266330   2.114   5.117   3.747  0.2525  0.2829 -0.5828
14972TIP3    H166331   2.159   5.142   3.827  0.9213 -0.4130 -0.7281
14972TIP3    H266332   2.080   5.199   3.711  2.2426  0.9780 -0.9733
14973TIP3   OH266333   0.389   4.780   2.089  0.7179 -0.6295 -0.1110
14973TIP3    H166334   0.381   4.799   1.996  0.1892  1.9691  0.3711
14973TIP3    H266335   0.308   4.734   2.111  0.1035  0.1797 -0.6395
14974TIP3   OH266336   0.617   2.556   0.756 -0.2102 -0.3994  0.6291
14974TIP3    H166337   0.538   2.598   0.724 -0.1380  1.1024  2.2354
14974TIP3    H266338   0.618   2.575   0.850  0.6690 -2.7126  1.1604
14975TIP3   OH266339   6.394   6.461   3.196 -0.5377  0.2752  0.1207
14975TIP3    H166340   6.477   6.456   3.244  0.4957  2.0044 -1.3497
14975TIP3    H266341   6.420   6.489   3.108 -2.7397  1.4106 -0.2186
14976TIP3   OH266342   0.843   4.949  14.155 -0.2540 -0.4011  0.1845
14976TIP3    H166343   0.840   4.863  14.196  0.2759  0.1541  1.4451
14976TIP3    H266344   0.841   4.932  14.061 -1.7180 -1.7172  0.4189
14977TIP3   OH266345   3.490   4.663   5.863 -0.6066  0.2362  0.1429
14977TIP3    H166346   3.583   4.665   5.884 -0.7705 -0.0301  0.9216
14977TIP3    H266347   3.451   4.609   5.932 -0.9153 -2.2735 -1.8882
14978TIP3   OH266348   1.083   3.852   1.157 -0.0358  0.1682 -0.3353
14978TIP3    H166349   0.999   3.888   1.131 -0.5914 -0.4511  0.5467
14978TIP3    H266350   1.135   3.928   1.183 -0.3346  0.5454 -0.8275
14979TIP3   OH266351   0.790   2.648  17.154 -0.2722 -0.1239  0.1713
14979TIP3    H166352   0.715   2.590  17.140 -1.7839  1.5528  1.0143
14979TIP3    H266353   0.784   2.713  17.084 -0.3502  0.7574  0.9870
14980TIP3   OH266354   6.184   5.644  11.042  0.4208 -0.0251 -0.7108
14980TIP3    H166355   6.150   5.589  11.113  0.7415 -1.3355 -1.5363
14980TIP3    H266356   6.245   5.587  10.995  0.6593  1.0059 -1.6872
14981TIP3   OH266357   3.771   3.254   0.659 -0.2203 -0.2908  0.5078
14981TIP3    H166358   3.702   3.288   0.603 -0.7620 -0.6986  0.9238
14981TIP3    H266359   3.762   3.300   0.742  0.9722  0.7648  0.0883
14982TIP3   OH266360   1.292   2.040  13.258  0.1514 -0.0195  0.2254
14982TIP3    H166361   1.220   2.033  13.321 -2.2497 -0.4211 -2.3286
14982TIP3    H266362   1.267   2.115  13.203  1.5315 -0.3786 -0.9301
14983TIP3   OH266363   3.755   4.712   3.082 -0.2842 -0.5529 -0.0876
14983TIP3    H166364   3.789   4.675   3.164 -0.8233  1.1066  0.9334
14983TIP3    H266365   3.705   4.641   3.043 -2.3591 -0.6160  2.4242
14984TIP3   OH266366   0.243   0.551  15.507  0.3440 -0.3867  0.1128
14984TIP3    H166367   0.193   0.502  15.572  0.5556  1.3314  1.6446
14984TIP3    H266368   0.334   0.539  15.533  0.4994 -0.4245 -0.4269
14985TIP3   OH266369   1.178   5.856  16.301  0.4529 -0.8351  0.5678
14985TIP3    H166370   1.120   5.892  16.234 -0.6878 -0.4452  1.7250
14985TIP3    H266371   1.231   5.791  16.255 -0.7973 -1.0881 -0.5515
14986TIP3   OH266372   1.582   4.710  15.349 -1.0153  0.2085  0.3265
14986TIP3    H166373   1.566   4.796  15.308 -0.3552 -0.4053 -1.3034
14986TIP3    H266374   1.497   4.686  15.386 -1.8319  0.5740 -1.1959
14987TIP3   OH266375   4.779   6.674   0.155  0.2487  0.8049 -0.0768
14987TIP3    H166376   4.719   6.622   0.209 -0.2437 -0.9344 -2.1626
14987TIP3    H266377   4.722   6.732   0.105  0.5872  1.3720  0.1797
14988TIP3   OH266378   5.996   4.766   0.127 -0.1577  0.2664  0.4260
14988TIP3    H166379   6.087   4.796   0.129  0.2272 -0.6977 -1.1089
14988TIP3    H266380   5.997   4.685   0.178 -0.0357  0.0096  0.0262
14989TIP3   OH266381   5.652   5.912   1.311  0.4277 -0.4600  0.3180
14989TIP3    H166382   5.634   5.820   1.290 -2.4857 -0.0679  0.7505
14989TIP3    H266383   5.638   5.959   1.229 -0.8389 -0.1090  0.7186
14990TIP3   OH266384   1.731   3.111  15.953 -0.7239  0.5492  0.4771
14990TIP3    H166385   1.786   3.180  15.917 -1.2828  0.8903  0.2533
14990TIP3    H266386   1.780   3.030  15.938 -0.0101  0.9089  0.8528
14991TIP3   OH266387   0.452   0.663   1.770  0.0337  0.2039 -0.5560
14991TIP3    H166388   0.470   0.704   1.855 -0.8208 -1.6487  0.5776
14991TIP3    H266389   0.357   0.652   1.769  0.1230 -0.6067 -1.3686
14992TIP3   OH266390   5.730   5.315  12.009 -0.0543  0.0388 -0.4931
14992TIP3    H166391   5.740   5.403  12.046 -0.5287 -1.0537  2.4856
14992TIP3    H266392   5.639   5.312  11.978  0.2749  0.8840 -1.6375
14993TIP3   OH266393   0.983   6.637  17.150  0.0233 -0.9340  0.0997
14993TIP3    H166394   1.003   6.721  17.192 -1.0758  0.4578 -1.9796
14993TIP3    H266395   0.990   6.573  17.221  0.5231  0.9414  1.8545
14994TIP3   OH266396   3.876   1.094   2.905 -0.1651  0.3637 -0.3122
14994TIP3    H166397   3.893   1.104   2.811 -0.3644  2.7398 -0.1590
14994TIP3    H266398   3.957   1.056   2.940  0.2060  0.1768 -1.3281
14995TIP3   OH266399   3.815   5.428  14.184  0.4081  0.2142  0.1939
14995TIP3    H166400   3.745   5.364  14.193  0.1662  0.2561 -1.2367
14995TIP3    H266401   3.874   5.409  14.257 -0.0828 -1.0904  0.2764
14996TIP3   OH266402   0.462   5.249  14.781  0.2773  0.0619 -0.2024
14996TIP3    H166403   0.419   5.322  14.737  0.0734  0.4310  0.5882
14996TIP3    H266404   0.445   5.173  14.725 -3.0422 -0.2263  0.9427
14997TIP3   OH266405   0.543   5.611   5.478  0.4976  0.0166  0.1599
14997TIP3    H166406   0.511   5.529   5.440  0.3973  0.7998 -1.5258
14997TIP3    H266407   0.624   5.629   5.431  0.6048  0.8046  0.6334
14998TIP3   OH266408   5.395   6.643  13.568  0.1167  0.1758 -0.2640
14998TIP3    H166409   5.351   6.627  13.652  0.1095 -1.1625 -0.5085
14998TIP3    H266410   5.480   6.680  13.592 -0.6875  1.7685  0.2503
14999TIP3   OH266411   2.504   1.184  11.875 -0.1013  0.7316  0.0159
14999TIP3    H166412   2.410   1.179  11.891 -0.0358 -1.4408  0.0073
14999TIP3    H266413   2.511   1.235  11.794 -1.5695 -1.7807 -1.8417
15000TIP3   OH266414   1.616   0.971  15.103  0.3487 -0.1323 -0.4648
15000TIP3    H166415   1.683   1.032  15.135 -0.1897  1.9848 -3.0653
15000TIP3    H266416   1.533   1.012  15.126 -0.0295 -0.1301 -1.7765
15001TIP3   OH266417   5.468   5.992   0.158  0.2100  0.2020  0.0007
15001TIP3    H166418   5.531   5.929   0.191  0.9547  0.6831 -0.4711
15001TIP3    H266419   5.382   5.957   0.184  0.5254 -1.5998 -1.2124
15002TIP3   OH266420   5.241   2.405  14.836  0.1444  0.6481  0.6116
15002TIP3    H166421   5.246   2.322  14.790  0.5838  1.1811 -0.3293
15002TIP3    H266422   5.170   2.452  14.792 -0.1144  0.7678  1.1498
15003TIP3   OH266423   4.296   0.434  13.507  0.3521 -0.0209 -0.2370
15003TIP3    H166424   4.372   0.456  13.453  0.2502  0.6880 -0.0960
15003TIP3    H266425   4.261   0.519  13.535  1.0488 -0.3711  1.8566
15004TIP3   OH266426   4.958   3.977   4.915  0.1817 -0.6528 -0.1903
15004TIP3    H166427   4.976   3.895   4.960 -1.4555 -0.9856 -0.0680
15004TIP3    H266428   4.865   3.972   4.891 -0.1180  1.3737  0.3112
15005TIP3   OH266429   3.906   3.560  12.224  0.0464  0.1491 -0.0142
15005TIP3    H166430   3.884   3.637  12.277  3.0725 -0.3710  2.3065
15005TIP3    H266431   3.991   3.581  12.186  0.9113 -1.9316  0.6163
15006TIP3   OH266432   2.010   3.266  12.572  0.4023 -0.6095  0.0953
15006TIP3    H166433   2.087   3.252  12.517  1.3030 -0.5968  1.3262
15006TIP3    H266434   1.993   3.181  12.613  0.0036 -0.5082  0.1496
15007TIP3   OH266435   0.479   4.620   3.336 -0.2361  0.0765 -0.3861
15007TIP3    H166436   0.422   4.606   3.261 -0.1558  0.3250 -0.4924
15007TIP3    H266437   0.458   4.708   3.367 -0.9444 -0.3676  0.4635
15008TIP3   OH266438   2.579   0.467  11.005  0.1104 -0.5149 -0.2960
15008TIP3    H166439   2.558   0.502  11.091 -0.5675 -2.4410  0.3799
15008TIP3    H266440   2.658   0.513  10.978  0.8546 -0.5060  1.7680
15009TIP3   OH266441   4.180   4.012  11.820  0.6324 -0.0261  0.3463
15009TIP3    H166442   4.258   3.961  11.799  0.1837 -0.4486 -0.3309
15009TIP3    H266443   4.121   3.948  11.861 -0.0033 -0.1103 -0.6696
15010TIP3   OH266444   5.928   0.776  12.246  1.1823 -0.2203 -1.0167
15010TIP3    H166445   5.982   0.786  12.324  0.5089 -0.9550 -0.4377
15010TIP3    H266446   5.929   0.862  12.205  2.0506  0.0119 -0.5349
15011TIP3   OH266447   1.646   3.341   4.062  0.3068 -0.2713 -0.4077
15011TIP3    H166448   1.732   3.359   4.100 -0.6136 -1.9617  2.8775
15011TIP3    H266449   1.631   3.412   4.000  3.7502  0.4151 -0.6431
15012TIP3   OH266450   6.155   2.971   3.970 -0.0580  0.3030  0.4005
15012TIP3    H166451   6.209   2.948   4.046  1.6048  0.0470 -0.7944
15012TIP3    H266452   6.138   2.887   3.927 -1.9007  0.3131  1.0143
15013TIP3   OH266453   6.751   5.114  12.661 -0.5012 -0.1591 -0.1217
15013TIP3    H166454   6.752   5.027  12.622  1.6171 -1.5459  2.6515
15013TIP3    H266455   6.823   5.161  12.618  1.0530 -1.2689  1.1565
15014TIP3   OH266456   4.375   1.571   6.090 -0.3070 -0.2342 -0.4121
15014TIP3    H166457   4.362   1.664   6.109 -0.9858 -0.2473 -0.7681
15014TIP3    H266458   4.362   1.527   6.174 -0.8637 -0.0758 -0.4046
15015TIP3   OH266459   6.668   4.844   5.303  0.5022  0.0082  0.2861
15015TIP3    H166460   6.588   4.878   5.342  0.8065  1.5771 -0.3767
15015TIP3    H266461   6.736   4.907   5.328  1.1684 -0.2923 -0.6871
15016TIP3   OH266462   5.370   5.883  11.051  0.0655 -0.2382 -0.1179
15016TIP3    H166463   5.279   5.871  11.079 -0.1138 -0.3950 -0.7446
15016TIP3    H266464   5.402   5.794  11.033 -0.1787 -0.0873 -1.4520
15017TIP3   OH266465   5.921   3.189  14.792 -0.5318  0.1133 -0.2388
15017TIP3    H166466   5.888   3.232  14.871 -3.0606 -0.2897 -0.9889
15017TIP3    H266467   5.943   3.100  14.821 -0.5813  0.2318  0.1803
15018TIP3   OH266468   0.574   3.566   3.302 -0.3419 -0.1275 -0.2959
15018TIP3    H166469   0.495   3.520   3.273 -0.0854  0.3217 -1.8412
15018TIP3    H266470   0.604   3.613   3.223 -0.4546  2.4897  1.0892
15019TIP3   OH266471   1.089   1.566   0.006  1.0565  0.9630 -0.5724
15019TIP3    H166472   1.069   1.479   0.040  0.4940 -0.0326 -3.1946
15019TIP3    H266473   1.174   1.587   0.042  0.5686 -0.0177  1.2804
15020TIP3   OH266474   1.612   5.100  16.353  0.4308 -0.2278  0.1333
15020TIP3    H166475   1.545   5.067  16.414 -1.3194  1.2409 -0.8978
15020TIP3    H266476   1.659   5.166  16.404  0.5655 -0.6821  0.6101
15021TIP3   OH266477   3.385   1.407   0.702  0.0965 -0.1287 -0.1910
15021TIP3    H166478   3.364   1.419   0.609  1.0402 -1.3837 -0.5993
15021TIP3    H266479   3.316   1.349   0.735 -0.3133  0.4237 -0.0730
15022TIP3   OH266480   3.668   5.500  12.948  0.7119 -0.3335 -0.1740
15022TIP3    H166481   3.711   5.439  12.888 -2.2902 -1.2750 -1.5824
15022TIP3    H266482   3.692   5.586  12.915  1.7122 -0.7888 -0.6991
15023TIP3   OH266483   2.156   4.519   3.319 -0.2530 -0.6938 -0.4433
15023TIP3    H166484   2.199   4.435   3.337 -1.1466 -0.7463  1.8266
15023TIP3    H266485   2.129   4.513   3.227  2.0424 -1.7597 -1.1307
15024TIP3   OH266486   5.439   4.253   2.293 -0.0846 -0.5388 -0.3501
15024TIP3    H166487   5.376   4.213   2.233 -0.4053 -0.4102 -0.1015
15024TIP3    H266488   5.519   4.263   2.241 -0.7159  0.7187 -1.1342
15025TIP3   OH266489   1.227   3.238  16.202  0.4659 -0.0573  0.2666
15025TIP3    H166490   1.285   3.311  16.179  0.3781  0.4081  1.4180
15025TIP3    H266491   1.168   3.229  16.127  2.7684 -1.3916 -1.5402
15026TIP3   OH266492   6.218   4.677  12.077  0.2795  0.7601  0.5667
15026TIP3    H166493   6.286   4.610  12.080 -0.0567  0.3976  0.2216
15026TIP3    H266494   6.143   4.633  12.038  0.6453  1.8567 -1.5338
15027TIP3   OH266495   1.603   0.867  12.493 -0.4742  0.3104  0.7143
15027TIP3    H166496   1.654   0.937  12.452 -0.1430  0.1845  0.9058
15027TIP3    H266497   1.631   0.787  12.447 -0.1387  0.1755  1.1393
15028TIP3   OH266498   4.231   1.558   6.470  0.2575 -0.3310  0.3835
15028TIP3    H166499   4.243   1.625   6.403 -1.6836 -1.2126 -0.9232
15028TIP3    H266500   4.295   1.490   6.448  0.0483 -0.3386 -0.2246
15029TIP3   OH266501   5.307   6.164  11.219  0.7918 -0.7982 -0.1647
15029TIP3    H166502   5.327   6.095  11.282  2.1258 -1.9657 -1.7830
15029TIP3    H266503   5.389   6.176  11.170  1.4641  3.7041  1.5890
15030TIP3   OH266504   6.713   1.313  15.295 -0.4760  0.1190  0.6166
15030TIP3    H166505   6.665   1.359  15.364  0.0227  0.3066  0.8459
15030TIP3    H266506   6.805   1.316  15.324 -0.4625 -1.3026  0.7900
15031TIP3   OH266507   5.569   0.606   2.540  0.4666  0.2375  0.0213
15031TIP3    H166508   5.495   0.643   2.588  0.9525  0.7293  0.4089
15031TIP3    H266509   5.575   0.516   2.570 -1.3651 -0.5290 -1.6723
15032TIP3   OH266510   5.232   2.305  16.508  0.1876 -0.2918 -0.0042
15032TIP3    H166511   5.223   2.303  16.603  3.2299  0.7434  0.4153
15032TIP3    H266512   5.271   2.221  16.485  0.7054 -0.0161 -0.1477
15033TIP3   OH266513   6.684   0.705  14.650  0.4095  0.1925  0.2462
15033TIP3    H166514   6.734   0.643  14.703  0.8835  1.6860  1.6482
15033TIP3    H266515   6.750   0.762  14.611 -0.0799  0.9771  0.5260
15034TIP3   OH266516   2.879   0.973   4.421 -0.3371  0.3332  0.0746
15034TIP3    H166517   2.854   1.066   4.423 -2.4999 -0.2173  1.2561
15034TIP3    H266518   2.948   0.966   4.487  0.9481  1.3219 -1.0842
15035TIP3   OH266519   2.423   2.051  13.648 -0.0718  0.2369 -0.6618
15035TIP3    H166520   2.438   2.024  13.557  3.9548 -2.0415  0.4308
15035TIP3    H266521   2.427   1.969  13.698 -0.8638  1.5739  1.7219
15036TIP3   OH266522   2.288   1.124   1.407  0.3537 -0.4424 -0.2294
15036TIP3    H166523   2.283   1.033   1.438 -1.0968 -0.3576 -0.1533
15036TIP3    H266524   2.379   1.134   1.378  0.5720 -1.8761 -0.1337
15037TIP3   OH266525   6.145   4.668  11.138 -0.2115  0.2125  0.2272
15037TIP3    H166526   6.238   4.652  11.123 -0.5779 -1.7306 -0.2040
15037TIP3    H266527   6.135   4.666  11.233 -0.2622 -2.8791  0.2589
15038TIP3   OH266528   4.089   4.452  13.207 -0.3015  0.2869 -0.1500
15038TIP3    H166529   4.038   4.383  13.165 -1.1377  0.9453 -0.2467
15038TIP3    H266530   4.179   4.420  13.205 -0.7889 -1.2328  0.6840
15039TIP3   OH266531   5.953   1.107  11.338  0.1271  1.0090 -0.3571
15039TIP3    H166532   5.923   1.078  11.252 -0.6334  1.4168 -0.2422
15039TIP3    H266533   5.873   1.112  11.390  0.6804 -0.0878  0.6319
15040TIP3   OH266534   0.687   3.599  13.349  0.8058  0.2820  0.3499
15040TIP3    H166535   0.750   3.560  13.288  1.8973  1.2756  0.8113
15040TIP3    H266536   0.680   3.690  13.322 -2.2556 -0.2451 -1.1519
15041TIP3   OH266537   6.656   1.077  12.581  0.0473  0.2645  0.3424
15041TIP3    H166538   6.625   1.004  12.528 -2.2063  1.5955 -0.2914
15041TIP3    H266539   6.653   1.045  12.671 -0.0074 -0.7090  0.0023
15042TIP3   OH266540   3.302   6.423   1.862 -0.5752 -0.5059 -0.0975
15042TIP3    H166541   3.355   6.369   1.921 -1.8525 -1.3995  0.2639
15042TIP3    H266542   3.366   6.480   1.819  0.4156  0.1735  2.1207
15043TIP3   OH266543   6.632   3.647   4.342 -0.0208  0.8115  0.3991
15043TIP3    H166544   6.660   3.711   4.408  0.0705  2.2831 -0.9967
15043TIP3    H266545   6.585   3.580   4.392  1.4809  0.9865  2.1540
15044TIP3   OH266546   5.060   1.669   4.369  0.4276  0.0091  0.5038
15044TIP3    H166547   5.112   1.684   4.447  0.6832  0.0927  0.3175
15044TIP3    H266548   5.065   1.752   4.320 -0.4584  0.2707  0.8246
15045TIP3   OH266549   5.647   0.746   1.267  0.0368  0.0263 -0.6205
15045TIP3    H166550   5.684   0.778   1.185 -0.0926 -0.7821 -1.0021
15045TIP3    H266551   5.553   0.768   1.261  0.2414  1.1321 -0.1079
15046TIP3   OH266552   5.893   0.328   4.186 -0.4158  0.3240 -0.1069
15046TIP3    H166553   5.902   0.384   4.263 -0.4072  1.3501 -0.8366
15046TIP3    H266554   5.843   0.381   4.123  2.0244  0.6553 -1.8860
15047TIP3   OH266555   1.243   3.315  15.718 -0.1928 -0.0951  0.1868
15047TIP3    H166556   1.324   3.264  15.726 -0.6549 -1.1318 -1.3700
15047TIP3    H266557   1.258   3.371  15.642 -1.3993 -1.2466 -0.9494
15048TIP3   OH266558   4.781   4.727  14.530  0.1170  0.0992 -0.0769
15048TIP3    H166559   4.808   4.667  14.460 -1.2007 -1.4328  0.6584
15048TIP3    H266560   4.860   4.741  14.581  1.0973  1.2103 -1.7941
15049TIP3   OH266561   5.534   0.597  16.770  0.1696 -0.1615 -0.7575
15049TIP3    H166562   5.447   0.584  16.732 -1.4082 -0.3803  2.5580
15049TIP3    H266563   5.551   0.515  16.817  1.6018  0.3804 -0.3116
15050TIP3   OH266564   4.656   0.317  12.506 -0.1734 -0.4752  0.1010
15050TIP3    H166565   4.580   0.323  12.447 -0.0946 -2.2576 -0.2235
15050TIP3    H266566   4.712   0.251  12.466  1.3738  0.5044  0.5722
15051TIP3   OH266567   4.285   6.678  17.121  0.0057 -0.1038  0.1206
15051TIP3    H166568   4.359   6.645  17.070  1.2515  1.8435  0.5659
15051TIP3    H266569   4.229   6.722  17.057  0.1659 -0.0192  0.0371
15052TIP3   OH266570   3.061   2.981   1.673  0.1247 -0.2764 -0.1146
15052TIP3    H166571   3.111   2.923   1.616 -0.2391 -1.2308  0.4883
15052TIP3    H266572   3.126   3.021   1.730  0.2279 -1.6977  0.8296
15053TIP3   OH266573   5.889   2.096   2.630 -0.6374 -0.1341 -0.3757
15053TIP3    H166574   5.814   2.094   2.689 -0.3047 -0.5438  0.0446
15053TIP3    H266575   5.859   2.052   2.551  0.8776 -6.2843  1.9331
15054TIP3   OH266576   6.364   1.719   2.037  0.5077 -0.3607  0.0380
15054TIP3    H166577   6.409   1.635   2.037 -3.0367 -2.5068  1.5755
15054TIP3    H266578   6.295   1.709   2.103 -0.9262  3.3300 -0.6467
15055TIP3   OH266579   1.829   2.161   4.192 -0.0999  0.2439 -0.2329
15055TIP3    H166580   1.769   2.100   4.149  3.0959 -1.4399 -2.6901
15055TIP3    H266581   1.907   2.109   4.211  1.6885  2.9217  0.3068
15056TIP3   OH266582   5.918   0.841   3.826 -0.3310 -0.4820 -0.2979
15056TIP3    H166583   5.848   0.780   3.847 -1.9876  0.3196 -2.9711
15056TIP3    H266584   5.993   0.786   3.806 -0.8690 -1.4669  0.3249
15057TIP3   OH266585   0.180   5.885   4.761  0.4318 -0.4976 -0.1955
15057TIP3    H166586   0.258   5.905   4.710 -0.0428  0.1885 -0.6724
15057TIP3    H266587   0.142   5.970   4.782  0.3076 -0.7954  0.8304
15058TIP3   OH266588   1.272   3.285  15.153  0.4204  0.4028  0.2110
15058TIP3    H166589   1.328   3.361  15.142  1.0602 -0.2284 -1.0891
15058TIP3    H266590   1.201   3.298  15.091  0.6472 -0.1473 -0.1749
15059TIP3   OH266591   4.765   3.238  14.590  0.3036 -0.3398  0.1510
15059TIP3    H166592   4.735   3.219  14.679  1.9162 -0.2965  0.7284
15059TIP3    H266593   4.685   3.236  14.537 -0.9711  1.3781  1.8574
15060TIP3   OH266594   3.990   1.614  11.574  0.3331 -1.1128  0.0135
15060TIP3    H166595   3.933   1.677  11.617  0.8011 -0.4499 -0.3200
15060TIP3    H266596   4.053   1.589  11.641 -0.4870 -2.0502  0.4637
15061TIP3   OH266597   2.666   3.973  12.923  0.3150  0.0618 -0.2524
15061TIP3    H166598   2.586   4.013  12.959  0.3537  0.3083 -0.4386
15061TIP3    H266599   2.649   3.879  12.926  0.1039  0.1034 -0.0871
15062TIP3   OH266600   5.603   3.577  14.367 -0.0436  0.1258 -0.8075
15062TIP3    H166601   5.558   3.493  14.379 -0.8790  0.5070 -1.1372
15062TIP3    H266602   5.687   3.567  14.412 -0.1633 -0.8601 -0.7904
15063TIP3   OH266603   5.967   4.672  14.499  0.3053  0.0391 -0.8760
15063TIP3    H166604   5.885   4.718  14.514  0.4681  0.7502 -2.0708
15063TIP3    H266605   5.943   4.594  14.450  0.3522  0.2764 -1.2753
15064TIP3   OH266606   2.788   0.086   4.141  0.3746  0.3936 -0.3107
15064TIP3    H166607   2.748   0.169   4.115  0.2387  0.2203 -0.6624
15064TIP3    H266608   2.813   0.099   4.232 -2.4253 -0.1996  0.6299
15065TIP3   OH266609   4.426   1.794   2.352  0.5210  0.2146 -0.0016
15065TIP3    H166610   4.475   1.751   2.422  0.0446  0.1746  0.3058
15065TIP3    H266611   4.353   1.837   2.396 -0.8454 -1.3581 -0.6836
15066TIP3   OH266612   2.196   2.014   0.501 -0.9437  0.1215 -0.5696
15066TIP3    H166613   2.164   2.035   0.589 -0.0194  3.6166 -0.9195
15066TIP3    H266614   2.135   2.058   0.442  0.8257  1.5505 -1.4490
15067TIP3   OH266615   6.279   5.826   3.917  0.3414 -0.2109 -0.5815
15067TIP3    H166616   6.224   5.874   3.855  1.1800  0.6342 -0.6980
15067TIP3    H266617   6.265   5.871   4.001  0.9635  0.1139 -0.6458
15068TIP3   OH266618   2.902   0.536  11.710  0.2580 -0.8875 -0.2454
15068TIP3    H166619   2.863   0.582  11.636 -0.5508  1.4014  1.5006
15068TIP3    H266620   2.987   0.579  11.722  0.3420 -1.1862  0.2177
15069TIP3   OH266621   1.018   4.584  14.346 -0.1918  0.0545  0.4185
15069TIP3    H166622   1.082   4.520  14.377  0.4197  0.7005  0.5001
15069TIP3    H266623   1.048   4.668  14.381 -0.4498  0.5389 -0.4880
15070TIP3   OH266624   3.857   2.385   3.151 -0.2164 -0.0129  0.3073
15070TIP3    H166625   3.900   2.392   3.066  0.0655  1.6965  0.5605
15070TIP3    H266626   3.928   2.389   3.214 -0.5713  0.7616  0.6674
15071TIP3   OH266627   1.357   6.088  16.752  0.2505 -0.2342 -0.2078
15071TIP3    H166628   1.325   6.109  16.664  1.4114  0.1610 -0.5695
15071TIP3    H266629   1.352   5.993  16.758 -1.4385 -0.1667 -0.0360
15072TIP3   OH266630   3.516   5.662  11.552  0.1871 -0.1803 -0.0954
15072TIP3    H166631   3.581   5.700  11.493  1.0087 -0.2710  0.7125
15072TIP3    H266632   3.470   5.597  11.499  0.1157  0.5456 -0.9403
15073TIP3   OH266633   5.870   3.751  10.537 -0.2110 -0.0090  0.4488
15073TIP3    H166634   5.931   3.689  10.496 -2.2089 -0.4559 -2.0720
15073TIP3    H266635   5.915   3.836  10.532  1.1137 -0.6685  0.7479
15074TIP3   OH266636   5.249   4.878  16.194  0.8060  0.2085 -0.0677
15074TIP3    H166637   5.226   4.798  16.241  2.7324 -1.2150 -1.4237
15074TIP3    H266638   5.337   4.900  16.225  0.3501  1.7734  0.1960
15075TIP3   OH266639   1.546   3.835   0.043 -0.4413 -0.9238  0.3633
15075TIP3    H166640   1.603   3.900   0.084  0.0484 -0.8895 -0.3495
15075TIP3    H266641   1.560   3.755   0.095 -0.4150 -0.6781  0.7331
15076TIP3   OH266642   5.624   0.201   3.484 -0.0025 -0.0767 -0.1546
15076TIP3    H166643   5.598   0.260   3.414 -0.2317  0.1008  0.0735
15076TIP3    H266644   5.716   0.183   3.469  0.3922  1.3056  0.4604
15077TIP3   OH266645   6.465   4.535   0.107  0.3361  0.2804  0.3830
15077TIP3    H166646   6.537   4.493   0.060 -0.1541  1.2598 -1.3547
15077TIP3    H266647   6.416   4.463   0.146  1.5371 -0.4770  0.5297
15078TIP3   OH266648   5.208   2.490   6.155 -0.3101  0.4700 -0.3850
15078TIP3    H166649   5.169   2.457   6.236  0.2644 -1.1175 -0.7213
15078TIP3    H266650   5.165   2.439   6.086 -0.3525  1.3805 -1.0543
15079TIP3   OH266651   2.742   6.521   6.304 -0.0995  0.3687 -0.0874
15079TIP3    H166652   2.651   6.526   6.277 -0.0701 -0.4176 -0.3685
15079TIP3    H266653   2.792   6.523   6.223  0.0583 -0.6005 -0.0250
15080TIP3   OH266654   5.673   4.623   0.202 -0.0288  0.0104  0.2720
15080TIP3    H166655   5.620   4.588   0.274  0.6706  0.5558  1.0698
15080TIP3    H266656   5.750   4.566   0.199 -0.7657 -0.9736 -1.0883
15081TIP3   OH266657   1.145   5.823   4.385 -0.3864  0.0634  0.2775
15081TIP3    H166658   1.200   5.763   4.336  1.6689  0.8360  1.5382
15081TIP3    H266659   1.141   5.902   4.331  1.4843  0.7425  1.0721
15082TIP3   OH266660   2.486   3.152   0.121 -0.4772  0.1929  0.4914
15082TIP3    H166661   2.464   3.059   0.116 -1.6661  0.2648  3.0173
15082TIP3    H266662   2.406   3.194   0.152  0.1477  2.0459 -0.2508
15083TIP3   OH266663   5.387   5.964  12.254  0.1495  0.2001 -0.0907
15083TIP3    H166664   5.421   5.896  12.312 -1.7612 -0.1481  0.7277
15083TIP3    H266665   5.464   6.013  12.226  1.4887 -1.7144  0.0414
15084TIP3   OH266666   5.384   4.476   4.028 -0.1450  0.2800  0.3570
15084TIP3    H166667   5.447   4.406   4.018 -0.1038  0.5252 -1.5480
15084TIP3    H266668   5.383   4.520   3.943 -1.6756  1.2957  0.8426
15085TIP3   OH266669   2.039   4.976  15.597  0.4409 -0.0334  0.4295
15085TIP3    H166670   1.967   5.018  15.644 -0.8645 -1.5758 -0.0904
15085TIP3    H266671   2.046   5.025  15.515  0.3472  0.4530  0.7088
15086TIP3   OH266672   4.193   1.594   3.972 -0.0692  0.1559 -0.1332
15086TIP3    H166673   4.283   1.567   3.986 -0.4272 -0.9169  0.1728
15086TIP3    H266674   4.197   1.690   3.969  1.4099  0.0955 -2.5253
15087TIP3   OH266675   0.035   2.851   2.827  0.2194 -0.5223 -0.0340
15087TIP3    H166676  -0.013   2.786   2.878  1.4136 -0.4583  1.2533
15087TIP3    H266677   0.118   2.862   2.875  0.4813  1.1585 -0.7988
15088TIP3   OH266678   3.248   5.813  15.853 -0.3697  0.0681  0.2173
15088TIP3    H166679   3.180   5.879  15.839  0.2621  0.7230  0.1564
15088TIP3    H266680   3.267   5.818  15.947 -0.7741 -0.4865  0.3314
15089TIP3   OH266681   2.501   6.344   1.132 -0.0008 -0.2057 -0.7163
15089TIP3    H166682   2.423   6.380   1.174 -0.2305 -0.7395 -0.6903
15089TIP3    H266683   2.572   6.363   1.194 -0.4933 -1.8869  0.4076
15090TIP3   OH266684   0.895   0.995  14.734 -0.3534  0.3528  0.1495
15090TIP3    H166685   0.833   0.948  14.788  0.0972 -1.5696 -0.9387
15090TIP3    H266686   0.911   0.938  14.659  0.8594  1.8731 -0.8198
15091TIP3   OH266687   4.020   5.266  12.152 -0.0093  0.0156  0.4220
15091TIP3    H166688   4.062   5.332  12.097  0.2421  0.9127  1.6512
15091TIP3    H266689   4.022   5.303  12.240 -0.9881 -1.0975  0.9415
15092TIP3   OH266690   0.072   3.221   0.441 -0.5466  0.4103 -0.0692
15092TIP3    H166691   0.129   3.296   0.426  0.2348  0.1496  1.4389
15092TIP3    H266692   0.063   3.180   0.355  1.5735  0.4301 -0.3413
15093TIP3   OH266693   5.491   1.062   5.738 -0.0222  0.9185 -0.7215
15093TIP3    H166694   5.512   1.141   5.689  0.1542  0.5066 -1.3327
15093TIP3    H266695   5.411   1.028   5.696  0.1322  0.5619 -0.7351
15094TIP3   OH266696   0.333   3.349   2.649 -0.1209  0.4888 -0.1165
15094TIP3    H166697   0.304   3.401   2.724 -0.2715 -1.1839  1.0648
15094TIP3    H266698   0.260   3.289   2.632  0.9604 -0.9726  0.1964
15095TIP3   OH266699   0.590   5.179   3.922  0.4116  0.3952  0.1386
15095TIP3    H166700   0.666   5.202   3.870  0.5553  0.2209  0.2692
15095TIP3    H266701   0.617   5.100   3.970  1.0364  1.7303  2.0819
15096TIP3   OH266702   5.437   5.456   2.905  0.5968  0.3331 -0.4593
15096TIP3    H166703   5.389   5.515   2.847  0.9044 -1.0751 -2.2449
15096TIP3    H266704   5.508   5.509   2.942 -1.5479  2.1510  1.3523
15097TIP3   OH266705   5.226   1.180   2.406  0.1683 -0.6431 -0.3525
15097TIP3    H166706   5.252   1.227   2.486  0.7634  0.6167 -1.2464
15097TIP3    H266707   5.294   1.115   2.393 -1.2924 -2.7357  1.5818
15098TIP3   OH266708   0.538   5.852  12.954 -0.6015 -0.0386 -0.0453
15098TIP3    H166709   0.450   5.829  12.925 -1.1019  0.8854  0.6862
15098TIP3    H266710   0.567   5.775  13.003 -1.6287  0.2129  1.0247
15099TIP3   OH266711   0.192   2.894  17.272 -0.5996 -0.6534  0.3939
15099TIP3    H166712   0.215   2.809  17.235  0.7429  0.5198 -1.6814
15099TIP3    H266713   0.273   2.925  17.312 -0.4593  0.4855 -0.6948
15100TIP3   OH266714   3.552   0.944   5.812 -0.2145  0.2701  0.1415
15100TIP3    H166715   3.472   0.930   5.762 -0.0971  1.5407 -0.4320
15100TIP3    H266716   3.617   0.888   5.770  0.2028  2.1862 -1.9714
15101TIP3   OH266717   0.380   1.076  11.772 -0.0664  0.0521 -0.5239
15101TIP3    H166718   0.456   1.055  11.826  0.1899  2.8333  0.3473
15101TIP3    H266719   0.416   1.124  11.698 -0.8815  1.0049 -0.3321
15102TIP3   OH266720   5.708   2.879  14.795  0.2041 -0.2315 -0.4538
15102TIP3    H166721   5.664   2.857  14.713 -0.4689 -0.3396 -0.0686
15102TIP3    H266722   5.654   2.949  14.833  1.1676  0.6680 -0.6710
15103TIP3   OH266723   6.408   1.833   1.354 -0.5527  0.1109  0.4188
15103TIP3    H166724   6.321   1.798   1.375  0.3317 -1.4957  1.6409
15103TIP3    H266725   6.396   1.927   1.352 -2.4034 -0.0946  0.1985
15104TIP3   OH266726   1.158   2.528   0.606 -0.1327 -0.3336  0.2169
15104TIP3    H166727   1.158   2.434   0.589 -0.8770 -0.5339  1.2452
15104TIP3    H266728   1.166   2.568   0.519  1.5682 -1.3364 -0.1198
15105TIP3   OH266729   0.062   6.632   2.083 -0.3279  0.5901  0.2147
15105TIP3    H166730   0.028   6.679   2.159  0.8305 -0.8008  1.6743
15105TIP3    H266731   0.156   6.626   2.098 -0.3037 -1.3394 -0.3374
15106TIP3   OH266732   0.588   0.241  12.607 -0.1632 -0.0725 -0.5790
15106TIP3    H166733   0.582   0.262  12.513  0.2983  0.4835 -0.4936
15106TIP3    H266734   0.508   0.192  12.626 -0.5563  0.3372 -1.1332
15107TIP3   OH266735   1.462   2.314  14.272 -0.2570 -0.0044  0.7649
15107TIP3    H166736   1.541   2.273  14.307  0.0324 -0.2370 -0.1364
15107TIP3    H266737   1.392   2.286  14.331  0.2360 -0.2951  1.2195
15108TIP3   OH266738   2.842   2.310   4.685 -0.1739 -0.3735  0.6099
15108TIP3    H166739   2.820   2.398   4.653 -0.6657 -0.1192  1.6058
15108TIP3    H266740   2.773   2.254   4.650 -3.5088  0.6264  4.8190
15109TIP3   OH266741   3.672   6.740  15.330  0.4750 -0.0064  0.5058
15109TIP3    H166742   3.714   6.671  15.380 -0.0959 -0.5186  0.2852
15109TIP3    H266743   3.744   6.799  15.306  0.8394 -0.0661  1.4123
15110TIP3   OH266744   2.673   4.270  15.296  0.4140 -0.2979 -0.5422
15110TIP3    H166745   2.652   4.178  15.315 -2.2357  0.0887 -1.3062
15110TIP3    H266746   2.744   4.265  15.232  0.7619 -1.7913 -0.0838
15111TIP3   OH266747   1.501   5.734  13.981 -0.0405  0.2677 -0.2971
15111TIP3    H166748   1.573   5.749  13.919  0.0155  0.2534 -0.2361
15111TIP3    H266749   1.427   5.781  13.943  0.1309  0.6883 -0.1168
15112TIP3   OH266750   2.069   2.315   0.482  0.5307  0.0761  0.3214
15112TIP3    H166751   2.013   2.388   0.458  0.1090 -0.0933  0.7751
15112TIP3    H266752   2.037   2.241   0.429  0.2715 -0.0401  0.6382
15113TIP3   OH266753   2.987   3.815   6.835 -0.3100 -0.2617 -0.4711
15113TIP3    H166754   2.937   3.873   6.893  0.9402  0.7653 -0.3756
15113TIP3    H266755   2.922   3.752   6.803 -1.1467 -0.5890  1.6771
15114TIP3   OH266756   1.721   5.844   0.173  0.2849 -0.4691  0.4600
15114TIP3    H166757   1.814   5.859   0.158  0.1891 -1.5252 -1.4508
15114TIP3    H266758   1.716   5.755   0.208  0.0108 -0.2535  0.9849
15115TIP3   OH266759   5.832   2.953   4.684 -0.0259 -0.3927  0.2465
15115TIP3    H166760   5.778   2.979   4.609 -2.2401 -0.7480  1.5965
15115TIP3    H266761   5.798   3.006   4.756  2.5717  0.5191  0.8938
15116TIP3   OH266762   2.130   2.502   1.718 -0.0652  0.3103  0.2107
15116TIP3    H166763   2.176   2.466   1.793 -0.6121 -1.4698 -0.2544
15116TIP3    H266764   2.118   2.595   1.739 -0.1301 -0.1230  2.2734
15117TIP3   OH266765   3.339   5.048   5.713 -0.2851  1.1824  0.1355
15117TIP3    H166766   3.309   5.086   5.795  0.4205 -0.2954  1.1079
15117TIP3    H266767   3.401   4.980   5.738 -1.0036 -0.1887 -1.5361
15118TIP3   OH266768   2.581   1.637  14.063  0.2169  0.4998 -0.0268
15118TIP3    H166769   2.497   1.606  14.028  0.6856  0.8076 -1.5068
15118TIP3    H266770   2.642   1.626  13.990  1.5878 -0.1653  1.1804
15119TIP3   OH266771   1.061   3.299   4.453  0.4804  0.0615 -0.1884
15119TIP3    H166772   1.134   3.359   4.435  0.4538  0.4311  0.8492
15119TIP3    H266773   0.992   3.356   4.487 -1.0132  0.0045 -2.8386
15120TIP3   OH266774   1.294   5.481  16.673 -0.6408 -0.2192 -0.1386
15120TIP3    H166775   1.376   5.522  16.701 -1.6675  1.8811  0.0068
15120TIP3    H266776   1.263   5.435  16.751 -0.6973  0.8953  0.5233
15121TIP3   OH266777   2.395   1.212   5.768 -0.0144 -0.0482  0.2539
15121TIP3    H166778   2.304   1.232   5.747  0.2997 -0.8016 -2.1662
15121TIP3    H266779   2.432   1.295   5.795 -0.6533  1.0390 -1.9603
15122TIP3   OH266780   5.371   1.150   3.786  0.1166 -0.4635  0.0932
15122TIP3    H166781   5.437   1.101   3.835 -0.6476 -1.6736 -0.0410
15122TIP3    H266782   5.301   1.166   3.850  0.6669  1.1610  0.3459
15123TIP3   OH266783   4.132   1.031  14.648  0.2315  0.4433  0.3120
15123TIP3    H166784   4.106   1.121  14.666 -1.2477  0.0058  0.5584
15123TIP3    H266785   4.202   1.012  14.711  0.3776  1.3386  0.4238
15124TIP3   OH266786   5.366   5.684  13.675 -0.2153 -0.1611  0.5733
15124TIP3    H166787   5.452   5.725  13.665  1.2975 -3.4494 -1.8379
15124TIP3    H266788   5.369   5.645  13.762 -0.3460  1.7570  1.5048
15125TIP3   OH266789   0.783   1.338   0.596 -0.7162  0.4834  0.2271
15125TIP3    H166790   0.812   1.427   0.617 -0.1129  0.2080  0.5966
15125TIP3    H266791   0.809   1.286   0.672 -1.0187 -0.0163 -0.0097
15126TIP3   OH266792   3.738   4.246   4.940  0.0253 -0.2388  0.2352
15126TIP3    H166793   3.780   4.171   4.898  0.5625  0.9402 -1.4576
15126TIP3    H266794   3.812   4.302   4.966 -0.3636 -0.3194  1.5853
15127TIP3   OH266795   3.468   5.646   5.841 -0.0235 -0.7090 -0.0100
15127TIP3    H166796   3.433   5.571   5.890 -2.8773  1.2155  1.2432
15127TIP3    H266797   3.425   5.722   5.881  0.1893  1.3402 -3.2732
15128TIP3   OH266798   3.594   5.165  16.131 -0.7033 -0.3446 -0.2888
15128TIP3    H166799   3.508   5.207  16.129 -0.5923 -0.1023 -1.9843
15128TIP3    H266800   3.601   5.129  16.219 -2.1761  0.3672  0.1633
15129TIP3   OH266801   1.849   2.160   1.516 -0.7450 -0.1808  0.5723
15129TIP3    H166802   1.844   2.074   1.556 -0.2040 -0.1663  0.6830
15129TIP3    H266803   1.883   2.217   1.585 -0.4450 -0.0211  0.2986
15130TIP3   OH266804   6.200   6.721   0.539  0.1220 -0.4863  0.5734
15130TIP3    H166805   6.143   6.674   0.600  0.6969  0.2006  1.6661
15130TIP3    H266806   6.253   6.778   0.594  0.4766  0.3605 -0.5984
15131TIP3   OH266807   1.218   3.800  15.816 -0.1897  0.0898 -0.8965
15131TIP3    H166808   1.262   3.768  15.895  0.5209  0.1940 -1.2428
15131TIP3    H266809   1.178   3.883  15.843 -0.2170 -0.0283 -0.5661
15132TIP3   OH266810   3.704   0.535   1.693 -0.7920 -0.7736 -0.4045
15132TIP3    H166811   3.760   0.460   1.715 -0.7530 -0.4934  0.4981
15132TIP3    H266812   3.655   0.507   1.616  0.4916 -1.0707 -1.1336
15133TIP3   OH266813   2.342   5.827  12.479 -0.1184  0.1931 -0.3265
15133TIP3    H166814   2.366   5.789  12.563 -0.7080  1.0246  0.2299
15133TIP3    H266815   2.387   5.772  12.414 -1.8692 -2.1781  0.3498
15134TIP3   OH266816   4.036   0.149   5.128  0.2125 -0.5808  0.3041
15134TIP3    H166817   4.008   0.172   5.217 -1.2684  0.3043 -0.3509
15134TIP3    H266818   4.003   0.060   5.115  0.1753 -0.5998  0.5272
15135TIP3   OH266819   3.983   5.910  13.874  0.2281 -0.4617 -0.6519
15135TIP3    H166820   3.934   5.868  13.944  1.8838  1.4594  1.8397
15135TIP3    H266821   3.921   5.971  13.834 -0.4414 -0.7591 -0.0828
15136TIP3   OH266822   4.999   5.289  10.571  0.4151  0.6099  0.7553
15136TIP3    H166823   4.992   5.381  10.547 -0.4794  0.5415  0.7331
15136TIP3    H266824   5.057   5.251  10.504 -0.5770  0.8022 -0.2376
15137TIP3   OH266825   4.699   0.330  16.915  0.1189 -0.1800 -0.0925
15137TIP3    H166826   4.628   0.266  16.912 -0.8562  0.7441  1.5295
15137TIP3    H266827   4.728   0.338  16.824 -1.2606 -1.2455 -0.6616
15138TIP3   OH266828   6.627   3.597   1.206  0.0636  0.0296 -0.5391
15138TIP3    H166829   6.660   3.674   1.251 -0.2553  0.0055 -0.2517
15138TIP3    H266830   6.669   3.598   1.121 -0.1279  0.6579 -0.6312
15139TIP3   OH266831   4.475   1.048   0.659  0.0531  0.4123  0.3328
15139TIP3    H166832   4.498   0.959   0.634 -2.7326 -0.4160  0.4194
15139TIP3    H266833   4.442   1.041   0.749 -3.6499  0.7726 -0.8476
15140TIP3   OH266834   6.283   4.413   3.400 -0.0486 -0.5127  0.3327
15140TIP3    H166835   6.339   4.341   3.369 -0.9430 -1.3822  0.6854
15140TIP3    H266836   6.212   4.369   3.447 -3.1829  0.2023 -3.2496
15141TIP3   OH266837   5.502   2.890   2.676  0.0685  0.0907 -0.0012
15141TIP3    H166838   5.528   2.923   2.762  0.4297 -1.2998  0.4607
15141TIP3    H266839   5.407   2.883   2.681 -0.0383  1.3261 -0.2173
15142TIP3   OH266840   2.669   3.601   3.554 -0.5459 -0.3172  0.5749
15142TIP3    H166841   2.745   3.644   3.594  0.3072 -1.1012 -0.1560
15142TIP3    H266842   2.699   3.512   3.535 -1.8383 -0.8217  0.7895
15143TIP3   OH266843   3.493   5.452  13.568  0.1681  0.3158 -0.0811
15143TIP3    H166844   3.578   5.439  13.526  0.6112  0.2301  0.8270
15143TIP3    H266845   3.477   5.546  13.561  1.0870  0.5887  1.1276
15144TIP3   OH266846   4.628   2.275  15.437 -0.1847  0.6135  0.2780
15144TIP3    H166847   4.684   2.311  15.506 -0.0783  0.6001  0.1999
15144TIP3    H266848   4.549   2.246  15.482 -0.2278  0.8480  0.3579
15145TIP3   OH266849   1.783   0.145   0.409 -0.5504 -0.1615 -0.1430
15145TIP3    H166850   1.818   0.215   0.353  1.7841 -2.0281 -1.1666
15145TIP3    H266851   1.712   0.107   0.358 -1.4335  1.0220  0.1610
15146TIP3   OH266852   4.452   2.328   6.239 -0.7465 -0.2749  0.4185
15146TIP3    H166853   4.414   2.343   6.153 -0.3251  0.9586  0.4287
15146TIP3    H266854   4.427   2.405   6.290 -0.1156 -0.4989  1.0876
15147TIP3   OH266855   0.794   3.077   0.202 -0.2245 -0.3007 -0.2707
15147TIP3    H166856   0.726   3.145   0.192  0.6109  0.2409 -2.9578
15147TIP3    H266857   0.838   3.100   0.284 -0.7565  1.7200 -0.4824
15148TIP3   OH266858   2.832   1.649   0.206 -0.1002 -0.4153 -0.1649
15148TIP3    H166859   2.828   1.624   0.299 -1.9059  1.0202  0.1900
15148TIP3    H266860   2.777   1.584   0.162 -0.5057 -0.1813 -0.0054
15149TIP3   OH266861   4.877   5.146   4.401  0.6571  0.0094 -0.1205
15149TIP3    H166862   4.821   5.140   4.479 -0.4552 -1.2779 -0.9716
15149TIP3    H266863   4.822   5.191   4.336  0.8946 -0.5420 -0.7119
15150TIP3   OH266864   3.182   6.332   3.255  0.0111 -0.1381  0.5416
15150TIP3    H166865   3.204   6.409   3.308 -0.0681  0.0752  0.2726
15150TIP3    H266866   3.171   6.261   3.318  0.4010 -0.0007  0.7676
15151TIP3   OH266867   6.357   5.642  13.933 -0.2244  0.2593  0.1419
15151TIP3    H166868   6.389   5.668  14.020 -0.2769 -1.5649  0.7437
15151TIP3    H266869   6.395   5.706  13.874  2.9381 -0.5917  1.0727
15152TIP3   OH266870   1.441   4.209  16.248  0.1942 -0.5725  0.4977
15152TIP3    H166871   1.490   4.220  16.167  1.1471 -0.3411  1.0954
15152TIP3    H266872   1.355   4.177  16.219 -0.3590  1.8205 -0.8238
15153TIP3   OH266873   6.519   5.809   1.656 -0.3517 -0.0654 -0.2158
15153TIP3    H166874   6.532   5.902   1.675  2.3695  0.3807 -3.3847
15153TIP3    H266875   6.448   5.808   1.591 -0.5905 -0.2225  0.0485
15154TIP3   OH266876   1.451   6.603  12.566  0.0774  0.3292 -0.2373
15154TIP3    H166877   1.385   6.670  12.548 -0.9790 -0.8565 -0.9552
15154TIP3    H266878   1.406   6.541  12.624  1.1372  0.3887  0.6783
15155TIP3   OH266879   0.482   0.251   2.805 -0.3027 -0.3058  0.0959
15155TIP3    H166880   0.444   0.165   2.786 -0.9600 -0.2079  0.9081
15155TIP3    H266881   0.566   0.252   2.759  0.3658 -1.9230  1.2044
15156TIP3   OH266882   0.399   6.615  13.270 -0.2903  0.2469 -0.6736
15156TIP3    H166883   0.407   6.559  13.348 -0.8819 -0.6885 -1.2713
15156TIP3    H266884   0.357   6.694  13.302 -0.3739 -0.0582 -0.0066
15157TIP3   OH266885   4.262   2.291   1.429 -0.0483  0.1416  0.3082
15157TIP3    H166886   4.251   2.216   1.487 -0.2521 -0.2578 -0.2406
15157TIP3    H266887   4.183   2.292   1.375  0.1477  0.4925  0.0215
15158TIP3   OH266888   5.842   6.474   2.489  0.9118 -0.6868 -0.2770
15158TIP3    H166889   5.809   6.549   2.439  1.1032 -0.6132 -0.2934
15158TIP3    H266890   5.808   6.397   2.443  1.3214 -0.6256 -0.6834
15159TIP3   OH266891   2.864   3.841  15.450 -0.0823  0.1022  0.0799
15159TIP3    H166892   2.958   3.838  15.435 -0.3545  0.3543 -1.9005
15159TIP3    H266893   2.831   3.759  15.414 -0.3848 -1.3937  3.3505
15160TIP3   OH266894   4.911   0.198   6.089 -0.0178  0.5575  0.9054
15160TIP3    H166895   4.996   0.172   6.122  0.6661  1.6315  0.0538
15160TIP3    H266896   4.850   0.175   6.159  0.4699 -3.2109  0.3158
15161TIP3   OH266897   4.637   6.071  11.489 -0.8965  0.1853  0.3719
15161TIP3    H166898   4.644   6.158  11.530 -0.6195  0.0388  0.6418
15161TIP3    H266899   4.662   6.086  11.398 -1.3392  0.4802  0.2961
15162TIP3   OH266900   2.230   3.133  13.424 -1.0808  0.2783 -0.3434
15162TIP3    H166901   2.278   3.144  13.342  0.2848 -1.8828  0.1020
15162TIP3    H266902   2.228   3.220  13.463 -1.0533  1.1829 -2.2654
15163TIP3   OH266903   1.092   5.856   4.925  0.1468 -0.3470  0.4072
15163TIP3    H166904   1.100   5.908   5.005  1.4031  1.9272 -1.0813
15163TIP3    H266905   1.153   5.784   4.936  1.1056  0.5425  1.1071
15164TIP3   OH266906   1.902   4.775  12.324 -0.1886 -0.0556 -0.5679
15164TIP3    H166907   1.958   4.706  12.359 -0.8142  0.1030  0.8323
15164TIP3    H266908   1.844   4.730  12.263 -0.5369 -0.7718  0.2685
15165TIP3   OH266909   4.391   6.555  15.403 -0.7017  0.0970  0.4518
15165TIP3    H166910   4.368   6.503  15.480 -0.5426  0.2577  0.6109
15165TIP3    H266911   4.443   6.628  15.439  1.4985 -1.1306 -0.0721
15166TIP3   OH266912   4.336   0.226   0.088 -0.1641  0.2499  0.5442
15166TIP3    H166913   4.335   0.132   0.106  0.9238  0.2060  0.4496
15166TIP3    H266914   4.420   0.257   0.124 -0.2918  1.0953  0.1476
15167TIP3   OH266915   6.280   1.232  11.565  0.1199 -0.3790 -0.1509
15167TIP3    H166916   6.203   1.200  11.612  0.8143 -1.0892  0.5399
15167TIP3    H266917   6.350   1.172  11.591  1.1154  0.7866 -0.0623
15168TIP3   OH266918   1.585   4.852  17.087  0.2844  0.1344  0.3046
15168TIP3    H166919   1.494   4.830  17.068  0.2984 -1.7644  2.0456
15168TIP3    H266920   1.584   4.947  17.102 -0.9512  0.5131 -1.7978
15169TIP3   OH266921   3.044   1.271   3.143  0.3530 -0.6508 -0.0283
15169TIP3    H166922   3.086   1.234   3.221 -0.1823 -2.1886 -0.4380
15169TIP3    H266923   3.116   1.288   3.083  0.6181 -0.8827  0.2221
15170TIP3   OH266924   4.515   1.880   0.441  0.2310  0.6773 -0.6778
15170TIP3    H166925   4.452   1.912   0.376  0.0743 -0.0217 -0.8854
15170TIP3    H266926   4.466   1.875   0.522  0.2010  0.7712 -0.6902
15171TIP3   OH266927   2.400   1.932   0.328  0.0479  0.1440  0.1403
15171TIP3    H166928   2.462   2.004   0.343  1.1826 -0.7727 -0.0281
15171TIP3    H266929   2.328   1.949   0.389 -0.2850  2.0579 -0.7077
15172TIP3   OH266930   3.982   4.234  10.728 -0.1462  0.3368 -0.0914
15172TIP3    H166931   4.001   4.142  10.748 -1.1345  0.0198 -0.5464
15172TIP3    H266932   3.895   4.249  10.765 -0.0131  1.0767 -0.0708
15173TIP3   OH266933   2.421   4.489   0.166 -0.4654  0.0884  0.0982
15173TIP3    H166934   2.410   4.472   0.072 -1.2894  2.0097 -0.1972
15173TIP3    H266935   2.475   4.416   0.197 -1.5818 -1.5226 -1.5088
15174TIP3   OH266936   4.199   0.147  15.891  0.3679 -0.1060  0.2374
15174TIP3    H166937   4.184   0.158  15.797 -0.0966 -1.0077  0.1891
15174TIP3    H266938   4.261   0.075  15.897  1.8994  1.1911  0.5804
15175TIP3   OH266939   5.298   5.054  17.252  0.0798  0.2753  0.0029
15175TIP3    H166940   5.382   5.008  17.253  0.2296  0.5149  1.4264
15175TIP3    H266941   5.260   5.033  17.167  1.7778  0.5245 -0.8689
15176TIP3   OH266942   3.624   1.267   0.610 -0.6166 -0.2406  0.8478
15176TIP3    H166943   3.538   1.304   0.631 -0.1967 -0.2217  2.6615
15176TIP3    H266944   3.679   1.289   0.685  0.7876 -0.9135  0.0619
15177TIP3   OH266945   4.661   2.174   5.708  0.2883 -0.3839 -0.3798
15177TIP3    H166946   4.718   2.105   5.675 -0.1913 -1.7083  1.4299
15177TIP3    H266947   4.637   2.146   5.796  0.6083  2.4052  0.7072
15178TIP3   OH266948   3.391   3.767  15.320  1.0389 -0.2659  0.2391
15178TIP3    H166949   3.454   3.699  15.299  0.0382 -1.1702  0.0852
15178TIP3    H266950   3.326   3.723  15.375  1.3922  1.0372  1.7730
15179TIP3   OH266951   2.996   1.446   2.844 -0.0846  0.0216  0.1137
15179TIP3    H166952   3.083   1.447   2.886 -0.0929 -2.2869  0.3301
15179TIP3    H266953   2.992   1.361   2.800 -2.4151 -0.1154  0.4831
15180TIP3   OH266954   4.190   2.181  15.321  0.2341 -0.1599 -0.0137
15180TIP3    H166955   4.178   2.184  15.416  0.7260  0.1721  0.0418
15180TIP3    H266956   4.114   2.133  15.289  0.3141 -0.7039  0.5880
15181TIP3   OH266957   2.396   6.511  14.333 -0.0604  0.2810  0.0287
15181TIP3    H166958   2.307   6.496  14.366 -0.1210 -0.8974 -0.6102
15181TIP3    H266959   2.452   6.457  14.390  0.1792  0.5415  0.0422
15182TIP3   OH266960   2.170   2.291   4.827 -0.0575 -0.1199  0.3317
15182TIP3    H166961   2.097   2.347   4.799 -0.6133 -0.5987  0.7884
15182TIP3    H266962   2.219   2.345   4.889 -0.6060 -0.1396  0.7885
15183TIP3   OH266963   5.595   2.884   4.966  0.0503  0.2384 -0.6371
15183TIP3    H166964   5.524   2.883   5.030 -0.2629  1.1212 -0.9514
15183TIP3    H266965   5.614   2.977   4.953  0.2907  0.0610 -1.6303
15184TIP3   OH266966   3.146   2.209  13.432  0.6630  0.6435  0.4438
15184TIP3    H166967   3.166   2.236  13.342  0.3702 -0.7689 -0.0853
15184TIP3    H266968   3.080   2.271  13.462 -0.1129  0.4474 -0.7696
15185TIP3   OH266969   0.993   3.254   1.823 -0.1323 -0.3872 -0.0924
15185TIP3    H166970   1.063   3.195   1.794  0.1290 -0.2136  0.1738
15185TIP3    H266971   0.913   3.215   1.789  0.1589 -0.2173 -1.0226
15186TIP3   OH266972   3.974   5.128   0.629 -0.0917  0.2532  0.1161
15186TIP3    H166973   3.972   5.167   0.542  0.5474  1.0186  0.4266
15186TIP3    H266974   3.969   5.034   0.615  1.1714  0.3079 -0.8054
15187TIP3   OH266975   1.892   0.171   6.244 -0.1887 -0.2919 -0.5917
15187TIP3    H166976   1.857   0.212   6.165  4.2806  0.0448 -2.6822
15187TIP3    H266977   1.851   0.085   6.246 -2.2246  0.5775 -1.8793
15188TIP3   OH266978   3.230   0.540  17.120 -0.0897  0.3960  0.1704
15188TIP3    H166979   3.207   0.579  17.204 -0.9124 -1.4461  0.8401
15188TIP3    H266980   3.223   0.612  17.057 -2.4310  1.1644  1.2125
15189TIP3   OH266981   3.728   0.905   2.019 -0.4212  0.0063  0.4909
15189TIP3    H166982   3.717   0.868   1.931 -2.5138  1.9232 -0.1287
15189TIP3    H266983   3.812   0.951   2.015  0.0888 -0.9221 -0.0704
15190TIP3   OH266984   5.882   2.958   3.371 -0.4562  0.6280  0.6293
15190TIP3    H166985   5.828   2.905   3.430  1.8208  1.1909  3.5113
15190TIP3    H266986   5.930   3.017   3.430  2.0796  1.2315 -1.8328
15191TIP3   OH266987   3.094   1.256   1.258 -0.0570  0.6298 -0.3344
15191TIP3    H166988   3.116   1.188   1.322  1.0998  0.1533 -1.2023
15191TIP3    H266989   2.998   1.254   1.254 -0.1354  0.4210  1.0899
15192TIP3   OH266990   5.789   4.577   2.804  0.4170 -0.7991 -0.0183
15192TIP3    H166991   5.830   4.560   2.889 -0.2860  0.0828  0.5223
15192TIP3    H266992   5.786   4.491   2.762  0.7856 -1.2569  0.8429
15193TIP3   OH266993   3.426   2.481   0.211 -0.0689  0.2196 -0.1091
15193TIP3    H166994   3.382   2.427   0.276  0.2532  1.2819  1.0217
15193TIP3    H266995   3.355   2.521   0.161 -0.3484  0.2003  0.2660
15194TIP3   OH266996   0.463   0.297   1.488  0.1009 -0.1080  0.2327
15194TIP3    H166997   0.488   0.336   1.572 -0.3042 -2.1532  1.3662
15194TIP3    H266998   0.538   0.244   1.463 -0.6655 -1.3742  0.5276
15195TIP3   OH266999   0.636   3.374   0.605  0.0684  0.0679  0.0868
15195TIP3    H167000   0.606   3.389   0.695 -0.9759 -0.6327 -0.1188
15195TIP3    H267001   0.617   3.456   0.559 -0.8002 -0.0693  0.1711
15196TIP3   OH267002   5.614   0.185  16.202 -0.3838  0.0843 -0.0657
15196TIP3    H167003   5.666   0.140  16.268 -1.3316 -1.7147 -0.4945
15196TIP3    H267004   5.572   0.257  16.250 -0.5337 -0.7940  1.1541
15197TIP3   OH267005   0.084   2.836  13.164 -0.0485 -0.1423 -0.1520
15197TIP3    H167006   0.152   2.884  13.211 -0.2683  0.9156 -0.8673
15197TIP3    H267007   0.131   2.766  13.119 -0.1341 -2.8675  3.5917
15198TIP3   OH267008   5.524   1.375   6.148  0.0576 -0.4170 -0.0529
15198TIP3    H167009   5.515   1.452   6.204 -1.2174 -0.9747  0.5633
15198TIP3    H267010   5.463   1.391   6.076  0.9259 -0.1711 -0.7432
15199TIP3   OH267011   4.817   3.359   1.530 -0.4357 -0.3329  0.3820
15199TIP3    H167012   4.767   3.413   1.469  1.0346  1.2713  0.5399
15199TIP3    H267013   4.857   3.292   1.476 -1.3371 -0.5943  0.0122
15200TIP3   OH267014   1.517   6.064   1.576 -0.1065  0.1700  0.7804
15200TIP3    H167015   1.500   6.047   1.669 -1.2425  0.1865  0.5919
15200TIP3    H267016   1.476   6.149   1.559  0.5873  0.4349  0.3860
15201TIP3   OH267017   3.134   0.904  12.886  0.0236 -0.1409  0.4179
15201TIP3    H167018   3.229   0.892  12.894  0.2146 -0.1097 -1.4027
15201TIP3    H267019   3.123   0.984  12.836 -0.9922  0.0589  0.9217
15202TIP3   OH267020   6.400   0.315  13.440 -0.0609  0.6396  0.2228
15202TIP3    H167021   6.485   0.356  13.425  0.2311  0.5612  1.5062
15202TIP3    H267022   6.408   0.275  13.527 -1.5138  0.9197  0.5160
15203TIP3   OH267023   6.453   5.483  16.086  0.1227  0.0456 -0.6479
15203TIP3    H167024   6.371   5.508  16.128  1.2803  2.1947  0.5235
15203TIP3    H267025   6.429   5.413  16.026 -2.0416 -1.5771  1.8878
15204TIP3   OH267026   3.598   3.916   6.337 -0.4719  0.7268  0.5516
15204TIP3    H167027   3.688   3.887   6.321 -0.7908  0.3501 -0.6296
15204TIP3    H267028   3.599   4.010   6.318 -0.7943  0.3294 -1.6106
15205TIP3   OH267029   0.459   2.950  12.182 -1.0444  0.1808  0.5213
15205TIP3    H167030   0.414   2.871  12.213  0.3730 -0.2743  1.4771
15205TIP3    H267031   0.491   2.992  12.261  2.2627 -0.7476 -0.1683
15206TIP3   OH267032   2.124   4.411   5.079  0.1314  0.1176  0.6496
15206TIP3    H167033   2.127   4.317   5.065 -0.2975  0.2427 -0.3451
15206TIP3    H267034   2.050   4.441   5.027  1.9014  1.3704 -1.2993
15207TIP3   OH267035   5.880   4.441   5.077  0.5747  0.7130  0.2780
15207TIP3    H167036   5.908   4.492   5.152 -0.8359  0.9541  0.6795
15207TIP3    H267037   5.905   4.494   5.001  1.4963  0.7343  0.5855
15208TIP3   OH267038   0.795   2.177   5.858  0.9464 -0.0604 -0.2198
15208TIP3    H167039   0.887   2.153   5.867  0.9129  0.3208  1.4164
15208TIP3    H267040   0.796   2.265   5.822  1.3780  1.3148  2.8820
15209TIP3   OH267041   2.296   5.689  15.591  0.1045 -0.3678  0.3816
15209TIP3    H167042   2.295   5.594  15.578  1.0193 -0.5727  1.6612
15209TIP3    H267043   2.203   5.714  15.596 -0.1415 -1.4763  1.9086
15210TIP3   OH267044   2.780   6.772  13.022 -0.0513  0.5161  0.6330
15210TIP3    H167045   2.757   6.763  13.115 -0.4746 -0.1995  0.4683
15210TIP3    H267046   2.708   6.728  12.976  0.8229 -0.3132  0.0275
15211TIP3   OH267047   4.859   2.984  15.312  0.0759  0.0899  0.1196
15211TIP3    H167048   4.808   3.057  15.347  0.3305  0.8080 -0.9546
15211TIP3    H267049   4.860   2.920  15.382 -1.9729  0.2106  0.3220
15212TIP3   OH267050   1.577   6.015  13.774  0.3190 -0.1239  0.6223
15212TIP3    H167051   1.484   6.033  13.788  0.6191  0.1909  2.4998
15212TIP3    H267052   1.612   6.096  13.736 -0.1269 -0.1796  0.0853
15213TIP3   OH267053   1.420   5.894   3.843  0.3085 -0.3063 -0.1639
15213TIP3    H167054   1.382   5.979   3.820 -0.2260 -0.1059  1.3416
15213TIP3    H267055   1.481   5.914   3.915 -0.0881 -1.2320  0.4483
15214TIP3   OH267056   2.731   2.488  14.007  0.4670 -0.3466 -0.2044
15214TIP3    H167057   2.815   2.481  13.961 -0.0485 -1.2005 -1.0536
15214TIP3    H267058   2.675   2.422  13.966 -0.5199 -0.0389  0.5888
15215TIP3   OH267059   6.037   6.216   4.484 -0.5089 -0.8121  0.5336
15215TIP3    H167060   6.027   6.227   4.579  1.0143 -0.7841  0.7214
15215TIP3    H267061   6.122   6.256   4.464 -0.1771 -2.0077 -0.6262
15216TIP3   OH267062   0.335   4.691   0.265  0.3633  0.9221  0.0675
15216TIP3    H167063   0.280   4.613   0.258  0.5622  0.8380 -0.6727
15216TIP3    H267064   0.403   4.678   0.199  1.2149  1.0753  0.8843
15217TIP3   OH267065   4.470   0.079  11.566 -0.6309  0.3321  0.4261
15217TIP3    H167066   4.422   0.072  11.648  0.0994 -0.3901  0.8129
15217TIP3    H267067   4.555   0.039  11.585  0.0315  1.3472 -0.3096
15218TIP3   OH267068   3.279   2.948   0.781  0.8148 -0.1093  0.3569
15218TIP3    H167069   3.261   2.955   0.875 -0.0995 -0.1380  0.1915
15218TIP3    H267070   3.310   2.858   0.769  1.0821 -0.0567  0.6568
15219TIP3   OH267071   3.555   5.981   1.992 -0.0350  0.3186 -0.4546
15219TIP3    H167072   3.575   5.898   2.034 -2.7491 -1.3137 -2.1301
15219TIP3    H267073   3.482   6.017   2.042  0.3727  1.1221 -0.4262
15220TIP3   OH267074   3.252   6.171   0.481 -0.7291  0.2719 -0.5649
15220TIP3    H167075   3.228   6.253   0.523 -0.9936 -0.3057  0.4523
15220TIP3    H267076   3.334   6.189   0.436 -0.9206  1.1562 -0.5689
15221TIP3   OH267077   5.716   5.680  15.269  0.2404 -0.0500 -0.2133
15221TIP3    H167078   5.751   5.676  15.358  1.6615 -0.6497 -0.7766
15221TIP3    H267079   5.701   5.589  15.245  0.7587  0.0467 -0.9270
15222TIP3   OH267080   4.590   3.224   5.265  0.0669 -0.0868  0.1273
15222TIP3    H167081   4.634   3.283   5.327  0.6863  0.5815 -0.9132
15222TIP3    H267082   4.497   3.248   5.272  0.0858 -0.2222  0.9952
15223TIP3   OH267083   3.598   0.207  16.482 -0.1078  0.2470 -0.3921
15223TIP3    H167084   3.668   0.254  16.526 -0.3946 -0.3297  0.7197
15223TIP3    H267085   3.627   0.200  16.391  1.0708  0.3921 -0.0427
15224TIP3   OH267086   2.265   0.035   5.438  0.4421 -0.4295  0.1184
15224TIP3    H167087   2.170   0.027   5.426  0.4166 -0.6557  0.4482
15224TIP3    H267088   2.294   0.088   5.364 -0.1299  0.7554  0.7073
15225TIP3   OH267089   4.785   3.280  13.068 -0.9287  0.4543  0.3681
15225TIP3    H167090   4.723   3.247  13.003 -0.0504  0.4080 -0.4694
15225TIP3    H267091   4.754   3.244  13.152 -2.1157  0.5712  0.0034
15226TIP3   OH267092   5.675   0.860   2.137 -0.1642  0.2685  0.0851
15226TIP3    H167093   5.722   0.820   2.211 -0.6310  1.1768  0.8908
15226TIP3    H267094   5.666   0.788   2.074  2.6320  0.1507 -0.3052
15227TIP3   OH267095   3.484   6.071  15.465  0.6754  0.3477  0.2906
15227TIP3    H167096   3.485   6.008  15.536 -2.1166  1.7111  1.7240
15227TIP3    H267097   3.558   6.129  15.483 -0.2176  0.9245  2.4397
15228TIP3   OH267098   2.715   2.270   4.152 -0.5420  0.8842  0.0751
15228TIP3    H167099   2.714   2.216   4.072  0.7490  0.2311  0.4651
15228TIP3    H267100   2.793   2.240   4.199  0.9371  3.9054 -0.2256
15229TIP3   OH267101   5.968   3.582  16.040  0.3984 -0.0705  0.0161
15229TIP3    H167102   5.997   3.552  15.954 -1.5868 -1.3335 -0.2848
15229TIP3    H267103   6.048   3.613  16.083  1.7768 -1.3021 -1.5225
15230TIP3   OH267104   1.630   4.756  16.551 -0.3013  0.1932 -0.2334
15230TIP3    H167105   1.652   4.663  16.541 -0.4202  0.0809  0.5095
15230TIP3    H267106   1.715   4.800  16.549 -0.1334 -0.0620  0.7092
15231TIP3   OH267107   0.714   5.946  12.712  0.3153  0.3291  0.3153
15231TIP3    H167108   0.671   5.907  12.788  0.5946  0.6434  0.6346
15231TIP3    H267109   0.804   5.962  12.740  0.5746 -0.0661 -0.2598
15232TIP3   OH267110   1.157   4.760   3.031 -0.0547 -0.2923  0.3393
15232TIP3    H167111   1.150   4.679   2.981  0.3777 -0.6278  0.8131
15232TIP3    H267112   1.236   4.749   3.083 -0.7041 -0.1261  1.3984
15233TIP3   OH267113   4.247   1.406  16.789 -0.2860 -0.2388 -0.6632
15233TIP3    H167114   4.306   1.478  16.767 -1.0397  0.3136 -0.9132
15233TIP3    H267115   4.286   1.367  16.868 -1.0451  1.8788  0.8539
15234TIP3   OH267116   0.355   0.676   4.318  0.1689 -0.0122  0.6974
15234TIP3    H167117   0.372   0.584   4.298  0.1557  0.0063  0.6041
15234TIP3    H267118   0.261   0.680   4.336 -0.3922  0.4718 -1.9542
15235TIP3   OH267119   5.062   0.217   0.457  0.9808  0.1867 -0.1476
15235TIP3    H167120   5.096   0.275   0.525 -1.2466  0.4910  0.7812
15235TIP3    H267121   5.019   0.147   0.505 -0.6519  0.4170 -1.1910
15236TIP3   OH267122   0.112   1.477  13.916 -1.0718 -0.3243  0.3689
15236TIP3    H167123   0.196   1.520  13.928 -0.6577 -0.7600 -0.8445
15236TIP3    H267124   0.132   1.399  13.864 -2.3348 -0.0083 -0.6330
15237TIP3   OH267125   4.025   6.105  17.085 -0.2480  0.7084  0.2127
15237TIP3    H167126   4.058   6.022  17.052 -1.0195  0.8502 -0.9628
15237TIP3    H267127   3.953   6.081  17.143  0.2691  0.5178  0.7868
15238TIP3   OH267128   2.497   4.983   4.697  0.2529  0.1925  0.1431
15238TIP3    H167129   2.460   5.027   4.621  0.5887 -0.1304 -0.2091
15238TIP3    H267130   2.470   4.892   4.687 -1.5678  0.5080  1.5398
15239TIP3   OH267131   6.555   5.288  13.918  0.5751 -0.5205  0.2874
15239TIP3    H167132   6.637   5.243  13.939  0.2758 -0.5815  1.4376
15239TIP3    H267133   6.495   5.261  13.988  0.0943  0.8762  0.4457
15240TIP3   OH267134   6.285   3.499  15.993 -0.1864  0.1655  0.1868
15240TIP3    H167135   6.299   3.594  15.985  0.1983  0.2706  1.8731
15240TIP3    H267136   6.373   3.463  16.009 -0.3848 -0.4351 -0.0433
15241TIP3   OH267137   4.283   3.978   5.378 -0.5530 -0.3139  0.5285
15241TIP3    H167138   4.311   3.915   5.445 -0.0756  0.2179  0.8488
15241TIP3    H267139   4.362   4.029   5.360 -0.3151 -1.2720 -1.4000
15242TIP3   OH267140   0.096   3.775  11.652  0.5747  0.3876  0.0158
15242TIP3    H167141   0.104   3.738  11.740 -1.2450  0.5502  0.2873
15242TIP3    H267142   0.003   3.767  11.631  1.2603 -1.6774 -2.8022
15243TIP3   OH267143   3.005   1.527  12.905 -0.3167 -0.0671 -0.2796
15243TIP3    H167144   2.971   1.438  12.900  0.0576 -0.2504  0.2861
15243TIP3    H267145   3.032   1.537  12.997  1.4707 -0.0463 -0.7712
15244TIP3   OH267146   5.007   1.448   1.935 -0.5088  0.5274  0.2358
15244TIP3    H167147   4.962   1.443   2.020 -1.2738  1.8267 -0.0499
15244TIP3    H267148   5.024   1.542   1.923  2.3611  0.1066  0.3159
15245TIP3   OH267149   2.946   6.365   1.523  0.1140 -0.5487  0.2317
15245TIP3    H167150   3.023   6.313   1.501 -0.2932 -0.2436 -2.1625
15245TIP3    H267151   2.982   6.449   1.553  0.7180 -0.7964  0.2238
15246TIP3   OH267152   3.546   0.018  13.091 -0.1759 -0.0961 -0.2667
15246TIP3    H167153   3.631   0.054  13.064 -0.3256  0.0507 -0.5500
15246TIP3    H267154   3.544  -0.069  13.051 -0.7369  0.4326 -1.4121
15247TIP3   OH267155   2.556   3.435  14.267 -0.1266 -0.2208  0.3701
15247TIP3    H167156   2.473   3.437  14.315 -0.0593 -0.4220  0.4942
15247TIP3    H267157   2.621   3.465  14.331 -0.2221  0.7774  0.0286
15248TIP3   OH267158   5.302   1.322  16.043  0.5054 -0.0114  0.3920
15248TIP3    H167159   5.330   1.257  16.107  0.0310 -1.7346 -1.0519
15248TIP3    H267160   5.233   1.279  15.993  1.6605  0.7591 -2.0494
15249TIP3   OH267161   3.818   5.396  13.622 -0.4367 -0.7912 -0.1443
15249TIP3    H167162   3.860   5.366  13.703 -0.2866 -0.5966 -0.1479
15249TIP3    H267163   3.889   5.436  13.572 -0.6078 -0.5557 -0.1977
15250TIP3   OH267164   4.029   1.766  14.020 -0.8211 -0.2346  0.3093
15250TIP3    H167165   4.110   1.721  14.042  0.3131  0.9707 -1.1914
15250TIP3    H267166   4.056   1.855  13.999 -2.7932  0.7596  1.6305
15251TIP3   OH267167   3.056   3.390   2.799  0.2918  0.1003 -0.2993
15251TIP3    H167168   3.010   3.416   2.720  0.4116  0.2243 -0.3287
15251TIP3    H267169   3.095   3.305   2.778  0.1640  0.0445 -0.3087
15252TIP3   OH267170   4.846   6.356   0.762  0.2349  0.1315  0.1552
15252TIP3    H167171   4.874   6.441   0.797 -0.3376  0.3351  0.1429
15252TIP3    H267172   4.762   6.375   0.719 -0.1570 -0.5403  0.6070
15253TIP3   OH267173   0.796   3.709  16.469 -0.7435 -0.0916  0.2176
15253TIP3    H167174   0.720   3.659  16.501  0.2648 -0.7524  1.7171
15253TIP3    H267175   0.839   3.740  16.549  0.4089  0.5185 -0.6136
15254TIP3   OH267176   4.929   5.079   3.659 -0.2424  0.2412 -0.2770
15254TIP3    H167177   5.018   5.061   3.631 -0.7473  0.4322 -2.1564
15254TIP3    H267178   4.892   4.993   3.680  0.2347  0.1140  0.0494
15255TIP3   OH267179   3.557   6.533   3.115 -0.9084  0.2686 -0.6078
15255TIP3    H167180   3.536   6.440   3.109  0.2718 -0.0897  0.4721
15255TIP3    H267181   3.556   6.552   3.209 -3.4334  1.9224 -0.8734
15256TIP3   OH267182   4.082   2.519   2.654  0.0403  0.5035 -0.4931
15256TIP3    H167183   4.120   2.575   2.722  0.5103 -0.2498 -0.1134
15256TIP3    H267184   4.098   2.565   2.572 -0.1048  1.2018 -0.1331
15257TIP3   OH267185   2.182   4.698  16.285 -0.3365 -0.2290  0.2169
15257TIP3    H167186   2.164   4.775  16.232  2.0733  1.4091  1.5686
15257TIP3    H267187   2.254   4.654  16.239  0.0001 -0.2545  0.7611
15258TIP3   OH267188   1.713   3.391  14.247  0.5008  0.5400 -0.1219
15258TIP3    H167189   1.767   3.456  14.203 -1.0047  0.5460 -2.0954
15258TIP3    H267190   1.770   3.314  14.255  1.5218  1.2961  0.0159
15259TIP3   OH267191   2.336   2.084   5.327 -0.5257  0.1581  0.1458
15259TIP3    H167192   2.347   2.135   5.407 -2.5108  0.0437  0.5366
15259TIP3    H267193   2.364   2.143   5.257  0.5857  0.4967  0.8475
15260TIP3   OH267194   4.484   3.476   4.376  0.4111  0.0819 -0.2174
15260TIP3    H167195   4.410   3.470   4.315 -1.1724 -0.2814  1.6230
15260TIP3    H267196   4.495   3.386   4.409 -0.3560  0.6366  1.7170
15261TIP3   OH267197   0.744   1.325   5.224  0.6386  0.2887  0.2101
15261TIP3    H167198   0.689   1.277   5.162  0.8538 -0.3986  0.5380
15261TIP3    H267199   0.813   1.363   5.171  0.5570  0.0911 -0.0402
15262TIP3   OH267200   3.352   5.914   0.427 -0.2591 -0.1263 -0.3614
15262TIP3    H167201   3.327   5.998   0.466 -0.9319  1.6604 -4.1760
15262TIP3    H267202   3.268   5.872   0.405  0.0910 -1.3784  0.5764
15263TIP3   OH267203   4.409   2.346   3.281  0.5701 -0.0188  0.0732
15263TIP3    H167204   4.449   2.269   3.241 -0.8238  0.4006 -2.3023
15263TIP3    H267205   4.318   2.321   3.296 -0.4938  1.7565 -2.7594
15264TIP3   OH267206   3.936   2.689   0.436 -0.1499 -0.2441  0.3777
15264TIP3    H167207   4.003   2.757   0.437  0.3251 -0.7074  0.3387
15264TIP3    H267208   3.856   2.735   0.408  0.4601  0.0288 -0.9878
15265TIP3   OH267209   4.650   3.589   2.984 -0.6560  0.2841 -0.0050
15265TIP3    H167210   4.686   3.574   3.072 -1.0798 -2.0953 -0.1725
15265TIP3    H267211   4.568   3.540   2.984  0.3169 -1.5102 -2.3541
15266TIP3   OH267212   6.260   0.282  15.700  0.5304 -0.2215  0.3500
15266TIP3    H167213   6.318   0.233  15.643  1.5227  2.6245 -1.3052
15266TIP3    H267214   6.316   0.314  15.771  0.4680  0.4650  0.1031
15267TIP3   OH267215   0.816   4.107   2.524  0.2912  0.0656  0.3146
15267TIP3    H167216   0.886   4.058   2.482 -0.7300 -0.4524 -0.8650
15267TIP3    H267217   0.848   4.196   2.529  0.9605 -0.1256 -0.4018
15268TIP3   OH267218   1.924   5.445  12.932 -0.5289 -0.4993 -0.4486
15268TIP3    H167219   1.870   5.520  12.956  1.6103  1.9240 -2.5149
15268TIP3    H267220   1.882   5.409  12.854 -1.0036 -0.8790 -0.0314
15269TIP3   OH267221   0.948   2.012   4.844  0.5663 -0.3010  0.3557
15269TIP3    H167222   1.021   2.072   4.827 -1.1341  1.9630  0.5935
15269TIP3    H267223   0.896   2.015   4.764 -2.0923  2.4741  1.9877
15270TIP3   OH267224   4.762   2.209  10.530  0.4228 -0.2534 -0.4662
15270TIP3    H167225   4.786   2.282  10.474 -0.3226 -0.1840 -0.7061
15270TIP3    H267226   4.787   2.238  10.618 -2.2075  1.4313 -0.1575
15271TIP3   OH267227   0.306   3.838   5.275  0.7278  0.0812  0.0125
15271TIP3    H167228   0.324   3.762   5.220  2.8003  0.2430  0.4106
15271TIP3    H267229   0.211   3.851   5.268  0.8406 -0.2065 -3.1081
15272TIP3   OH267230   6.044   4.903  14.013  0.4119  0.4984 -0.2183
15272TIP3    H167231   6.076   4.821  14.051 -0.5350  0.2657  0.1065
15272TIP3    H267232   6.087   4.909  13.928  0.1726 -0.5574 -0.4252
15273TIP3   OH267233   0.081   4.053   2.345 -0.2586  0.0737 -0.4887
15273TIP3    H167234   0.004   4.071   2.290  0.1277 -0.5676 -1.2733
15273TIP3    H267235   0.113   3.968   2.313 -0.2176 -0.4804  0.9749
15274TIP3   OH267236   3.887   5.904  15.700 -0.3624  0.1720  0.0141
15274TIP3    H167237   3.945   5.856  15.640 -2.5208 -1.0352 -1.2158
15274TIP3    H267238   3.829   5.837  15.736 -1.1192  1.3604  1.0857
15275TIP3   OH267239   1.532   1.776  14.127 -0.3489 -0.4694  0.2114
15275TIP3    H167240   1.581   1.694  14.128 -1.6942 -1.3098  0.1525
15275TIP3    H267241   1.531   1.802  14.035 -0.2117 -0.5779  0.1792
15276TIP3   OH267242   3.946   0.548  15.980 -0.5489 -0.1048  0.1402
15276TIP3    H167243   3.852   0.539  15.964 -0.9030  1.0711  1.3581
15276TIP3    H267244   3.956   0.637  16.014  1.3579  0.7211 -2.2455
15277TIP3   OH267245   2.302   1.615   2.437 -0.6774  0.2775 -0.5863
15277TIP3    H167246   2.222   1.663   2.418 -0.1493  1.4937  0.1597
15277TIP3    H267247   2.272   1.529   2.467 -1.8085  1.2815  1.3771
15278TIP3   OH267248   2.709   0.745  13.505 -0.1385  0.3233  0.2137
15278TIP3    H167249   2.649   0.775  13.438  0.5057  1.3077  0.0594
15278TIP3    H267250   2.734   0.657  13.477 -0.9229  0.1939 -0.1031
15279TIP3   OH267251   3.603   5.895  12.976  0.5009  0.5237 -0.4639
15279TIP3    H167252   3.685   5.870  13.019  1.0821  2.5773 -0.2626
15279TIP3    H267253   3.535   5.861  13.034  1.2528  1.0839  0.8109
15280TIP3   OH267254   2.345   2.319   6.261  0.1336 -0.3399  0.7024
15280TIP3    H167255   2.349   2.276   6.175 -2.0391  1.1406 -0.2492
15280TIP3    H267256   2.424   2.372   6.265 -0.0456  0.0756 -0.7126
15281TIP3   OH267257   4.926   1.168   1.440 -0.8475 -0.3813 -0.9499
15281TIP3    H167258   4.965   1.234   1.496 -0.6038 -0.4681 -1.0156
15281TIP3    H267259   4.890   1.217   1.366 -1.2589 -0.2573 -0.6680
15282TIP3   OH267260   3.143   0.824  10.741  0.0673 -0.1073 -0.4117
15282TIP3    H167261   3.162   0.825  10.647 -0.6949  2.6036 -0.6121
15282TIP3    H267262   3.048   0.814  10.746 -0.0025  0.6657  0.0001
15283TIP3   OH267263   2.929   2.125   4.267  0.0160 -0.4815  0.0342
15283TIP3    H167264   2.913   2.056   4.203 -1.0562  1.9105 -2.5011
15283TIP3    H267265   2.977   2.192   4.219  1.4873  0.3991  2.5313
15284TIP3   OH267266   6.595   1.458  16.530  0.2771 -0.4247 -0.1721
15284TIP3    H167267   6.615   1.514  16.605  2.7998 -0.4153 -0.7599
15284TIP3    H267268   6.558   1.518  16.465 -1.8591 -0.4209  0.9440
15285TIP3   OH267269   3.275   6.571   5.346 -0.3846 -0.0995 -0.4930
15285TIP3    H167270   3.359   6.530   5.325  0.5070  1.0398  0.5835
15285TIP3    H267271   3.276   6.577   5.442 -1.5573  0.2177 -0.4932
15286TIP3   OH267272   0.387   5.933  13.767 -0.4134  0.4239 -0.6009
15286TIP3    H167273   0.423   5.863  13.713  2.0424  1.1630 -0.0595
15286TIP3    H267274   0.418   6.013  13.726 -0.5607  1.0783  0.5307
15287TIP3   OH267275   2.966   1.973   4.993 -0.1329 -0.4101  0.4142
15287TIP3    H167276   3.045   1.939   5.036  0.0306 -1.1472 -0.4278
15287TIP3    H267277   2.897   1.962   5.059 -0.2179 -3.0129  0.0106
15288TIP3   OH267278   5.176   6.595   6.105  0.7259 -0.5922  0.0182
15288TIP3    H167279   5.170   6.606   6.200  2.1620  1.0224 -0.0111
15288TIP3    H267280   5.094   6.554   6.080 -0.7024  1.0477  1.6950
15289TIP3   OH267281   3.615   4.025   2.739 -0.0744  0.2740  0.0059
15289TIP3    H167282   3.662   3.956   2.785  0.5605  0.8282  0.2042
15289TIP3    H267283   3.525   3.993   2.731 -0.0855 -0.0133  1.2276
15290TIP3   OH267284   0.419   0.719   6.519  0.0985  0.3663 -0.5016
15290TIP3    H167285   0.361   0.792   6.496  0.5590  0.8834 -0.0410
15290TIP3    H267286   0.363   0.642   6.512 -0.1808  0.6540 -1.8280
15291TIP3   OH267287   3.197   0.001   5.774  0.2816  0.0566  0.5048
15291TIP3    H167288   3.216  -0.084   5.734 -1.7092  0.2701 -1.0298
15291TIP3    H267289   3.102  -0.001   5.790  0.4069  1.5202  1.6449
15292TIP3   OH267290   3.543   0.394   2.501 -0.3467  0.1958 -0.3896
15292TIP3    H167291   3.532   0.480   2.460  0.1636  0.6022  0.3038
15292TIP3    H267292   3.481   0.395   2.574  0.8032  0.6279  0.6138
15293TIP3   OH267293   3.535   5.050   0.911 -0.3223  0.3299 -0.1573
15293TIP3    H167294   3.571   4.990   0.846  0.0456  0.8689 -0.4561
15293TIP3    H267295   3.443   5.027   0.917  0.3944 -2.4401  2.0871
15294TIP3   OH267296   0.422   6.276  10.240 -0.1246  0.4397  0.2642
15294TIP3    H167297   0.468   6.199  10.273 -0.1310  0.4987  0.4098
15294TIP3    H267298   0.467   6.350  10.281  4.2815  1.0770 -4.6389
15295TIP3   OH267299   0.363   6.161   2.411 -0.2309 -0.1044  0.0330
15295TIP3    H167300   0.279   6.203   2.390 -0.0760 -0.5109 -1.5823
15295TIP3    H267301   0.400   6.214   2.481 -0.6752  1.6268 -0.9873
15296TIP3   OH267302   5.483   0.705  15.029 -0.3625 -0.1449 -0.1474
15296TIP3    H167303   5.388   0.701  15.027 -0.3675 -3.0711  1.1306
15296TIP3    H267304   5.510   0.626  15.075  2.7177  0.5137 -0.5669
15297TIP3   OH267305   5.935   1.019  14.812  0.4083  0.0841 -0.7493
15297TIP3    H167306   5.987   1.016  14.892 -1.6300  0.2517  0.6711
15297TIP3    H267307   5.949   0.933  14.771 -1.2347 -1.4618  1.6975
15298TIP3   OH267308   3.143   0.291  12.757 -0.3827  0.0455 -0.0483
15298TIP3    H167309   3.141   0.317  12.849  0.1456  1.2636 -0.3710
15298TIP3    H267310   3.232   0.312  12.728  0.0345 -1.9752 -0.3859
15299TIP3   OH267311   5.435   3.861   0.048  0.1163 -0.5200 -0.2772
15299TIP3    H167312   5.453   3.941   0.098 -1.6333 -0.3162  0.0925
15299TIP3    H267313   5.391   3.892  -0.031  0.1907 -1.0558 -0.5331
15300TIP3   OH267314   4.140   3.666  12.798  0.1500  0.2942 -0.3438
15300TIP3    H167315   4.118   3.742  12.744  1.6435  1.6039  0.7939
15300TIP3    H267316   4.225   3.688  12.836 -0.3506 -1.0571  1.6815
15301TIP3   OH267317   4.269   6.206  12.052 -0.3125  0.0110 -0.5333
15301TIP3    H167318   4.315   6.164  12.124 -2.1411  0.2664  0.8393
15301TIP3    H267319   4.338   6.229  11.990  1.3680  0.1415  1.3029
15302TIP3   OH267320   1.416   5.919   2.528  0.5172  0.8849 -0.8622
15302TIP3    H167321   1.337   5.880   2.565  1.6262  0.6906  1.4906
15302TIP3    H267322   1.390   5.949   2.441 -1.3630 -1.7206 -1.3016
15303TIP3   OH267323   3.380   1.471   0.423 -0.3116  0.2725 -0.2338
15303TIP3    H167324   3.365   1.565   0.434 -1.1871  0.0957  0.1616
15303TIP3    H267325   3.466   1.465   0.383  0.5498  1.1716  1.3987
15304TIP3   OH267326   0.985   0.278   3.211 -0.2730 -0.8108 -0.2258
15304TIP3    H167327   0.977   0.219   3.286  3.1502 -0.9870  0.1858
15304TIP3    H267328   1.009   0.220   3.138  0.7540 -0.2090 -0.3833
15305TIP3   OH267329   1.268   3.195   5.284  0.5358 -0.5765  0.8745
15305TIP3    H167330   1.190   3.200   5.227 -0.9775  0.3612  2.8935
15305TIP3    H267331   1.259   3.270   5.343  1.7417 -1.7765  2.6870
15306TIP3   OH267332   4.234   3.122  14.978  0.6027 -0.2768  0.2421
15306TIP3    H167333   4.141   3.105  14.995  0.3422  1.0575  0.2130
15306TIP3    H267334   4.244   3.108  14.884  0.3574 -0.0963  0.1892
15307TIP3   OH267335   5.215   4.434   5.540  0.0815 -0.1764 -0.0357
15307TIP3    H167336   5.260   4.418   5.623  0.7513 -1.6941 -0.6397
15307TIP3    H267337   5.276   4.404   5.474 -0.0545  1.9063 -1.1757
15308TIP3   OH267338   0.912   4.971   1.071  0.4486 -0.2013 -0.4418
15308TIP3    H167339   0.907   5.066   1.084 -0.2298 -0.3991  0.9573
15308TIP3    H267340   0.838   4.951   1.013 -0.3153 -0.0455  0.4576
15309TIP3   OH267341   1.024   3.630   5.918  0.2373 -0.2134 -0.2822
15309TIP3    H167342   1.045   3.640   6.010  2.2596 -0.9224 -0.6202
15309TIP3    H267343   1.105   3.598   5.878 -1.1386 -1.8310 -1.9556
15310TIP3   OH267344   0.862   4.773  16.888  0.1822 -0.1492  0.2182
15310TIP3    H167345   0.924   4.757  16.816  1.1056 -2.1925  1.3825
15310TIP3    H267346   0.821   4.688  16.904 -3.9285  1.3179 -1.2305
15311TIP3   OH267347   5.391   5.496   3.951  0.5640  0.2498 -0.4620
15311TIP3    H167348   5.447   5.422   3.976  0.2447  0.2278  0.2187
15311TIP3    H267349   5.352   5.524   4.033 -1.9141 -0.9523 -1.1298
15312TIP3   OH267350   4.091   3.067  13.672 -0.1693 -0.5178  0.3509
15312TIP3    H167351   4.029   3.139  13.659  1.0774  0.2560 -1.7644
15312TIP3    H267352   4.084   3.014  13.593  0.5652 -1.4656  0.8995
15313TIP3   OH267353   2.044   4.741  11.417  0.3874 -0.1666 -0.0536
15313TIP3    H167354   2.050   4.660  11.367 -0.8515  0.8045 -1.8738
15313TIP3    H267355   1.972   4.727  11.477 -1.5199  0.3798 -2.0812
15314TIP3   OH267356   5.224   4.164  12.365 -0.0421  0.3936 -0.2987
15314TIP3    H167357   5.265   4.249  12.379 -2.5658  1.9673 -1.6888
15314TIP3    H267358   5.271   4.127  12.290  1.0874  0.5101  0.3297
15315TIP3   OH267359   2.585   0.080  15.949  0.4302 -0.3440  0.3645
15315TIP3    H167360   2.626   0.125  16.023 -0.9397  0.0797  0.8984
15315TIP3    H267361   2.534   0.148  15.904  0.9323 -0.6758 -0.7614
15316TIP3   OH267362   5.500   3.570  10.989 -0.2012  0.1927  0.0811
15316TIP3    H167363   5.440   3.583  10.917 -0.4545 -1.7004 -0.0957
15316TIP3    H267364   5.585   3.556  10.947  0.5064  3.1125  0.3346
15317TIP3   OH267365   4.869   2.618   4.785 -0.3619  0.3275  0.1502
15317TIP3    H167366   4.874   2.711   4.763 -1.6595  0.2948 -0.3864
15317TIP3    H267367   4.819   2.615   4.867 -1.2094  0.0600 -0.3602
15318TIP3   OH267368   6.074   3.325   5.145 -0.7566  0.3958 -0.0312
15318TIP3    H167369   5.995   3.342   5.196 -0.5497  0.8785  0.1307
15318TIP3    H267370   6.108   3.412   5.122  0.9125  0.2690  1.7368
15319TIP3   OH267371   2.468   0.294   2.864 -0.3443  0.0690  0.2108
15319TIP3    H167372   2.497   0.203   2.864 -2.4808 -0.7611  2.4020
15319TIP3    H267373   2.387   0.293   2.813  1.7074  1.7300 -3.4029
15320TIP3   OH267374   5.249   1.304   5.967  0.3613 -0.4159 -0.0348
15320TIP3    H167375   5.214   1.321   6.054 -0.3518 -0.8514 -0.2185
15320TIP3    H267376   5.317   1.238   5.981  0.7146  0.0096  0.2662
15321TIP3   OH267377   5.405   2.512   2.558 -0.1452  0.5995  0.4114
15321TIP3    H167378   5.326   2.469   2.590 -0.7534  1.1614 -0.2972
15321TIP3    H267379   5.471   2.442   2.557 -0.7293  0.0331  0.6573
15322TIP3   OH267380   2.305   3.626   6.569 -0.1408 -0.3015  0.2492
15322TIP3    H167381   2.265   3.685   6.506 -0.2071  0.0150  0.5873
15322TIP3    H267382   2.397   3.652   6.571 -0.2442  0.0449  0.6790
15323TIP3   OH267383   4.413   5.238   0.688  0.1096 -0.2658 -0.1725
15323TIP3    H167384   4.416   5.187   0.607  4.1425  1.4081 -1.3349
15323TIP3    H267385   4.394   5.327   0.659  2.3500  0.5034  0.4915
15324TIP3   OH267386   4.592   5.811  11.657  0.0682 -0.2599  0.0855
15324TIP3    H167387   4.617   5.895  11.620  2.2902  0.2140  2.3962
15324TIP3    H267388   4.520   5.831  11.716  0.3920 -0.0276  0.4020
15325TIP3   OH267389   5.019   6.398  13.855  0.0724 -0.3910 -0.4477
15325TIP3    H167390   4.980   6.347  13.784  1.9229  0.0667 -1.8705
15325TIP3    H267391   4.979   6.484  13.848 -1.6095 -1.0242  0.7216
15326TIP3   OH267392   6.551   5.836  16.398 -0.0697  0.1242  1.0065
15326TIP3    H167393   6.496   5.802  16.469 -0.6684  1.1961  1.0685
15326TIP3    H267394   6.489   5.859  16.329  0.5353 -1.2643 -0.0449
15327TIP3   OH267395   1.229   3.447  13.665  0.8909 -0.1910 -0.3607
15327TIP3    H167396   1.189   3.379  13.610 -0.5648  0.0168  0.3863
15327TIP3    H267397   1.293   3.490  13.608  0.1314 -0.6272 -1.5834
15328TIP3   OH267398   1.195   2.340  13.717 -0.3949  0.1066  0.5878
15328TIP3    H167399   1.243   2.288  13.782  1.0938  1.8066  0.9249
15328TIP3    H267400   1.197   2.429  13.752  2.1587  1.5030 -2.6145
15329TIP3   OH267401   5.697   2.247   6.269 -0.2580  0.2921  0.2552
15329TIP3    H167402   5.758   2.190   6.316 -0.1017  1.4517  1.5557
15329TIP3    H267403   5.711   2.227   6.177 -0.3484 -1.8525  0.6663
15330TIP3   OH267404   1.518   5.500   3.715  0.2959 -0.4666  0.0728
15330TIP3    H167405   1.437   5.549   3.709 -0.9636 -2.5682 -1.1567
15330TIP3    H267406   1.567   5.525   3.637 -0.1801 -0.8736 -0.3607
15331TIP3   OH267407   6.550   3.521  11.821 -0.2083 -0.6827 -0.0484
15331TIP3    H167408   6.541   3.591  11.886 -1.3804 -0.2842 -0.6243
15331TIP3    H267409   6.466   3.518  11.776  0.4473 -1.2017 -1.3051
15332TIP3   OH267410   3.876   1.887   0.251 -0.2664  0.5793 -0.0258
15332TIP3    H167411   3.855   1.839   0.331 -2.2441 -1.5841 -1.7174
15332TIP3    H267412   3.793   1.922   0.220  0.6048  2.1716 -0.6784
15333TIP3   OH267413   5.974   1.187   5.615  0.5604 -0.1234 -0.3895
15333TIP3    H167414   6.051   1.134   5.636  1.5206  1.2493 -0.3023
15333TIP3    H267415   6.000   1.277   5.636 -0.5014  0.5807 -1.8866
15334TIP3   OH267416   4.395   2.344  12.623  0.1286  0.3871  0.0676
15334TIP3    H167417   4.347   2.425  12.637  0.1041  0.7470 -1.8522
15334TIP3    H267418   4.467   2.369  12.565  1.0648 -0.6661  0.7389
15335TIP3   OH267419   5.117   0.369   0.934 -0.8545 -0.1023 -0.4210
15335TIP3    H167420   5.093   0.403   0.848  0.8656  1.9065 -0.1870
15335TIP3    H267421   5.100   0.442   0.994 -0.1972 -0.7973  0.6315
15336TIP3   OH267422   2.313   3.507   3.486 -0.3481  0.1073  0.0804
15336TIP3    H167423   2.347   3.590   3.518 -0.0473 -0.4781  1.3443
15336TIP3    H267424   2.247   3.532   3.421 -0.3928  1.3327  0.5676
15337TIP3   OH267425   6.398   6.380   4.923 -0.2320  0.6926  0.2789
15337TIP3    H167426   6.475   6.437   4.922 -0.5966  1.1995 -1.1741
15337TIP3    H267427   6.328   6.435   4.957 -0.0945  0.4119  1.0297
15338TIP3   OH267428   1.826   0.534   3.268  0.3677  0.5021  0.3869
15338TIP3    H167429   1.918   0.523   3.292  0.4453  3.1309  1.5714
15338TIP3    H267430   1.828   0.564   3.177  0.7123  1.0255  0.5671
15339TIP3   OH267431   6.052   3.575   4.712  0.1462  0.5900  0.4816
15339TIP3    H167432   6.078   3.486   4.733 -1.9240 -0.4080 -0.8242
15339TIP3    H267433   6.127   3.612   4.665  0.2254 -1.2773 -0.9895
15340TIP3   OH267434   0.100   2.638   4.115  0.2080  0.2533  0.2356
15340TIP3    H167435   0.084   2.551   4.153  0.4895 -0.9224 -2.2042
15340TIP3    H267436   0.194   2.641   4.102  0.1937  0.9445  0.2858
15341TIP3   OH267437   5.751   0.610   3.982 -0.3875 -0.4318 -0.1209
15341TIP3    H167438   5.675   0.654   4.020 -0.8346 -1.7217  0.5700
15341TIP3    H267439   5.714   0.543   3.925  0.2814  0.6241 -1.8485
15342TIP3   OH267440   2.246   4.496   4.035  0.2819  0.1706 -0.1508
15342TIP3    H167441   2.201   4.414   4.016  0.3359 -0.3532  1.7779
15342TIP3    H267442   2.187   4.543   4.094  2.2249 -0.6891  2.7395
15343TIP3   OH267443   2.203   1.215  14.829 -0.2558  0.1520  0.1001
15343TIP3    H167444   2.126   1.200  14.773 -0.7723  1.2780  0.4886
15343TIP3    H267445   2.173   1.196  14.917 -0.3258  1.3280  0.3474
15344TIP3   OH267446   4.738   3.819  16.586  0.0854  0.1389 -0.4770
15344TIP3    H167447   4.685   3.833  16.508 -0.8384  0.0184  0.1192
15344TIP3    H267448   4.698   3.875  16.653  1.8334  1.4869 -0.4990
15345TIP3   OH267449   4.285   2.948  16.554  0.1610  0.2460 -0.0175
15345TIP3    H167450   4.343   2.934  16.479 -0.4851 -2.3006 -0.1238
15345TIP3    H267451   4.338   2.923  16.630 -0.3144 -0.7179  0.0088
15346TIP3   OH267452   3.390   0.856   4.922  0.9241  0.2126  0.1338
15346TIP3    H167453   3.442   0.898   4.991  1.3214 -1.0025  0.6099
15346TIP3    H267454   3.327   0.923   4.895  1.6030  1.1362  0.7736
15347TIP3   OH267455   2.553   6.662  15.705 -0.4899  0.3451 -0.6262
15347TIP3    H167456   2.544   6.736  15.764  1.0395  0.9450 -1.0968
15347TIP3    H267457   2.479   6.671  15.645 -2.2006 -0.4020  1.2484
15348TIP3   OH267458   5.478   2.887   2.985  0.0145 -0.1280 -0.2951
15348TIP3    H167459   5.383   2.898   2.980 -0.0889 -1.2443 -1.0970
15348TIP3    H267460   5.509   2.969   3.022 -1.3517 -0.1549  0.9880
15349TIP3   OH267461   2.986   2.060  14.862 -0.1220  0.2370  0.2943
15349TIP3    H167462   3.049   2.004  14.817 -0.8184 -0.5666  0.3096
15349TIP3    H267463   2.924   2.000  14.902  0.2408  0.9509  1.9928
15350TIP3   OH267464   6.372   2.840   4.900  0.5566  0.6174 -0.1107
15350TIP3    H167465   6.348   2.822   4.991 -1.7573  1.1874 -0.5514
15350TIP3    H267466   6.341   2.763   4.852 -1.8505  1.9768 -0.8876
15351TIP3   OH267467   2.837   5.961   3.036 -0.0485 -0.1161 -0.2412
15351TIP3    H167468   2.807   6.016   3.109 -1.0776 -0.6977 -0.2040
15351TIP3    H267469   2.841   6.021   2.961 -1.4441 -0.0357 -0.2701
15352TIP3   OH267470   1.060   4.984   3.535  0.6161 -0.2175 -0.5121
15352TIP3    H167471   0.999   4.970   3.463  0.1564 -2.1776  0.2120
15352TIP3    H267472   1.007   5.022   3.605  0.3934 -1.1718 -0.1594
15353TIP3   OH267473   1.723   5.589  11.089  0.1749 -0.7033 -0.1734
15353TIP3    H167474   1.644   5.645  11.092  1.4934  1.2706 -0.3528
15353TIP3    H267475   1.720   5.548  11.003 -0.5197 -0.4282 -0.2880
15354TIP3   OH267476   3.009   1.821  16.640 -0.2901 -0.0441 -0.0931
15354TIP3    H167477   2.918   1.797  16.625 -0.6203  0.0686  1.5247
15354TIP3    H267478   3.044   1.751  16.695  1.0071 -0.7704 -1.7658
15355TIP3   OH267479   2.430   5.259  16.846  0.0567  0.4885  0.0458
15355TIP3    H167480   2.429   5.350  16.817  1.0333  0.3201 -0.5806
15355TIP3    H267481   2.513   5.224  16.812 -1.3051 -1.2766 -1.7757
15356TIP3   OH267482   1.245   1.876   0.864  0.2036  0.2059 -0.1972
15356TIP3    H167483   1.242   1.833   0.779  1.7916  2.7934 -1.6724
15356TIP3    H267484   1.205   1.961   0.850  1.7097  1.2202  1.2704
15357TIP3   OH267485   1.847   2.406   4.109 -0.8205  0.3220  0.7601
15357TIP3    H167486   1.891   2.453   4.179 -0.6675 -0.9738  1.5627
15357TIP3    H267487   1.829   2.320   4.146 -0.9793 -0.2953 -0.7156
15358TIP3   OH267488   0.993   3.381   1.193 -0.3461  0.1826 -0.9266
15358TIP3    H167489   1.018   3.470   1.217 -0.5942  0.0127 -0.0169
15358TIP3    H267490   1.073   3.342   1.159  0.1119  0.3137 -0.0207
15359TIP3   OH267491   2.870   2.041  16.431 -0.1089 -0.0579  0.1892
15359TIP3    H167492   2.818   2.000  16.500  0.2770  0.2691  0.6811
15359TIP3    H267493   2.914   2.113  16.474  0.1171  0.1706 -0.4136
15360TIP3   OH267494   0.059   2.828   6.402 -0.1874 -0.1525  0.0635
15360TIP3    H167495   0.052   2.821   6.307  0.3795  1.6723 -0.1474
15360TIP3    H267496  -0.029   2.851   6.431 -0.1805  0.1005 -0.1135
15361TIP3   OH267497   4.442   1.029  12.546 -0.2160  0.5430  0.0193
15361TIP3    H167498   4.375   0.961  12.548  0.5841 -0.3079 -0.9082
15361TIP3    H267499   4.447   1.055  12.454  1.5530 -0.2687 -0.1396
15362TIP3   OH267500   6.667   1.045   5.514 -0.2577 -0.5995  0.2761
15362TIP3    H167501   6.753   1.083   5.532 -0.8811  0.5151  1.0504
15362TIP3    H267502   6.626   1.038   5.600 -0.8541 -1.3670 -0.0574
15363TIP3   OH267503   6.054   1.340   0.126  0.4433 -0.6930 -1.0197
15363TIP3    H167504   6.149   1.343   0.114  0.5929 -0.4869  0.0996
15363TIP3    H267505   6.019   1.382   0.047  1.3071 -0.0701 -1.0903
15364TIP3   OH267506   1.004   1.451  16.377  0.2697 -0.4623 -0.3952
15364TIP3    H167507   1.043   1.480  16.459 -1.5331  1.8651 -0.2251
15364TIP3    H267508   1.073   1.462  16.312  0.7440  0.9249  0.3048
15365TIP3   OH267509   4.707   0.444   6.103  0.0910  0.5020 -0.7963
15365TIP3    H167510   4.634   0.506   6.099 -0.8317 -0.5971 -1.8887
15365TIP3    H267511   4.686   0.386   6.175  0.1076  0.4504 -0.8325
15366TIP3   OH267512   0.043   0.012   2.307  0.2169 -0.0138 -0.2831
15366TIP3    H167513  -0.013   0.075   2.351  1.3647 -0.1993  1.5650
15366TIP3    H267514   0.118   0.063   2.275  0.9043 -0.3145  0.7800
15367TIP3   OH267515   6.293   3.148  16.315  0.0479  0.3177 -0.1628
15367TIP3    H167516   6.240   3.211  16.266  1.1791 -0.4144 -2.4850
15367TIP3    H267517   6.233   3.077  16.338 -1.0973  1.8485  1.9469
15368TIP3   OH267518   4.592   4.011  13.329 -0.3008 -0.4367 -0.1685
15368TIP3    H167519   4.587   3.936  13.388 -1.7819  0.0173  0.3114
15368TIP3    H267520   4.559   3.979  13.246 -2.1608 -0.0335  0.3687
15369TIP3   OH267521   5.353   6.231  17.183  0.0750 -0.2374 -0.2268
15369TIP3    H167522   5.447   6.223  17.164  0.0407 -2.6715  0.2609
15369TIP3    H267523   5.316   6.146  17.156 -2.0308  0.7247 -0.5733
15370TIP3   OH267524   1.400   5.793  16.665 -0.0720 -0.2191  0.2049
15370TIP3    H167525   1.309   5.796  16.635  0.1009  0.5327 -0.2867
15370TIP3    H267526   1.452   5.821  16.589  0.6922 -1.9326  0.0561
15371TIP3   OH267527   3.085   3.235  16.349 -0.3035  0.2374  0.1813
15371TIP3    H167528   3.164   3.211  16.397 -0.3960  0.3747  0.4035
15371TIP3    H267529   3.112   3.234  16.257 -0.0037  0.4307  0.2645
15372TIP3   OH267530   0.059   3.370  14.520 -0.1999 -0.5031 -0.2553
15372TIP3    H167531   0.097   3.351  14.434 -1.5467 -0.9536 -0.7751
15372TIP3    H267532  -0.001   3.443  14.503 -0.3538 -0.4880  0.3436
15373TIP3   OH267533   6.234   1.388   1.315 -0.2924  0.2239  0.3378
15373TIP3    H167534   6.294   1.411   1.244  1.0043  0.2261  1.3969
15373TIP3    H267535   6.263   1.441   1.389 -2.2449  0.9701  0.6296
15374TIP3   OH267536   3.572   3.701   1.842 -0.0314 -0.4607 -0.2239
15374TIP3    H167537   3.501   3.763   1.825  0.8906  1.1537  1.4532
15374TIP3    H267538   3.650   3.756   1.853  1.5980 -2.1797 -2.2776
15375TIP3   OH267539   3.297   6.518   4.503 -0.0326 -0.4101 -0.3127
15375TIP3    H167540   3.266   6.428   4.514 -1.2571  0.2649  2.5718
15375TIP3    H267541   3.239   6.556   4.437 -2.3520 -0.5936  1.4981
15376TIP3   OH267542   6.014   1.938   2.825  0.2319  0.5126  0.2435
15376TIP3    H167543   6.073   1.900   2.761 -2.7630 -2.8502 -0.8426
15376TIP3    H267544   5.973   2.011   2.780  0.5713  0.2680 -0.4715
15377TIP3   OH267545   4.181   6.474  15.950  0.3169 -0.0938 -0.1148
15377TIP3    H167546   4.203   6.471  16.043  0.4772 -0.5460 -0.1676
15377TIP3    H267547   4.262   6.501  15.907 -0.0769  1.3771 -0.0170
15378TIP3   OH267548   0.868   5.770   5.130 -0.3593  0.2161  0.0597
15378TIP3    H167549   0.951   5.807   5.101 -0.4465  1.0666  0.8745
15378TIP3    H267550   0.821   5.750   5.048  0.0077  1.1856 -0.3998
15379TIP3   OH267551   6.217   6.540  15.390 -0.1492  0.4602 -0.3906
15379TIP3    H167552   6.146   6.602  15.372 -0.1184  0.2739 -1.2100
15379TIP3    H267553   6.178   6.454  15.377  0.0887  0.3414 -0.3222
15380TIP3   OH267554   2.769   1.809   0.746 -0.5550 -0.0677  0.5349
15380TIP3    H167555   2.676   1.796   0.764 -0.5231 -0.9605  0.1241
15380TIP3    H267556   2.809   1.723   0.763  0.4106  0.6143  1.9486
15381TIP3   OH267557   0.743   0.396  13.150 -0.2607 -0.8474  0.0358
15381TIP3    H167558   0.819   0.403  13.091 -1.1204  0.8926 -0.9464
15381TIP3    H267559   0.731   0.302  13.162  0.7385 -1.2224 -1.5478
15382TIP3   OH267560   0.965   5.774  13.770  0.1526 -0.7812 -0.4801
15382TIP3    H167561   0.883   5.813  13.739 -0.3556 -1.5671 -0.1655
15382TIP3    H267562   0.949   5.756  13.863  0.5658 -1.2380 -0.4944
15383TIP3   OH267563   6.682   4.940  11.527  0.7852 -0.1060  0.1401
15383TIP3    H167564   6.684   4.857  11.575  2.3071 -0.0471  0.2450
15383TIP3    H267565   6.667   4.915  11.436 -1.4904 -0.2641  0.5009
15384TIP3   OH267566   4.714   6.117  11.894  0.1722 -0.0018  0.2794
15384TIP3    H167567   4.661   6.137  11.972  0.7678 -1.2523  1.0352
15384TIP3    H267568   4.652   6.080  11.831 -0.2062  0.4535  0.3724
15385TIP3   OH267569   0.827   6.622   4.927  0.0530 -0.1368 -0.0543
15385TIP3    H167570   0.823   6.545   4.871 -0.4446 -0.5776  0.5695
15385TIP3    H267571   0.737   6.657   4.927 -0.0761 -0.4482  0.8716
15386TIP3   OH267572   4.225   5.135  12.774 -0.4616  0.3151 -0.8195
15386TIP3    H167573   4.238   5.091  12.690  0.2651 -0.6469 -0.2275
15386TIP3    H267574   4.165   5.207  12.754 -1.4154 -0.7196 -1.9019
15387TIP3   OH267575   0.366   2.115  16.288  0.4577 -0.5520  0.1103
15387TIP3    H167576   0.411   2.052  16.344  0.9011  1.6238  2.3521
15387TIP3    H267577   0.435   2.156  16.236  0.4652 -0.4094  0.2311
15388TIP3   OH267578   6.543   4.097   3.671  0.3746  0.2797 -0.0403
15388TIP3    H167579   6.450   4.120   3.678 -0.5527 -3.0099 -0.0591
15388TIP3    H267580   6.575   4.098   3.761 -0.2637 -0.5786  0.2085
15389TIP3   OH267581   2.317   5.867  11.026  0.1860 -0.3326 -0.3628
15389TIP3    H167582   2.352   5.807  10.961 -0.1861 -0.9064 -0.0325
15389TIP3    H267583   2.312   5.816  11.106  0.6191  0.3606  0.1225
15390TIP3   OH267584   1.053   6.595  12.814  0.0646 -0.0663 -0.2300
15390TIP3    H167585   0.966   6.557  12.820 -0.0024  0.2360  1.0468
15390TIP3    H267586   1.051   6.670  12.874  0.5601  1.2514 -1.7751
15391TIP3   OH267587   5.730   3.505   1.361  0.2403  0.6358 -0.1704
15391TIP3    H167588   5.741   3.590   1.319 -1.8009  1.3364  0.6290
15391TIP3    H267589   5.644   3.508   1.402  0.6133 -1.3788  0.9280
15392TIP3   OH267590   4.059   4.131   2.743  0.4708 -0.1993  0.3500
15392TIP3    H167591   4.147   4.096   2.751  0.9040  1.0042  1.1689
15392TIP3    H267592   4.044   4.179   2.824 -0.8105 -0.0941  0.0832
15393TIP3   OH267593   3.453   1.941  12.801 -0.5514 -0.3069 -0.2624
15393TIP3    H167594   3.433   2.032  12.780 -1.1999  0.3096  2.5718
15393TIP3    H267595   3.442   1.894  12.718 -1.2899  1.9870 -1.5604
15394TIP3   OH267596   3.596   5.500   3.387 -0.2815 -0.1501 -0.5337
15394TIP3    H167597   3.598   5.535   3.476  0.2241 -0.1092 -0.5534
15394TIP3    H267598   3.661   5.429   3.388 -1.1060 -0.9186 -0.5654
15395TIP3   OH267599   4.385   0.442  15.833 -0.4707  0.7357 -0.6636
15395TIP3    H167600   4.365   0.365  15.887 -0.1853  0.8956 -0.3277
15395TIP3    H267601   4.331   0.430  15.755  0.4271 -0.4065 -1.1490
15396TIP3   OH267602   6.199   4.643  14.043 -0.1091 -0.1368  0.7369
15396TIP3    H167603   6.189   4.651  14.138  0.7145 -1.3212  0.9460
15396TIP3    H267604   6.283   4.599  14.032 -1.2758 -2.1913 -0.4487
15397TIP3   OH267605   3.599   1.732   1.206 -0.0155  0.2595  0.8171
15397TIP3    H167606   3.694   1.732   1.198 -0.0333  0.9873  0.4644
15397TIP3    H267607   3.567   1.740   1.116 -0.3932  0.6049  0.9752
15398TIP3   OH267608   5.668   1.852  13.129 -0.3782 -0.7483 -0.7806
15398TIP3    H167609   5.690   1.804  13.209 -1.2191  1.8932  1.1435
15398TIP3    H267610   5.719   1.933  13.135 -1.3452  0.0140 -2.3506
15399TIP3   OH267611   6.411   2.199   3.444  0.1966  0.1444  0.2958
15399TIP3    H167612   6.435   2.122   3.495  1.0731  0.8186  0.9126
15399TIP3    H267613   6.400   2.166   3.355  4.1997 -0.1562 -0.2753
15400TIP3   OH267614   1.428   0.421  10.439 -0.8736 -0.3588  0.2442
15400TIP3    H167615   1.452   0.512  10.454  2.2382 -1.2050  1.0862
15400TIP3    H267616   1.338   0.414  10.474 -1.3626  2.4129 -0.2280
15401TIP3   OH267617   4.948   5.571  12.650 -0.5573  0.2147 -0.4444
15401TIP3    H167618   4.929   5.651  12.700  2.0575  0.6839 -0.0217
15401TIP3    H267619   4.983   5.602  12.567  0.4539 -0.4634 -0.2902
15402TIP3   OH267620   5.086   6.259  16.435 -0.0625  0.2045  0.3159
15402TIP3    H167621   5.051   6.310  16.362 -0.2356 -1.0234 -0.4781
15402TIP3    H267622   5.012   6.250  16.496  0.0300  1.0636  0.5702
15403TIP3   OH267623   5.617   2.526   3.177  0.1060 -0.6198  0.1710
15403TIP3    H167624   5.591   2.437   3.154  2.2611 -1.4858  0.8273
15403TIP3    H267625   5.560   2.582   3.125  0.0836 -2.4125 -1.8603
15404TIP3   OH267626   4.741   5.403  15.543 -0.3521 -0.4293  0.0521
15404TIP3    H167627   4.763   5.422  15.451 -2.2312 -1.0548 -0.5676
15404TIP3    H267628   4.801   5.333  15.568 -0.8069 -1.3142 -1.2060
15405TIP3   OH267629   3.348   1.048  12.055  0.0058  0.2443  0.0131
15405TIP3    H167630   3.315   1.138  12.052 -1.7267 -0.3188  0.8996
15405TIP3    H267631   3.290   1.003  12.116 -0.8654 -2.1258 -2.3827
15406TIP3   OH267632   1.756   5.963   2.001  0.3764  0.3717  0.1121
15406TIP3    H167633   1.809   5.980   1.923  0.2754  0.5591  0.0834
15406TIP3    H267634   1.739   6.049   2.037  1.0139  0.2373  0.7415
15407TIP3   OH267635   1.565   3.569   0.124 -0.1273  0.0683 -0.3976
15407TIP3    H167636   1.639   3.558   0.064 -0.0312  1.0266 -0.4651
15407TIP3    H267637   1.604   3.572   0.211  0.1507  2.5018 -0.5477
15408TIP3   OH267638   3.028   4.164  13.330 -0.3094 -0.3436 -0.8129
15408TIP3    H167639   3.026   4.142  13.237 -0.5888 -0.6460 -0.7390
15408TIP3    H267640   3.111   4.209  13.343  0.3642 -1.5084 -0.9402
15409TIP3   OH267641   2.716   3.278  14.711 -0.0160 -0.2079 -0.1765
15409TIP3    H167642   2.798   3.327  14.714 -1.3992  2.2925  0.1036
15409TIP3    H267643   2.721   3.227  14.631  1.3835  0.7155 -0.7188
15410TIP3   OH267644   6.086   4.563  12.556 -0.3710  0.1531  0.1322
15410TIP3    H167645   6.084   4.481  12.604 -0.4422  0.4731  0.6850
15410TIP3    H267646   6.158   4.612  12.595  2.0055 -0.9753 -2.4539
15411TIP3   OH267647   0.710   1.691   5.617 -0.2202 -0.7806  0.2793
15411TIP3    H167648   0.678   1.648   5.538  1.8889 -0.7529 -0.6783
15411TIP3    H267649   0.722   1.619   5.680 -1.4700 -0.8658  0.4377
15412TIP3   OH267650   4.150   1.319  10.561  0.4039  0.4171 -0.4408
15412TIP3    H167651   4.096   1.395  10.581  1.4281  1.2073 -0.5349
15412TIP3    H267652   4.235   1.357  10.537  0.6035 -0.7034 -1.5992
15413TIP3   OH267653   4.459   4.635   4.947  0.1999 -0.3926 -0.2775
15413TIP3    H167654   4.396   4.661   4.879 -1.9863 -3.7032  0.2607
15413TIP3    H267655   4.542   4.624   4.900 -0.8829 -1.0364 -2.1296
15414TIP3   OH267656   1.951   6.771   0.588 -0.5696  0.0642 -0.1412
15414TIP3    H167657   1.876   6.770   0.647 -1.2524  0.3952 -0.9776
15414TIP3    H267658   1.919   6.816   0.510 -0.3502 -2.1533 -1.6094
15415TIP3   OH267659   4.415   4.448   0.635 -0.0558  0.1929  0.3230
15415TIP3    H167660   4.401   4.499   0.556 -1.1702 -1.1807 -0.4037
15415TIP3    H267661   4.467   4.373   0.607 -0.0304 -0.0462  0.9831
15416TIP3   OH267662   4.078   6.299  10.882  0.5992  0.0969 -0.5809
15416TIP3    H167663   4.099   6.207  10.867 -1.6591 -0.2866 -1.7055
15416TIP3    H267664   4.143   6.347  10.829 -0.1264 -0.9709 -2.5271
15417TIP3   OH267665   3.044   4.939  13.405 -0.0390 -0.6409 -0.4112
15417TIP3    H167666   2.988   4.944  13.328 -1.0968 -3.6512  0.0199
15417TIP3    H267667   3.032   4.850  13.438  2.9242 -0.5556  1.3343
15418TIP3   OH267668   5.244   2.633   4.473 -0.2075 -0.2977  0.2535
15418TIP3    H167669   5.306   2.701   4.448  1.7292 -1.4199  1.7617
15418TIP3    H267670   5.215   2.657   4.561 -0.0123 -1.0438  0.5340
15419TIP3   OH267671   0.397   4.062  14.796  0.1740 -0.0384 -0.4673
15419TIP3    H167672   0.306   4.068  14.827  0.6909 -0.8734  1.3556
15419TIP3    H267673   0.389   4.046  14.702 -1.5356  0.7503 -0.4940
15420TIP3   OH267674   5.815   4.214   3.145 -0.0506 -0.0006  0.0097
15420TIP3    H167675   5.754   4.273   3.188  1.2808  2.3695 -1.1574
15420TIP3    H267676   5.856   4.165   3.217 -0.7677  0.8940  1.0579
15421TIP3   OH267677   4.112   4.008  14.811  0.0584  0.2172  0.0830
15421TIP3    H167678   4.082   4.085  14.764  0.9414  0.1575 -0.6074
15421TIP3    H267679   4.181   4.041  14.869  0.2286  0.0030  0.0056
15422TIP3   OH267680   4.682   2.283  12.716  0.1796 -0.5275 -0.3928
15422TIP3    H167681   4.592   2.277  12.749 -0.5963  2.3459 -1.6453
15422TIP3    H267682   4.679   2.240  12.630 -0.9049  2.0269 -1.7728
15423TIP3   OH267683   0.382   4.738  12.780  0.3583 -0.8126  0.0945
15423TIP3    H167684   0.447   4.773  12.841  1.1558 -1.9953 -0.0425
15423TIP3    H267685   0.432   4.712  12.703 -0.5892  0.2792 -0.9305
15424TIP3   OH267686   1.565   3.655   4.997  0.2550  0.5570  0.3534
15424TIP3    H167687   1.507   3.583   4.972  0.5586  1.0593 -2.0403
15424TIP3    H267688   1.540   3.727   4.939  1.7912  1.4764  0.7747
15425TIP3   OH267689   3.257   4.396  13.270  0.1958  0.0506 -0.2513
15425TIP3    H167690   3.291   4.400  13.180 -0.6923  0.0431 -0.5998
15425TIP3    H267691   3.330   4.362  13.322  1.0383  0.9763 -0.7972
15426TIP3   OH267692   4.118   2.329  15.802 -0.3128  0.0975  0.2057
15426TIP3    H167693   4.147   2.246  15.840 -1.7772 -1.2213 -1.3810
15426TIP3    H267694   4.125   2.392  15.873  1.2584 -1.2798  1.3452
15427TIP3   OH267695   0.214   3.057   2.449 -0.2436 -0.2475  0.2866
15427TIP3    H167696   0.176   3.098   2.527  1.4925  0.3522  0.8548
15427TIP3    H267697   0.268   3.125   2.410 -2.1744 -0.0724 -2.3019
15428TIP3   OH267698   3.754   1.795   5.819  0.0146 -0.3469 -0.3953
15428TIP3    H167699   3.766   1.852   5.895  1.3052  0.2268 -1.0076
15428TIP3    H267700   3.712   1.717   5.854 -0.2703  0.2895  0.7375
15429TIP3   OH267701   3.430   0.423   2.764  0.5091  0.2587  0.1695
15429TIP3    H167702   3.335   0.417   2.752  0.2836 -1.1662  2.2128
15429TIP3    H267703   3.442   0.419   2.859  2.5087  2.7813  0.1330
15430TIP3   OH267704   5.850   6.623  17.253 -0.7952 -0.2672 -0.6394
15430TIP3    H167705   5.796   6.701  17.238 -0.2373  0.2168 -0.1421
15430TIP3    H267706   5.793   6.550  17.229 -1.7443  0.2247  0.0668
15431TIP3   OH267707   3.099   4.617   3.999  0.2239 -0.0834  0.2506
15431TIP3    H167708   3.142   4.617   3.914  2.0491 -1.6704  1.0762
15431TIP3    H267709   3.108   4.707   4.031  1.1334  0.0995 -0.4748
15432TIP3   OH267710   4.026   1.331  13.443  0.0547  0.0058 -0.6079
15432TIP3    H167711   4.118   1.327  13.468 -0.4845 -0.0154  1.6100
15432TIP3    H267712   4.023   1.296  13.354  2.3655  1.3904 -1.3224
15433TIP3   OH267713   5.558   0.460  12.368 -0.6364 -0.6268 -0.0018
15433TIP3    H167714   5.601   0.454  12.453  0.6631 -3.0051 -0.7320
15433TIP3    H267715   5.628   0.483  12.307 -0.9093 -1.7961 -0.8040
15434TIP3   OH267716   1.752   2.272  16.510 -0.1431  0.0038 -0.2192
15434TIP3    H167717   1.683   2.242  16.569 -0.8897 -0.9617 -1.5241
15434TIP3    H267718   1.760   2.202  16.445  1.4256  0.5206 -0.6443
15435TIP3   OH267719   3.803   5.638   1.468  0.1458 -0.0583 -0.3435
15435TIP3    H167720   3.759   5.723   1.472  2.3024  1.1194 -0.2050
15435TIP3    H267721   3.765   5.588   1.540 -0.8390  0.9467 -0.1283
15436TIP3   OH267722   2.199   5.645  11.983 -0.0948 -0.0519 -0.0487
15436TIP3    H167723   2.271   5.708  11.972 -1.2442  1.1769 -0.9650
15436TIP3    H267724   2.126   5.684  11.933 -1.2088 -1.5478  0.3491
15437TIP3   OH267725   1.227   6.168   0.958 -0.9521 -0.1918 -0.5912
15437TIP3    H167726   1.274   6.213   0.887 -3.3303 -0.8763 -2.7301
15437TIP3    H267727   1.188   6.091   0.917 -0.6980 -1.8180  1.9851
15438TIP3   OH267728   1.632   5.885   5.260 -0.1779 -0.1051  0.5043
15438TIP3    H167729   1.584   5.885   5.177  0.9355 -0.4980 -0.1558
15438TIP3    H267730   1.564   5.877   5.327 -1.1088  0.4592 -0.3501
15439TIP3   OH267731   2.000   3.322  12.116  0.3206 -0.1564  0.0930
15439TIP3    H167732   2.069   3.356  12.172  0.3758 -0.3078  0.1178
15439TIP3    H267733   2.026   3.347  12.027 -0.3795  1.1515  0.2314
15440TIP3   OH267734   2.130   3.742  15.006 -0.9166 -0.5109 -0.6046
15440TIP3    H167735   2.074   3.710  14.935 -0.3754 -1.0643 -0.7837
15440TIP3    H267736   2.132   3.671  15.069  1.0864 -1.2724 -1.4604
15441TIP3   OH267737   1.544   5.889   1.375  0.2922  0.2203  0.4050
15441TIP3    H167738   1.516   5.943   1.449 -2.2905  0.5967 -0.7413
15441TIP3    H267739   1.595   5.818   1.415  0.1452  1.1619  2.3701
15442TIP3   OH267740   5.951   4.879  11.167 -0.0341 -0.6553  0.4625
15442TIP3    H167741   6.039   4.916  11.170  0.0294 -0.8135  0.6154
15442TIP3    H267742   5.965   4.784  11.175 -0.0870 -0.8718 -1.5706
15443TIP3   OH267743   5.234   2.219   4.189  0.3011  0.9878  0.1134
15443TIP3    H167744   5.234   2.314   4.187 -0.1270  0.9894  0.0764
15443TIP3    H267745   5.154   2.194   4.143  1.0778  0.5758 -1.0411
15444TIP3   OH267746   3.066   0.927   6.060  0.1893 -0.0329  0.0230
15444TIP3    H167747   2.984   0.943   6.107  0.3312  0.0329  0.2469
15444TIP3    H267748   3.133   0.923   6.128  0.1980 -1.3464 -0.0352
15445TIP3   OH267749   4.070   4.191  13.131  0.5450 -0.3083  0.2097
15445TIP3    H167750   4.157   4.177  13.095  0.6752 -1.6686  0.9793
15445TIP3    H267751   4.053   4.113  13.185  0.1441  1.3169  2.6185
15446TIP3   OH267752   5.715   4.794   2.374  0.7163 -0.6988  0.4934
15446TIP3    H167753   5.768   4.854   2.322  0.4724 -1.0506 -0.1775
15446TIP3    H267754   5.767   4.776   2.452  0.4204  1.0771  1.1460
15447TIP3   OH267755   5.327   4.714   2.169  0.1233  0.4106 -0.4345
15447TIP3    H167756   5.246   4.696   2.217 -0.2477  0.8508 -0.8790
15447TIP3    H267757   5.344   4.635   2.119 -0.4031  0.5585 -0.8544
15448TIP3   OH267758   5.939   0.108   0.762 -0.1910 -0.1097  0.2487
15448TIP3    H167759   5.989   0.186   0.737  0.7669 -0.4127  1.1377
15448TIP3    H267760   5.969   0.088   0.851  2.1434 -3.4732 -1.1019
15449TIP3   OH267761   3.253   2.911   1.056 -0.2815 -0.5864  0.4423
15449TIP3    H167762   3.161   2.889   1.068 -0.2970 -0.1370  1.2137
15449TIP3    H267763   3.300   2.850   1.112  0.1007 -2.5330 -1.8625
15450TIP3   OH267764   5.236   1.436  12.116 -0.3081 -0.0541  0.0229
15450TIP3    H167765   5.321   1.393  12.116 -1.4961 -2.5894 -0.4765
15450TIP3    H267766   5.209   1.438  12.208 -0.8888 -1.8862 -0.0708
15451TIP3   OH267767   3.504   4.006   0.581 -0.5744  0.4873  0.2998
15451TIP3    H167768   3.578   3.949   0.602 -0.9673 -0.2735 -0.3348
15451TIP3    H267769   3.453   3.957   0.516 -1.9454  0.7535  1.1405
15452TIP3   OH267770   3.310   0.935   6.522  0.2767  0.3029 -0.1317
15452TIP3    H167771   3.400   0.914   6.495  0.8966  0.6995  1.5210
15452TIP3    H267772   3.256   0.867   6.481  1.0059  1.2854 -2.9599
15453TIP3   OH267773   1.360   2.601  13.327 -0.1895  0.6276  0.5482
15453TIP3    H167774   1.375   2.521  13.276 -0.7526  1.4089 -0.9015
15453TIP3    H267775   1.430   2.601  13.392 -0.1410 -1.0065  0.5459
15454TIP3   OH267776   0.333   3.738   4.647  0.2776  0.3253 -0.4203
15454TIP3    H167777   0.423   3.738   4.679  0.8465 -0.8302 -1.9116
15454TIP3    H267778   0.341   3.723   4.553 -1.5442 -1.7417 -0.3231
15455TIP3   OH267779   2.167   3.524  11.151  0.0662  0.1272  0.5079
15455TIP3    H167780   2.197   3.598  11.097 -2.2132 -0.6913 -2.0894
15455TIP3    H267781   2.137   3.565  11.232  1.2039  1.7233  0.1827
15456TIP3   OH267782   3.831   3.712  17.156  0.0555 -0.0719 -0.2094
15456TIP3    H167783   3.914   3.717  17.109 -0.8079 -0.1837 -1.8210
15456TIP3    H267784   3.766   3.744  17.093 -0.9039  1.8765  1.6317
15457TIP3   OH267785   0.627   0.299  15.365 -0.3916  0.4502  0.0181
15457TIP3    H167786   0.657   0.217  15.404  0.3993  0.2853 -0.9203
15457TIP3    H267787   0.575   0.341  15.434 -0.1804 -0.4844  0.7559
15458TIP3   OH267788   2.725   6.122  13.471  0.0668  0.3590 -0.0502
15458TIP3    H167789   2.728   6.143  13.378 -2.2884  1.8424  0.1219
15458TIP3    H267790   2.659   6.053  13.478  1.0555 -0.5647  0.4253
15459TIP3   OH267791   1.103   0.712   0.948 -0.1881 -0.3506 -0.0959
15459TIP3    H167792   1.112   0.750   0.861 -0.9888 -0.0667 -0.0605
15459TIP3    H267793   1.024   0.752   0.984 -0.7640 -1.6816  0.1435
15460TIP3   OH267794   1.237   6.234  11.830 -0.6173 -0.0479  0.0939
15460TIP3    H167795   1.184   6.279  11.764  0.7935  0.6521 -0.6210
15460TIP3    H267796   1.325   6.269  11.817 -0.0145 -1.0138  1.3730
15461TIP3   OH267797   6.052   0.534   6.727  0.7657 -0.2015  0.2164
15461TIP3    H167798   5.989   0.471   6.763 -0.7401  0.6389 -0.8186
15461TIP3    H267799   6.072   0.501   6.639  1.8516 -0.4940  0.5597
15462TIP3   OH267800   4.934   3.115  11.318  0.1335  0.4201  0.0525
15462TIP3    H167801   4.966   3.151  11.235 -1.0486  1.1862 -0.0941
15462TIP3    H267802   4.954   3.022  11.313 -0.3971  0.3503 -1.3444
15463TIP3   OH267803   1.817   1.769  16.847 -0.6272 -0.0591  0.3331
15463TIP3    H167804   1.819   1.721  16.764 -0.7004  0.4701  0.0224
15463TIP3    H267805   1.783   1.705  16.910 -3.9892  0.5054 -0.7094
15464TIP3   OH267806   6.703   5.291   3.462 -0.2683 -0.2320 -0.4815
15464TIP3    H167807   6.774   5.318   3.520 -1.6607 -1.3516  1.9296
15464TIP3    H267808   6.727   5.326   3.376  2.4096  0.6868  0.5341
15465TIP3   OH267809   3.278   2.573  17.137  0.1934 -0.3427  0.2157
15465TIP3    H167810   3.259   2.618  17.219 -2.1962  0.5550 -0.7306
15465TIP3    H267811   3.358   2.615  17.105 -0.3605  1.2023  0.7834
15466TIP3   OH267812   3.657   2.542   3.262 -0.3162  0.2078 -0.3304
15466TIP3    H167813   3.628   2.598   3.189  0.5598  0.0127 -0.8462
15466TIP3    H267814   3.714   2.478   3.221 -2.2455 -1.8785  0.0432
15467TIP3   OH267815   5.611   2.433  13.331  0.8428  0.4648  0.2044
15467TIP3    H167816   5.690   2.485  13.345 -0.0527  2.6059 -1.9492
15467TIP3    H267817   5.612   2.413  13.238  0.0795 -1.6770  0.6015
15468TIP3   OH267818   5.300   5.628   2.712 -0.5487 -0.4999 -0.5826
15468TIP3    H167819   5.217   5.622   2.760 -0.7174 -1.6167 -0.9976
15468TIP3    H267820   5.278   5.604   2.622  0.2892 -1.1633 -0.6153
15469TIP3   OH267821   1.411   4.755  12.956 -0.0644  0.4542  0.0230
15469TIP3    H167822   1.407   4.712  13.041  3.5663  0.5015  0.3716
15469TIP3    H267823   1.423   4.684  12.893 -0.5384  0.5538 -0.1818
15470TIP3   OH267824   4.628   2.864   2.468  0.1236 -0.2589 -0.7963
15470TIP3    H167825   4.567   2.826   2.531  0.2463 -0.3171 -0.7114
15470TIP3    H267826   4.714   2.835   2.498  0.3871  1.5699  0.3461
15471TIP3   OH267827   1.956   0.545  13.977 -0.2508 -0.6816 -0.3082
15471TIP3    H167828   1.937   0.636  14.000 -1.1293 -0.5000 -1.7000
15471TIP3    H267829   1.932   0.495  14.056  0.3450  0.2801  0.5020
15472TIP3   OH267830   2.694   5.438  16.705  0.2179  0.2417 -0.0169
15472TIP3    H167831   2.684   5.343  16.691 -0.6986  0.3389 -0.0631
15472TIP3    H267832   2.604   5.472  16.705  0.5426  1.1228 -0.0607
15473TIP3   OH267833   0.498   3.822   5.736 -0.3567 -0.1020  0.0262
15473TIP3    H167834   0.436   3.891   5.715  0.6781  0.4757 -1.2582
15473TIP3    H267835   0.464   3.783   5.817 -3.4417 -1.0708 -1.5620
15474TIP3   OH267836   5.966   3.619  11.347 -0.2985  0.4254  0.0963
15474TIP3    H167837   5.930   3.557  11.410  0.7295  1.1070  1.4330
15474TIP3    H267838   5.889   3.657  11.304 -1.0063 -0.4616  0.5374
15475TIP3   OH267839   4.805   4.989   1.367  0.3925  0.1834  0.2641
15475TIP3    H167840   4.816   4.912   1.422 -1.5762 -0.1311  0.3040
15475TIP3    H267841   4.885   4.994   1.316  0.0763 -2.7163 -0.7207
15476TIP3   OH267842   2.004   2.703  15.306  0.0676 -0.3983 -1.0716
15476TIP3    H167843   1.977   2.774  15.248 -1.0311 -1.8560 -2.4290
15476TIP3    H267844   2.028   2.632  15.247  0.8799 -1.2782  0.2558
15477TIP3   OH267845   0.977   0.304   5.756  0.2110  0.7649  0.2371
15477TIP3    H167846   1.033   0.272   5.828  2.1708 -0.0178 -1.5280
15477TIP3    H267847   1.018   0.386   5.728  0.4515  0.2474 -0.9981
15478TIP3   OH267848   2.172   3.205   2.361 -0.0343  0.0166 -0.1219
15478TIP3    H167849   2.157   3.119   2.321  2.3815 -0.4188 -0.2133
15478TIP3    H267850   2.258   3.198   2.402 -0.0820  2.1990  0.4603
15479TIP3   OH267851   3.827   2.329   5.067  0.1411 -0.1070  0.5600
15479TIP3    H167852   3.860   2.371   5.146  2.2239 -0.4430 -0.0567
15479TIP3    H267853   3.750   2.280   5.095 -0.0988  1.0622  2.0345
15480TIP3   OH267854   5.727   0.638  16.574 -0.6315 -0.7985 -0.4453
15480TIP3    H167855   5.678   0.637  16.657  0.1638 -1.3335  0.0274
15480TIP3    H267856   5.683   0.706  16.522 -0.1626  0.6811  0.9963
15481TIP3   OH267857   4.070   5.072   0.145 -0.1770 -0.0601  0.5712
15481TIP3    H167858   4.128   5.058   0.070 -0.4463  0.6294  0.2214
15481TIP3    H267859   4.096   5.006   0.208 -0.3144 -1.0291 -0.3522
15482TIP3   OH267860   0.051   5.151  13.901  0.6788  0.1157 -0.2902
15482TIP3    H167861   0.140   5.128  13.873 -0.5183 -3.4290 -1.6884
15482TIP3    H267862   0.004   5.169  13.819 -0.2085  0.7480  0.3417
15483TIP3   OH267863   0.721   4.948   0.398  0.2867  0.0924 -0.2663
15483TIP3    H167864   0.752   4.863   0.368 -1.0370 -1.9487  3.5842
15483TIP3    H267865   0.662   4.929   0.471 -2.3578  4.1951 -0.9547
15484TIP3   OH267866   1.319   5.526   2.574  0.3449  0.0797 -0.1656
15484TIP3    H167867   1.271   5.478   2.642 -1.4314  0.2104 -1.2500
15484TIP3    H267868   1.402   5.480   2.566 -1.3068 -2.9998 -1.2692
15485TIP3   OH267869   0.830   4.651  14.567  0.2826  0.7089 -0.2256
15485TIP3    H167870   0.739   4.624  14.554  1.4256 -4.2905  0.1613
15485TIP3    H267871   0.876   4.616  14.491  1.8613  4.5141 -1.2332
15486TIP3   OH267872   0.060   1.656  11.753  0.3405 -0.3022  0.1457
15486TIP3    H167873   0.148   1.684  11.726  1.6202 -1.0882  3.0777
15486TIP3    H267874   0.040   1.582  11.695  2.1870 -0.9158  0.2083
15487TIP3   OH267875   0.330   3.253  16.886 -0.0419  0.1978 -0.1387
15487TIP3    H167876   0.387   3.189  16.928  0.4896  0.7873  0.0529
15487TIP3    H267877   0.243   3.236  16.923 -0.8081 -2.9743 -2.8787
15488TIP3   OH267878   1.330   5.120  13.875  0.2751  0.6404 -0.1349
15488TIP3    H167879   1.296   5.059  13.941  0.2085 -0.7561 -1.4019
15488TIP3    H267880   1.418   5.087  13.855  0.5323  1.4144 -0.3256
15489TIP3   OH267881   1.220   1.236  14.882  0.0457  0.0949 -0.1898
15489TIP3    H167882   1.137   1.231  14.929  1.2985  0.4591  2.2291
15489TIP3    H267883   1.231   1.330  14.864 -0.5051 -0.0603 -1.4238
15490TIP3   OH267884   4.764   3.189  11.028 -0.7129  0.9882  0.2038
15490TIP3    H167885   4.704   3.132  11.076 -0.4413  1.3022  0.9344
15490TIP3    H267886   4.845   3.139  11.020 -0.3687  1.3659  1.1232
15491TIP3   OH267887   1.053   4.051   5.128 -0.1225 -0.1810  0.5710
15491TIP3    H167888   0.991   4.087   5.065  1.4669  1.9946  0.1146
15491TIP3    H267889   1.016   4.071   5.213 -0.6234  0.0037  0.3134
15492TIP3   OH267890   4.704   3.483   3.324 -0.1338  0.1588  0.2481
15492TIP3    H167891   4.731   3.391   3.335 -2.0959 -0.2949  1.7729
15492TIP3    H267892   4.620   3.478   3.278  0.5603  1.3300 -1.2273
15493TIP3   OH267893   6.713   6.534  10.668 -0.6537 -0.2159 -0.4149
15493TIP3    H167894   6.662   6.477  10.726 -1.9287 -0.7073 -1.9541
15493TIP3    H267895   6.798   6.490  10.661 -0.3262  0.0454  1.3165
15494TIP3   OH267896   0.604   5.598   6.328 -0.7646 -0.9397  0.9290
15494TIP3    H167897   0.613   5.509   6.294 -0.5269 -0.0810 -1.4177
15494TIP3    H267898   0.538   5.590   6.397  0.4041 -3.1771  1.8958
15495TIP3   OH267899   3.121   0.189  10.671  0.0498  0.0300 -0.7811
15495TIP3    H167900   3.091   0.103  10.699 -0.6760 -0.1824 -2.1217
15495TIP3    H267901   3.211   0.195  10.703  0.1326 -1.2398 -0.7282
15496TIP3   OH267902   0.246   0.472   5.094  0.3041 -0.7369  0.1298
15496TIP3    H167903   0.209   0.437   5.013  0.2111 -0.7607  0.1823
15496TIP3    H267904   0.276   0.561   5.071  0.9154 -0.9990 -0.1069
15497TIP3   OH267905   4.228   5.098  13.754  0.0159  0.0186 -0.0946
15497TIP3    H167906   4.205   5.009  13.725 -0.9175  0.4145 -0.6113
15497TIP3    H267907   4.205   5.154  13.680 -0.4821  0.8310  0.6626
15498TIP3   OH267908   4.069   0.297   0.351  0.1123  0.0464 -0.3880
15498TIP3    H167909   4.082   0.211   0.312  0.7071 -0.2171  0.3685
15498TIP3    H267910   4.062   0.357   0.277  0.3174 -0.5652 -0.9062
15499TIP3   OH267911   6.670   2.606  16.950  0.0140  0.1300  0.1082
15499TIP3    H167912   6.648   2.574  16.862  0.7712 -1.1905  0.3729
15499TIP3    H267913   6.615   2.684  16.961 -0.2677  0.1905 -1.4371
15500TIP3   OH267914   3.134   0.708   3.794 -0.1651 -0.1307  0.3734
15500TIP3    H167915   3.089   0.635   3.836 -0.7709  0.9150  1.6306
15500TIP3    H267916   3.218   0.714   3.839  0.5309 -0.9594 -0.7566
15501TIP3   OH267917   2.240   4.802   3.185 -0.0903 -0.2193  0.4456
15501TIP3    H167918   2.229   4.716   3.227 -0.2702  0.2772  1.4654
15501TIP3    H267919   2.241   4.783   3.092 -2.8301 -1.0674  0.5005
15502TIP3   OH267920   2.557   3.207   3.791  0.0944 -0.2203  0.2840
15502TIP3    H167921   2.547   3.191   3.885 -0.5401 -1.7600 -0.0082
15502TIP3    H267922   2.490   3.272   3.771 -1.7743 -1.9872  0.4377
15503TIP3   OH267923   5.810   4.800   4.505  0.2886  0.4437 -0.0529
15503TIP3    H167924   5.715   4.790   4.514  0.2863 -0.1571 -0.6804
15503TIP3    H267925   5.826   4.797   4.411  1.2225 -2.4896  0.1154
15504TIP3   OH267926   2.735   4.850  16.589  0.4819 -0.2328 -0.1190
15504TIP3    H167927   2.796   4.828  16.659  0.1813 -1.8488 -0.3169
15504TIP3    H267928   2.725   4.768  16.539 -1.1666  0.2208 -0.6063
15505TIP3   OH267929   1.602   1.957  16.883  0.0035 -0.0774 -0.3249
15505TIP3    H167930   1.672   1.962  16.818 -0.0633 -0.2851 -0.4132
15505TIP3    H267931   1.641   1.913  16.958 -0.0673 -0.2974 -0.4189
15506TIP3   OH267932   3.425   1.590   2.813 -0.2806  0.4142  0.4830
15506TIP3    H167933   3.498   1.543   2.854  0.6941  1.8044  0.3900
15506TIP3    H267934   3.437   1.574   2.720 -1.5154 -1.3358  0.5810
15507TIP3   OH267935   1.727   5.050   5.458 -0.4539  0.2053 -0.0022
15507TIP3    H167936   1.754   4.978   5.515 -0.1839  0.2285 -0.1001
15507TIP3    H267937   1.794   5.117   5.471 -0.5479  0.3258 -0.1311
15508TIP3   OH267938   4.444   4.973   1.300  0.2118  0.0602  0.7941
15508TIP3    H167939   4.485   5.045   1.347  1.0496 -0.4441  0.8548
15508TIP3    H267940   4.508   4.948   1.234 -1.3284  1.4066 -1.3290
15509TIP3   OH267941   1.462   2.171   0.592  0.0548  0.1947 -0.4937
15509TIP3    H167942   1.471   2.157   0.687  1.7199 -1.1276 -0.7997
15509TIP3    H267943   1.499   2.258   0.577  1.9357 -0.5037 -0.1799
15510TIP3   OH267944   0.497   2.917   4.483 -0.2586  0.3236 -0.4892
15510TIP3    H167945   0.477   2.979   4.413 -2.4055 -1.2569 -1.4025
15510TIP3    H267946   0.428   2.932   4.548 -1.3064 -1.5685 -1.0968
15511TIP3   OH267947   0.865   4.817   5.012  0.5654 -0.2579  0.4422
15511TIP3    H167948   0.934   4.759   5.046 -0.4834 -1.4357  0.6202
15511TIP3    H267949   0.783   4.771   5.030 -0.1973  0.3355 -1.2844
15512TIP3   OH267950   1.016   4.266   0.430  0.0667  0.3007 -0.5177
15512TIP3    H167951   0.958   4.191   0.440 -1.3726  1.4534  0.1948
15512TIP3    H267952   1.047   4.261   0.339  0.1655 -1.2422 -0.4126
15513TIP3   OH267953   4.530   0.914   4.107 -0.1421 -0.2431 -0.4430
15513TIP3    H167954   4.472   0.898   4.033  1.1874 -0.0242 -1.5565
15513TIP3    H267955   4.478   0.969   4.166 -2.0928 -2.3529 -0.0220
15514TIP3   OH267956   5.294   0.925  17.072 -0.0627 -0.4208  0.2741
15514TIP3    H167957   5.360   0.872  17.026 -0.3657 -1.4825  1.0400
15514TIP3    H267958   5.346   0.981  17.130  0.3801  1.4780 -1.8158
15515TIP3   OH267959   1.580   1.712   2.545  0.1149 -0.2055  0.4193
15515TIP3    H167960   1.557   1.753   2.628 -0.9052 -1.3038  0.7077
15515TIP3    H267961   1.634   1.777   2.500 -0.6674  1.0612  1.2553
15516TIP3   OH267962   6.337   2.597   1.467 -0.1733 -0.5020  0.0909
15516TIP3    H167963   6.303   2.565   1.551 -2.6922  1.4379 -0.0469
15516TIP3    H267964   6.370   2.685   1.486 -1.8232  0.4322 -1.0515
15517TIP3   OH267965   2.650   4.379   4.219 -0.0947  0.0114 -0.0793
15517TIP3    H167966   2.588   4.452   4.223  1.1167  1.0531  0.7827
15517TIP3    H267967   2.732   4.420   4.192  0.4737 -1.1450 -0.1507
15518TIP3   OH267968   2.755   1.380  15.402  0.5068  0.3052 -0.0209
15518TIP3    H167969   2.748   1.338  15.316  1.0087 -1.0213  0.5535
15518TIP3    H267970   2.844   1.413  15.406  0.2540  1.0361 -0.2916
15519TIP3   OH267971   6.187   6.724   3.821 -0.1922 -0.7344  0.0668
15519TIP3    H167972   6.138   6.802   3.796 -1.2421 -1.0382  1.0743
15519TIP3    H267973   6.270   6.757   3.854  0.2301 -0.1927 -1.4812
15520TIP3   OH267974   0.416   0.036  16.770  0.1643 -0.0946 -0.3403
15520TIP3    H167975   0.395  -0.057  16.779  0.4478 -0.2575 -1.2535
15520TIP3    H267976   0.343   0.081  16.812 -0.8797 -0.7026 -1.4384
15521TIP3   OH267977   6.388   1.617   2.413 -0.7304 -0.4986  0.1427
15521TIP3    H167978   6.321   1.640   2.478 -1.1665  1.4867 -0.9077
15521TIP3    H267979   6.338   1.588   2.337 -0.5655  2.1235 -1.0731
15522TIP3   OH267980   2.600   4.865  16.038 -0.1157 -0.1652  0.0889
15522TIP3    H167981   2.598   4.796  15.972  1.2598 -0.6699  0.5353
15522TIP3    H267982   2.581   4.945  15.989  1.5819 -0.4251 -1.0912
15523TIP3   OH267983   3.878   4.708  13.507  0.5128 -0.0177 -0.2069
15523TIP3    H167984   3.821   4.785  13.509 -1.4364 -1.3993  0.7581
15523TIP3    H267985   3.890   4.685  13.599 -0.1735 -1.7091 -0.5180
15524TIP3   OH267986   0.263   5.381   3.220 -0.2154  0.5973 -0.0682
15524TIP3    H167987   0.273   5.353   3.311  1.0566  2.5741  0.4778
15524TIP3    H267988   0.169   5.398   3.210 -0.2671  1.1486  1.1602
15525TIP3   OH267989   6.281   4.342  10.845  0.0346 -0.5869 -0.3161
15525TIP3    H167990   6.366   4.300  10.838  0.5702  0.1058  1.5542
15525TIP3    H267991   6.271   4.391  10.763  1.7527 -0.1056 -0.2668
15526TIP3   OH267992   5.875   3.126  17.270  0.0680  0.0250  0.4748
15526TIP3    H167993   5.957   3.104  17.314 -0.2285 -0.9914  0.5404
15526TIP3    H267994   5.888   3.215  17.238 -0.0787  1.2308  3.4650
15527TIP3   OH267995   2.551   5.840  15.484 -0.1688  0.4780 -0.1745
15527TIP3    H167996   2.464   5.833  15.522 -0.3870  0.0023 -0.7411
15527TIP3    H267997   2.574   5.750  15.461 -0.9994  0.9318 -3.1991
15528TIP3   OH267998   2.196   2.722   4.910 -0.6662  0.3530  0.2700
15528TIP3    H167999   2.128   2.732   4.844  0.3708 -0.0846 -0.8840
15528TIP3    H268000   2.162   2.770   4.986 -2.0416  0.5394 -0.4341
15529TIP3   OH268001   3.541   1.782  11.559 -0.0635  0.0640 -0.0810
15529TIP3    H168002   3.470   1.756  11.618 -0.0530  0.6166  0.1787
15529TIP3    H268003   3.578   1.860  11.599  1.4014 -0.8293  0.3561
15530TIP3   OH268004   3.504   5.179  15.847 -0.0300 -0.0684  0.2897
15530TIP3    H168005   3.462   5.258  15.880 -1.6508 -0.2667 -1.1678
15530TIP3    H268006   3.544   5.139  15.924 -1.3614  0.8461  1.5108
15531TIP3   OH268007   4.130   6.491   2.004 -0.2813 -0.5895  0.2138
15531TIP3    H168008   4.217   6.476   1.968 -0.5577 -0.9596 -0.3125
15531TIP3    H268009   4.135   6.577   2.045  0.5177 -0.8948  0.7625
15532TIP3   OH268010   5.174   3.049  11.806 -0.0901 -0.7498 -0.2589
15532TIP3    H168011   5.209   3.027  11.719  0.9427 -2.8957  0.6292
15532TIP3    H268012   5.250   3.070  11.859 -0.6061 -0.5898  0.4378
15533TIP3   OH268013   5.923   0.357   4.858 -0.1844 -0.4567 -0.3244
15533TIP3    H168014   5.856   0.289   4.863 -0.5736 -0.1660 -1.3501
15533TIP3    H268015   5.892   0.416   4.789 -0.7460  1.7362  1.6781
15534TIP3   OH268016   2.525   2.369  12.201 -0.1977 -0.2952 -0.5560
15534TIP3    H168017   2.463   2.307  12.239 -2.4728  2.0219 -0.1746
15534TIP3    H268018   2.502   2.453  12.241  0.5330  1.3896 -3.3984
15535TIP3   OH268019   5.941   0.718  15.176 -0.2725  0.6827  0.6519
15535TIP3    H168020   5.938   0.768  15.258 -1.1557  0.1176  0.9864
15535TIP3    H268021   6.014   0.657  15.189  1.6307  2.6272 -0.2496
15536TIP3   OH268022   2.689   0.611   0.025  0.8116 -0.1874  0.2419
15536TIP3    H168023   2.595   0.629   0.031  1.0070  0.5522  1.5684
15536TIP3    H268024   2.699   0.560  -0.056 -0.9836 -1.9420  1.0352
15537TIP3   OH268025   3.528   4.483  16.995  0.4391  0.3171  0.5820
15537TIP3    H168026   3.589   4.529  17.054  1.9644  1.9809 -2.0904
15537TIP3    H268027   3.543   4.390  17.014  3.3711  0.6859  0.5562
15538TIP3   OH268028   4.859   3.401  16.500 -0.6153 -0.2137 -0.0823
15538TIP3    H168029   4.895   3.335  16.441 -0.0016 -0.2036  0.2729
15538TIP3    H268030   4.769   3.372  16.515 -0.2025 -1.2809  0.4797
15539TIP3   OH268031   4.183   1.365  11.669  0.1876 -0.1100 -0.1571
15539TIP3    H168032   4.089   1.362  11.686  0.1732  0.2094 -0.1818
15539TIP3    H268033   4.222   1.307  11.735 -0.1662 -1.4822 -1.1023
15540TIP3   OH268034   3.910   2.944  12.964 -0.1249  0.0871  0.1582
15540TIP3    H168035   3.922   2.930  13.058  1.5353  0.9519  0.1142
15540TIP3    H268036   3.902   3.039  12.954  1.8277  0.2095 -0.7302
15541TIP3   OH268037   0.929   6.492   2.145  0.4382 -0.6136  0.1843
15541TIP3    H168038   0.898   6.457   2.062 -0.7136 -0.5412  0.5644
15541TIP3    H268039   0.905   6.425   2.210  1.5401 -0.7843  0.4418
15542TIP3   OH268040   1.594   1.105  15.439  0.3774 -0.2928 -0.2275
15542TIP3    H168041   1.581   1.073  15.528  0.1451  1.4516  0.4211
15542TIP3    H268042   1.650   1.039  15.397 -0.5990 -1.8123  0.7718
15543TIP3   OH268043   1.665   1.153   1.463 -0.6827 -0.3815  0.3562
15543TIP3    H168044   1.654   1.212   1.388 -0.7624  0.0633  0.7126
15543TIP3    H268045   1.587   1.098   1.462 -0.7443 -0.2938  0.1864
15544TIP3   OH268046   2.716   0.261   6.378  0.3877  0.8686 -0.2467
15544TIP3    H168047   2.642   0.205   6.402  1.6255  0.4494  3.1204
15544TIP3    H268048   2.678   0.347   6.364 -0.8306  0.5039  0.6873
15545TIP3   OH268049   1.667   3.341   5.949  0.3261  0.5655 -0.0977
15545TIP3    H168050   1.667   3.245   5.944 -1.2658  0.5428 -0.4088
15545TIP3    H268051   1.661   3.361   6.042 -1.1985  0.2942 -0.1085
15546TIP3   OH268052   0.351   1.525   1.892 -0.2603 -0.1035  0.3606
15546TIP3    H168053   0.273   1.485   1.931  0.0729  1.0400  2.3294
15546TIP3    H268054   0.333   1.619   1.893  0.1321  0.0370 -1.5617
15547TIP3   OH268055   2.502   1.213  17.099 -0.7656 -0.3865  0.2672
15547TIP3    H168056   2.445   1.243  17.029  0.1980  0.7789 -0.0406
15547TIP3    H268057   2.457   1.238  17.180  0.8244  3.8787  0.0962
15548TIP3   OH268058   0.432   0.864   4.791  0.1159 -0.2592  0.0388
15548TIP3    H168059   0.478   0.929   4.738  0.1610  0.5760  1.0714
15548TIP3    H268060   0.405   0.797   4.728  0.0735  0.7530 -1.0597
15549TIP3   OH268061   1.952   1.736  12.624 -0.2664 -0.1622  0.0439
15549TIP3    H168062   1.926   1.682  12.550 -1.0021 -1.3726  1.1425
15549TIP3    H268063   1.888   1.807  12.627 -1.1875 -0.9976  0.4502
15550TIP3   OH268064   3.007   6.194   5.163 -0.5850 -0.5398  0.3241
15550TIP3    H168065   3.074   6.147   5.113 -1.1369 -1.2862  0.2761
15550TIP3    H268066   3.057   6.250   5.223  0.0772 -0.2409 -0.4872
15551TIP3   OH268067   1.525   1.909   5.399  0.0869 -0.2478  0.1117
15551TIP3    H168068   1.577   1.893   5.321 -0.2001  0.2875 -0.1925
15551TIP3    H268069   1.559   1.991   5.434 -1.2419  0.6808 -0.6832
15552TIP3   OH268070   5.964   3.782   3.617  0.9242  0.4491 -0.4028
15552TIP3    H168071   5.957   3.752   3.526  0.0694  0.8942 -0.5028
15552TIP3    H268072   5.966   3.702   3.669 -0.3883  0.1878 -0.7200
15553TIP3   OH268073   3.329   2.532  12.254 -0.1892 -0.4785 -0.0951
15553TIP3    H168074   3.360   2.445  12.228  0.6450 -0.8073  1.8093
15553TIP3    H268075   3.238   2.518  12.281 -0.4561 -0.4939 -0.9691
15554TIP3   OH268076   5.918   4.162  11.500  0.3547  0.9725  0.3473
15554TIP3    H168077   5.912   4.253  11.529  2.1997  1.1865  0.1976
15554TIP3    H268078   5.980   4.164  11.427 -1.1709 -0.1254 -1.0640
15555TIP3   OH268079   5.546   5.962  10.657 -0.0549  0.1095 -0.7201
15555TIP3    H168080   5.523   5.870  10.648 -1.4249  0.4402 -0.7768
15555TIP3    H268081   5.639   5.966  10.633 -0.4289 -0.9647 -2.5283
15556TIP3   OH268082   3.235   6.558  16.836  0.0387  0.2182 -0.2055
15556TIP3    H168083   3.301   6.619  16.869  0.7365 -0.6479  0.0452
15556TIP3    H268084   3.152   6.599  16.856  0.4916  1.2068 -0.2763
15557TIP3   OH268085   1.920   5.996   2.745  0.1102  0.4917 -0.3426
15557TIP3    H168086   1.941   6.075   2.795  1.8026  0.6635 -1.2302
15557TIP3    H268087   1.825   5.989   2.750  0.1128  1.0266  2.0571
15558TIP3   OH268088   1.826   1.591  14.630  0.0744 -0.0240  0.2249
15558TIP3    H168089   1.812   1.629  14.543  2.5074 -1.5147 -0.9326
15558TIP3    H268090   1.898   1.641  14.667 -1.6954  1.3922  2.0151
15559TIP3   OH268091   4.116   5.396   2.158  0.0335 -0.7681  0.3644
15559TIP3    H168092   4.165   5.425   2.081 -3.2423  0.2714 -1.5568
15559TIP3    H268093   4.141   5.458   2.226  0.5446  0.4261 -0.8520
15560TIP3   OH268094   5.501   1.132  11.678 -0.2479 -0.2176  0.4304
15560TIP3    H168095   5.448   1.212  11.686  0.0871  0.2068 -1.2019
15560TIP3    H268096   5.484   1.084  11.758 -1.1193  1.1089  1.0783
15561TIP3   OH268097   0.739   4.149   0.901  0.7019 -0.0249 -0.3460
15561TIP3    H168098   0.671   4.116   0.959  0.2478 -0.6406 -1.2014
15561TIP3    H268099   0.821   4.124   0.943  0.3842 -0.3916  0.0621
15562TIP3   OH268100   3.419   1.793  13.179  0.3926 -0.4911 -0.5104
15562TIP3    H168101   3.393   1.880  13.147 -0.5986 -0.1809  1.0377
15562TIP3    H268102   3.475   1.811  13.254  0.8907 -1.2161 -0.6921
15563TIP3   OH268103   5.474   4.092   0.215 -0.2013 -0.2854  0.0202
15563TIP3    H168104   5.554   4.094   0.267 -0.8207  2.4768  1.0519
15563TIP3    H268105   5.403   4.097   0.280 -1.0677  0.8880 -0.9597
15564TIP3   OH268106   6.541   3.793  14.881  0.1636  0.0766  0.0240
15564TIP3    H168107   6.481   3.802  14.807  1.4341  0.2610 -1.0103
15564TIP3    H268108   6.548   3.699  14.895 -1.4780  0.0828  1.1097
15565TIP3   OH268109   6.631   5.371   5.050 -0.2394  0.1330 -0.0931
15565TIP3    H168110   6.651   5.287   5.008 -1.9500 -0.7307  0.6894
15565TIP3    H268111   6.704   5.387   5.109  0.6408 -0.2411 -1.0570
15566TIP3   OH268112   6.727   1.164  11.551  0.5722  0.3188  0.4565
15566TIP3    H168113   6.750   1.210  11.632  0.9977  0.5188  0.2226
15566TIP3    H268114   6.712   1.234  11.487  0.0943  0.1665  0.3991
15567TIP3   OH268115   1.510   2.791   5.033  0.3100  0.2461 -0.2602
15567TIP3    H168116   1.520   2.882   5.006 -0.8456  0.1316 -1.1592
15567TIP3    H268117   1.579   2.744   4.986  0.4597  0.5545 -0.3495
15568TIP3   OH268118   1.835   5.072  13.581  0.1267 -0.2751  0.3430
15568TIP3    H168119   1.799   4.987  13.606  1.0057 -0.8748 -0.3995
15568TIP3    H268120   1.769   5.110  13.523  1.1039 -1.8673 -1.9459
15569TIP3   OH268121   0.613   5.279  15.724 -0.1912 -0.1845  0.0829
15569TIP3    H168122   0.602   5.283  15.819 -1.8952  1.5371 -0.1112
15569TIP3    H268123   0.671   5.205  15.709 -1.1060 -1.4662  2.3786
15570TIP3   OH268124   4.377   3.776  15.565 -0.3220  0.3089 -0.5637
15570TIP3    H168125   4.413   3.835  15.498  1.3138  0.0833  0.0610
15570TIP3    H268126   4.450   3.762  15.625 -1.6166  0.1237  1.0206
15571TIP3   OH268127   2.968   0.749   1.346  0.0939 -0.1376 -0.6793
15571TIP3    H168128   2.880   0.784   1.331 -0.6593 -1.8069 -0.4379
15571TIP3    H268129   2.997   0.790   1.427 -1.1791 -0.7950  0.1535
15572TIP3   OH268130   3.567   0.572  16.559  0.1031 -0.2516 -0.0631
15572TIP3    H168131   3.551   0.640  16.623  0.4361 -2.0669  2.0841
15572TIP3    H268132   3.525   0.603  16.479  0.1355  2.3470  0.8441
15573TIP3   OH268133   6.219   0.943  13.077  0.2028 -0.0297  0.2913
15573TIP3    H168134   6.151   0.988  13.127 -2.9152 -0.9579 -2.7075
15573TIP3    H268135   6.237   1.001  13.003  1.2291 -0.7146 -0.0251
15574TIP3   OH268136   0.300   1.028  12.419 -0.3354 -0.2377  0.2371
15574TIP3    H168137   0.211   1.054  12.396 -0.1575  0.2392  0.0889
15574TIP3    H268138   0.346   1.021  12.336 -0.0063  0.3433  0.3659
15575TIP3   OH268139   0.773   3.369  14.874  0.4595  0.2158  0.0788
15575TIP3    H168140   0.747   3.281  14.899  1.0258  0.0956  0.2664
15575TIP3    H268141   0.813   3.359  14.788  0.4758  0.2996  0.0760
15576TIP3   OH268142   4.099   0.273   1.379  0.0602 -0.1358  0.3816
15576TIP3    H168143   4.167   0.334   1.351 -0.1483 -0.4242 -0.7691
15576TIP3    H268144   4.145   0.213   1.439  1.2163 -1.2585 -1.5355
15577TIP3   OH268145   4.842   2.528  15.897  0.5734 -0.0189  0.2420
15577TIP3    H168146   4.919   2.511  15.952  0.4990  0.1214  0.3891
15577TIP3    H268147   4.823   2.621  15.910  0.2334 -0.1063  0.3941
15578TIP3   OH268148   5.577   5.728   2.757 -0.0591  0.1439 -0.9108
15578TIP3    H168149   5.652   5.674   2.731  0.9046 -0.4785  2.6087
15578TIP3    H268150   5.504   5.666   2.760  0.1590 -0.1134 -0.7406
15579TIP3   OH268151   3.862   6.188  12.622  0.4052  0.3335  0.2184
15579TIP3    H168152   3.807   6.154  12.552  0.0156  0.9397  0.2259
15579TIP3    H268153   3.935   6.231  12.577 -0.2390  1.3915  0.1543
15580TIP3   OH268154   3.302   1.621   4.525 -0.2178  0.1840  0.0901
15580TIP3    H168155   3.236   1.685   4.498 -0.2649 -0.4011 -1.2464
15580TIP3    H268156   3.259   1.536   4.513  0.0405 -0.1500  1.3087
15581TIP3   OH268157   4.161   2.713   2.152  0.1865  0.5078  0.2066
15581TIP3    H168158   4.203   2.799   2.150  0.6494  0.2841 -0.8681
15581TIP3    H268159   4.165   2.683   2.061  1.7912 -1.4615  0.8443
15582TIP3   OH268160   0.182   2.004   1.032  0.2853  0.4468 -0.0346
15582TIP3    H168161   0.263   2.054   1.040  0.6634 -0.2622  0.8268
15582TIP3    H268162   0.156   1.987   1.123  1.2034 -2.5037 -0.2025
15583TIP3   OH268163   4.231   2.554   0.413  0.8870 -0.1312 -0.4669
15583TIP3    H168164   4.161   2.576   0.351 -0.5220 -0.6523  0.8904
15583TIP3    H268165   4.186   2.516   0.488  2.8009 -2.7939 -0.5266
15584TIP3   OH268166   3.163   6.599   4.260 -0.1918 -0.4198 -0.0639
15584TIP3    H168167   3.114   6.528   4.219 -0.7901 -0.1551  0.1702
15584TIP3    H268168   3.095   6.657   4.296  0.3038 -0.5252  1.0797
15585TIP3   OH268169   2.855   3.702  16.156  0.0793 -1.1976  0.2145
15585TIP3    H168170   2.895   3.638  16.214 -0.2327 -2.3136 -0.7774
15585TIP3    H268171   2.779   3.735  16.204 -0.6553 -2.7161  0.1522
15586TIP3   OH268172   4.837   1.405  12.441 -0.2509  0.0501 -0.1375
15586TIP3    H168173   4.819   1.442  12.527 -0.2572 -0.7670  0.2170
15586TIP3    H268174   4.828   1.310  12.453 -0.5872 -0.0551 -1.1092
15587TIP3   OH268175   5.608   3.952   3.150 -0.0093  0.0712  0.3881
15587TIP3    H168176   5.608   4.006   3.071  1.5968 -0.0305  0.2701
15587TIP3    H268177   5.635   3.865   3.119 -2.6620 -0.8876  0.5518
15588TIP3   OH268178   4.353   5.120  13.018  0.0332  0.0188 -0.3225
15588TIP3    H168179   4.321   5.104  12.929 -0.4616  0.3268 -0.2102
15588TIP3    H268180   4.420   5.054  13.032 -0.9174 -1.0026 -0.3957
15589TIP3   OH268181   6.164   5.611  11.310 -0.0850  0.1267  0.4999
15589TIP3    H168182   6.127   5.592  11.396  1.2599  0.6945  1.2432
15589TIP3    H268183   6.256   5.586  11.317  0.4909  1.8688 -0.1734
15590TIP3   OH268184   2.063   6.699   1.406 -0.3068  0.7604 -0.1197
15590TIP3    H168185   1.970   6.695   1.381  0.0737  3.4684 -2.6070
15590TIP3    H268186   2.098   6.614   1.380 -1.7357  0.4025 -1.0191
15591TIP3   OH268187   6.433   4.510  16.344  0.4427  0.2498  0.4287
15591TIP3    H168188   6.370   4.528  16.274  0.9889 -0.6899 -0.3302
15591TIP3    H268189   6.409   4.571  16.414  0.3533  1.7464 -0.8605
15592TIP3   OH268190   6.406   0.678  15.374 -0.0311  0.2248  0.1353
15592TIP3    H168191   6.434   0.605  15.319 -1.4920  0.5530 -1.0996
15592TIP3    H268192   6.419   0.646  15.463  0.9760 -0.8845 -0.3742
15593TIP3   OH268193   3.399   0.456  14.443 -0.3173 -0.4643  0.3992
15593TIP3    H168194   3.327   0.403  14.408 -1.0700  0.7479  0.0439
15593TIP3    H268195   3.438   0.496  14.365 -1.3619  1.4649  0.8192
15594TIP3   OH268196   0.896   6.509  15.536 -0.0314  0.1381 -0.2353
15594TIP3    H168197   0.872   6.418  15.556  1.0388  0.3318  2.3566
15594TIP3    H268198   0.888   6.555  15.620  3.7505  1.4354 -0.4035
15595TIP3   OH268199   4.415   3.055   1.841 -0.1806 -0.0634 -0.3422
15595TIP3    H168200   4.504   3.060   1.874  0.0792 -1.6986 -0.6928
15595TIP3    H268201   4.409   2.967   1.802 -1.9286  0.0203 -0.3453
15596TIP3   OH268202   5.918   0.075  15.615 -0.0549  0.5050 -0.0474
15596TIP3    H168203   5.881   0.078  15.526  1.1011 -0.7073 -0.6085
15596TIP3    H268204   5.961  -0.011  15.619  0.1047  0.6477  1.6172
15597TIP3   OH268205   1.427   0.770  16.900 -0.4109  0.3091 -0.1767
15597TIP3    H168206   1.357   0.808  16.847  0.0599  0.4621 -0.7057
15597TIP3    H268207   1.497   0.753  16.837 -0.3009 -0.6638  0.1995
15598TIP3   OH268208   3.131   6.509  12.023  0.4236 -0.3686  0.3873
15598TIP3    H168209   3.179   6.591  12.019 -1.7653  1.0210  1.0047
15598TIP3    H268210   3.148   6.467  11.939  0.1840  1.5675 -0.6860
15599TIP3   OH268211   0.314   5.959  15.197 -0.2223  0.0126  1.2159
15599TIP3    H168212   0.369   5.976  15.120  0.2283  1.0383  1.7410
15599TIP3    H268213   0.352   5.881  15.237  0.0537 -0.0454  0.8508
15600TIP3   OH268214   2.828   5.371   4.680  0.6205  0.0592  0.0707
15600TIP3    H168215   2.765   5.396   4.748 -1.1289  0.4242 -1.6089
15600TIP3    H268216   2.804   5.425   4.605  0.6023 -2.3871 -1.7819
15601TIP3   OH268217   2.104   1.866  16.871 -0.0015  0.2273  0.2871
15601TIP3    H168218   2.009   1.854  16.866 -0.1701  0.3195  2.5060
15601TIP3    H268219   2.140   1.779  16.852 -0.4232  0.4149 -1.6349
15602TIP3   OH268220   3.676   0.382  12.536  0.0888  0.3554  0.3392
15602TIP3    H168221   3.653   0.316  12.470  0.2305  1.5465 -0.9419
15602TIP3    H268222   3.676   0.334  12.619  1.5506 -1.5691 -0.7040
15603TIP3   OH268223   5.655   1.027   0.798 -0.8524  0.4229  0.1248
15603TIP3    H168224   5.723   0.990   0.741  0.0041  0.0950  1.3196
15603TIP3    H268225   5.608   1.089   0.742 -0.2129 -0.0749 -1.0054
15604TIP3   OH268226   5.105   3.061   4.703  0.2000 -0.0863  0.2614
15604TIP3    H168227   5.141   3.116   4.773 -0.8207  1.3003 -0.2353
15604TIP3    H268228   5.109   3.117   4.625 -0.6881 -0.7945 -0.3150
15605TIP3   OH268229   0.283   2.791   1.262 -0.1398 -0.8294 -0.3062
15605TIP3    H168230   0.199   2.780   1.217 -0.7304 -0.0625  0.5554
15605TIP3    H268231   0.331   2.854   1.209 -0.4156 -0.6997 -0.4026
15606TIP3   OH268232   3.693   1.060   0.418 -0.0649  0.3637  0.0638
15606TIP3    H168233   3.758   1.117   0.375 -2.3565  1.9986 -1.4887
15606TIP3    H268234   3.681   1.099   0.505  0.4839  0.5120  0.0776
15607TIP3   OH268235   5.347   0.008   4.310  0.0663 -0.8327  0.0221
15607TIP3    H168236   5.294  -0.021   4.236  1.6528  0.2216 -1.6230
15607TIP3    H268237   5.284   0.052   4.368 -1.1323 -1.0981 -1.0191
15608TIP3   OH268238   3.474   2.972  11.690  0.5790  0.5434 -0.4173
15608TIP3    H168239   3.382   2.997  11.700  0.4842 -0.1966  0.7585
15608TIP3    H268240   3.473   2.905  11.622 -0.1048 -1.1051  1.1252
15609TIP3   OH268241   1.852   5.790  16.112 -0.3807 -0.0661 -0.2899
15609TIP3    H168242   1.783   5.807  16.047 -0.7518  0.7799  0.3156
15609TIP3    H268243   1.911   5.865  16.104 -0.2552 -0.1200  0.1340
15610TIP3   OH268244   6.095   3.494   0.027  0.1001  0.0654  0.0571
15610TIP3    H168245   6.065   3.584   0.031 -0.5892 -0.1511 -0.0060
15610TIP3    H268246   6.165   3.489   0.092 -1.2079  0.1696  1.5457
15611TIP3   OH268247   1.404   5.045   2.246  0.7639 -0.3314 -0.7303
15611TIP3    H168248   1.496   5.029   2.221  1.4900  2.1723  0.0907
15611TIP3    H268249   1.377   5.119   2.192  0.2726  1.0008  1.2589
15612TIP3   OH268250   5.192   4.697  13.425  0.1414  0.3717 -0.4716
15612TIP3    H168251   5.157   4.627  13.371 -0.3495  1.4106 -1.5546
15612TIP3    H268252   5.250   4.745  13.366  0.8939  0.5675  0.4007
15613TIP3   OH268253   3.919   2.899  16.274 -0.4818 -0.2519 -0.1993
15613TIP3    H168254   3.924   2.837  16.347 -1.1976 -0.9489 -0.7266
15613TIP3    H268255   3.935   2.985  16.314  1.1353 -0.8157  0.4522
15614TIP3   OH268256   4.228   4.815  13.690  0.2825 -0.1151  0.4591
15614TIP3    H168257   4.263   4.792  13.604  0.6909  0.4468  0.4668
15614TIP3    H268258   4.181   4.737  13.719  1.0500 -0.6894  0.1889
15615TIP3   OH268259   1.439   4.286  12.561 -0.0443  0.5246 -0.7248
15615TIP3    H168260   1.362   4.231  12.554  0.6444 -1.3181  3.1862
15615TIP3    H268261   1.413   4.357  12.620  1.3636 -0.7508  1.6004
15616TIP3   OH268262   1.916   3.747   4.899 -0.2426  0.5730 -0.0500
15616TIP3    H168263   1.874   3.715   4.978 -1.5721 -3.0091 -1.9938
15616TIP3    H268264   2.009   3.725   4.910 -0.2698  0.8568  0.7958
15617TIP3   OH268265   2.671   5.837   5.337  0.3631  0.1008 -0.7600
15617TIP3    H168266   2.622   5.906   5.292 -2.2890 -0.9146  0.3471
15617TIP3    H268267   2.684   5.870   5.426 -3.8614 -1.7990  0.8690
15618TIP3   OH268268   0.299   1.990  11.644  0.0134 -0.0938 -0.3979
15618TIP3    H168269   0.226   1.967  11.703  0.6197  0.0679  0.4327
15618TIP3    H268270   0.345   2.060  11.690  0.5158  0.0180 -1.0638
15619TIP3   OH268271   2.294   2.269   0.688  0.4433  0.1400 -0.3421
15619TIP3    H168272   2.262   2.263   0.598 -3.2739 -0.6677  0.8290
15619TIP3    H268273   2.332   2.183   0.705 -0.7065 -0.4406 -0.5881
15620TIP3   OH268274   3.299   1.832   2.547 -0.5985 -0.5169 -0.7488
15620TIP3    H168275   3.284   1.919   2.509 -1.2716 -0.8882 -1.3607
15620TIP3    H268276   3.387   1.808   2.518  0.1913  0.5506  0.6303
15621TIP3   OH268277   4.358   3.112  14.696 -0.5546 -0.0795  0.2167
15621TIP3    H168278   4.395   3.196  14.669  0.2865 -0.1278  1.1698
15621TIP3    H268279   4.277   3.105  14.646 -1.2462  1.8445  0.9485
15622TIP3   OH268280   1.496   6.059   1.855 -0.0479  0.0739 -0.1955
15622TIP3    H168281   1.409   6.087   1.885  0.8864  3.5503 -0.2674
15622TIP3    H268282   1.537   6.023   1.933 -0.9527 -0.0356  0.2508
15623TIP3   OH268283   2.210   1.469  11.919 -0.2028 -0.6174 -0.3329
15623TIP3    H168284   2.302   1.493  11.915 -0.1635 -0.8712 -1.1051
15623TIP3    H268285   2.211   1.375  11.935 -0.3482 -0.3730  1.2627
15624TIP3   OH268286   2.708   0.617  10.585 -0.0232 -0.3693 -0.0438
15624TIP3    H168287   2.681   0.560  10.513  0.6339 -1.5016  0.5716
15624TIP3    H268288   2.626   0.636  10.632 -0.5861  1.0749 -1.5274
15625TIP3   OH268289   0.970   5.404   0.436 -0.4557 -0.2931  0.1799
15625TIP3    H168290   0.911   5.333   0.461 -1.8889 -0.5955 -3.4156
15625TIP3    H268291   0.914   5.466   0.389  1.4976  1.1902 -0.3230
15626TIP3   OH268292   5.772   1.917  16.496 -0.4158 -0.3896 -0.7443
15626TIP3    H168293   5.816   1.856  16.555  1.7223  1.5725 -0.1796
15626TIP3    H268294   5.738   1.862  16.426  1.5815 -2.2087 -0.3812
15627TIP3   OH268295   1.302   1.956  11.917  0.2720 -0.6775 -0.8348
15627TIP3    H168296   1.377   1.924  11.967 -0.2452  0.5220  0.8033
15627TIP3    H268297   1.341   2.006  11.845  1.1208  1.5380  1.0602
15628TIP3   OH268298   3.367   1.897   1.673  0.4086 -0.0615  0.1362
15628TIP3    H168299   3.387   1.804   1.660  1.4534  0.2638 -0.6701
15628TIP3    H268300   3.397   1.940   1.593  0.9244  1.1239  0.9430
15629TIP3   OH268301   4.023   4.478  13.469  0.3327  0.3266  0.1417
15629TIP3    H168302   4.044   4.485  13.376 -0.5470  0.8695 -0.0231
15629TIP3    H268303   3.971   4.556  13.488 -1.7573 -1.0515  0.4504
15630TIP3   OH268304   2.572   4.228   2.347 -0.1752 -0.2322 -0.2132
15630TIP3    H168305   2.605   4.139   2.335 -1.2015 -0.5338 -0.9374
15630TIP3    H268306   2.479   4.222   2.327 -0.0024  1.2672 -1.6922
15631TIP3   OH268307   1.126   3.804   4.342  0.3355  0.2744  0.2480
15631TIP3    H168308   1.063   3.734   4.358  1.7042 -0.6105  2.2013
15631TIP3    H268309   1.080   3.865   4.285 -1.1109 -1.9272 -1.1347
15632TIP3   OH268310   0.178   1.583  13.285  0.1758  0.2508  0.1605
15632TIP3    H168311   0.161   1.673  13.256 -1.7769  0.4866  1.7663
15632TIP3    H268312   0.252   1.590  13.344  0.4412  0.6965 -0.2201
15633TIP3   OH268313   5.000   5.157   1.652  0.1973  0.1961 -0.0221
15633TIP3    H168314   4.972   5.224   1.589 -0.5909  1.6831  1.7955
15633TIP3    H268315   5.095   5.156   1.645  0.0850 -0.6254 -2.1104
15634TIP3   OH268316   6.258   3.831   1.285 -0.6410  0.0032 -0.4748
15634TIP3    H168317   6.278   3.908   1.232 -1.4056  0.0512 -0.7068
15634TIP3    H268318   6.238   3.762   1.221 -2.7179  0.3718 -0.2710
15635TIP3   OH268319   4.071   4.604  10.857  0.0427  0.1067 -0.0174
15635TIP3    H168320   4.029   4.559  10.783  1.5116  0.8951 -1.3805
15635TIP3    H268321   4.131   4.538  10.893  0.0560  0.0390 -0.1615
15636TIP3   OH268322   4.153   0.855  15.393  0.1915 -0.2440  0.5454
15636TIP3    H168323   4.150   0.913  15.318 -0.9134 -0.9606  0.0147
15636TIP3    H268324   4.129   0.769  15.359  3.5337 -1.4749  0.9464
15637TIP3   OH268325   4.375   3.946   1.763 -0.4545 -0.2735 -0.5763
15637TIP3    H168326   4.279   3.947   1.770 -0.4880 -0.8566 -0.8742
15637TIP3    H268327   4.403   4.029   1.801 -0.9563 -0.9235  1.3192
15638TIP3   OH268328   4.986   0.184   3.649  0.3376 -0.1998  0.2007
15638TIP3    H168329   5.067   0.234   3.654  1.0418 -1.0341 -1.9195
15638TIP3    H268330   5.014   0.093   3.644 -0.8049 -0.6059  0.7316
15639TIP3   OH268331   2.244   0.126   3.638  0.4663  0.2407  0.8713
15639TIP3    H168332   2.157   0.119   3.676  0.2100 -1.0321  0.1323
15639TIP3    H268333   2.302   0.145   3.712 -0.4231  1.0489  1.3724
15640TIP3   OH268334   4.820   3.457  17.162  0.4040  0.0353 -0.0635
15640TIP3    H168335   4.764   3.521  17.207 -0.2680 -0.7289  0.2302
15640TIP3    H268336   4.835   3.389  17.228  0.5703 -0.4187 -0.5621
15641TIP3   OH268337   1.425   5.634   3.018 -0.3321 -0.1973  0.0575
15641TIP3    H168338   1.333   5.612   3.000 -0.8778  2.4914 -0.8219
15641TIP3    H268339   1.456   5.674   2.937  0.9800  0.8540  1.0400
15642TIP3   OH268340   3.359   3.928   2.753  0.4203  0.3009  0.2828
15642TIP3    H168341   3.269   3.960   2.761  0.7869  2.6089 -2.8775
15642TIP3    H268342   3.349   3.835   2.730 -1.1558  0.4455  0.2780
15643TIP3   OH268343   6.061   4.057  14.096 -1.0116 -0.5578  0.0618
15643TIP3    H168344   5.986   4.051  14.155 -1.1543  3.1518  0.4648
15643TIP3    H268345   6.129   4.005  14.139 -1.2960  1.4749  3.3601
15644TIP3   OH268346   6.441   4.875  13.263 -0.5575  0.2897 -0.0686
15644TIP3    H168347   6.462   4.952  13.316  2.9597 -0.3331 -0.2795
15644TIP3    H268348   6.346   4.879  13.250 -1.2299  1.9307  3.9379
15645TIP3   OH268349   0.913   5.033  11.237  0.0452  0.1515 -0.1517
15645TIP3    H168350   0.911   5.035  11.141 -1.6847  2.5951 -0.1560
15645TIP3    H268351   0.826   5.002  11.262  0.5848 -0.7479  0.6405
15646TIP3   OH268352   6.256   3.052   1.297  0.2624 -0.1958 -0.7783
15646TIP3    H168353   6.333   3.034   1.243  0.9811 -0.2249  0.2325
15646TIP3    H268354   6.217   3.130   1.259  3.0205  2.2551  0.9649
15647TIP3   OH268355   1.724   2.487   1.759  0.3287  0.3577 -0.2885
15647TIP3    H168356   1.794   2.422   1.764  0.4621  0.4914 -0.4066
15647TIP3    H268357   1.680   2.482   1.844  0.0113 -0.2530 -0.4817
15648TIP3   OH268358   0.022   5.984  17.188  0.9561  0.1391 -0.2361
15648TIP3    H168359  -0.072   5.967  17.182  0.4348  2.5587 -0.2675
15648TIP3    H268360   0.049   5.941  17.268  0.0545 -1.4270 -0.7233
15649TIP3   OH268361   4.355   0.992  16.689 -0.1541 -0.4837  0.9234
15649TIP3    H168362   4.366   0.908  16.732  1.6547 -0.5554  0.3989
15649TIP3    H268363   4.417   1.050  16.733 -0.2471  0.1520  0.2404
15650TIP3   OH268364   4.149   4.787   4.939 -0.3613  0.2139  0.0739
15650TIP3    H168365   4.213   4.790   4.868 -1.1118 -0.2661 -0.6406
15650TIP3    H268366   4.201   4.771   5.018  0.4745  0.6976 -0.3656
15651TIP3   OH268367   2.428   4.548  10.556  0.7038 -0.5390  0.3171
15651TIP3    H168368   2.523   4.548  10.564  0.5998  0.1407  1.7240
15651TIP3    H268369   2.406   4.458  10.531  1.7400 -0.5394 -0.6827
15652TIP3   OH268370   0.530   6.552   0.573  0.1172 -0.6551 -0.6756
15652TIP3    H168371   0.599   6.499   0.614 -0.2647 -1.7790 -1.4290
15652TIP3    H268372   0.449   6.516   0.609 -0.1246  0.0025 -0.5480
15653TIP3   OH268373   5.334   4.502   2.421 -0.7206  0.4582  0.2872
15653TIP3    H168374   5.363   4.435   2.360 -1.1850 -0.4805  1.0699
15653TIP3    H268375   5.353   4.465   2.508  1.9860  2.6476  0.7897
15654TIP3   OH268376   3.510   4.285   4.075 -0.2373  0.1811 -0.1752
15654TIP3    H168377   3.545   4.314   4.160  1.6789 -1.9713 -0.1490
15654TIP3    H268378   3.466   4.203   4.094 -3.8674  1.8367 -0.5884
15655TIP3   OH268379   6.390   1.884  11.700 -0.1514 -0.6135 -0.1837
15655TIP3    H168380   6.412   1.970  11.736  1.1938 -0.5852 -0.9958
15655TIP3    H268381   6.458   1.868  11.634 -1.4126 -1.5100 -1.3091
15656TIP3   OH268382   4.513   3.105   4.996 -0.4883 -0.2394  0.5301
15656TIP3    H168383   4.593   3.088   4.945 -0.1999  2.0163  0.0945
15656TIP3    H268384   4.545   3.143   5.078 -1.0811 -0.7489  1.0028
15657TIP3   OH268385   5.424   4.110  16.201 -0.0089 -0.2572  0.1293
15657TIP3    H168386   5.443   4.038  16.141 -0.1868  0.2852 -0.5991
15657TIP3    H268387   5.441   4.075  16.288 -0.4177 -1.2843 -0.1969
15658TIP3   OH268388   5.793   5.740  11.860  0.3417  0.8575 -0.3116
15658TIP3    H168389   5.723   5.758  11.923  0.0227 -1.8855  0.2244
15658TIP3    H268390   5.748   5.715  11.780  0.6175 -1.5083  0.2088
15659TIP3   OH268391   0.465   4.383  13.868 -0.5264  0.3017  0.0960
15659TIP3    H168392   0.429   4.319  13.806  2.7566 -1.6857  0.0370
15659TIP3    H268393   0.453   4.343  13.954  1.1838 -0.2682  0.0962
15660TIP3   OH268394   1.888   6.655  15.392 -0.0342  0.2354  0.1373
15660TIP3    H168395   1.958   6.592  15.412 -0.1077 -0.3034 -1.2093
15660TIP3    H268396   1.838   6.661  15.473  1.5438  0.6122  1.1240
15661TIP3   OH268397   3.980   1.173   4.287  0.1383  0.0466 -0.7258
15661TIP3    H168398   3.899   1.223   4.291  0.0543  0.0546 -2.0314
15661TIP3    H268399   4.039   1.217   4.348 -0.1354  1.3706 -1.3803
15662TIP3   OH268400   1.616   2.684  13.096 -0.6257  0.1077  0.2247
15662TIP3    H168401   1.667   2.605  13.077  1.2727  1.6624 -1.7175
15662TIP3    H268402   1.656   2.719  13.175 -0.1205  0.1312 -0.0321
15663TIP3   OH268403   4.911   1.498   3.181  0.6203 -0.1859 -0.4702
15663TIP3    H168404   4.889   1.501   3.087 -4.6882 -1.7973  0.3249
15663TIP3    H268405   4.912   1.404   3.201  2.7661  0.0982  0.9824
15664TIP3   OH268406   5.134   6.039   5.879  0.1606 -0.3538  0.0546
15664TIP3    H168407   5.195   6.039   5.806 -0.4237 -0.9221 -0.4424
15664TIP3    H268408   5.188   6.059   5.955  0.8287 -0.0881 -0.4840
15665TIP3   OH268409   5.410   2.842   3.668  0.3546  0.0066  0.1455
15665TIP3    H168410   5.493   2.797   3.688 -0.2319 -0.1580  2.6453
15665TIP3    H268411   5.436   2.919   3.618  2.0409  0.0033  0.9275
15666TIP3   OH268412   4.924   3.957   0.139  0.0050 -0.1660  0.0983
15666TIP3    H168413   4.913   4.051   0.131 -0.8694 -0.4223 -3.2166
15666TIP3    H268414   4.871   3.933   0.215  0.0985  1.9450  0.8946
15667TIP3   OH268415   4.500   0.464  14.189  0.8291 -0.3218  0.4286
15667TIP3    H168416   4.474   0.538  14.244  1.0394 -1.7086  2.4898
15667TIP3    H268417   4.460   0.483  14.104 -1.3491  0.8831  1.6156
15668TIP3   OH268418   1.743   6.663  16.300 -0.2855 -0.1918 -0.2759
15668TIP3    H168419   1.737   6.726  16.372 -1.4034  0.3396 -0.8132
15668TIP3    H268420   1.677   6.691  16.237 -0.0396 -1.2564 -1.0464
15669TIP3   OH268421   1.438   2.290  12.578  0.1588  0.3768  0.0200
15669TIP3    H168422   1.459   2.382  12.590  1.0956  0.0015  1.4288
15669TIP3    H268423   1.500   2.260  12.511 -0.1185  0.7437 -0.4083
15670TIP3   OH268424   3.862   2.298  11.255 -0.0510 -0.3038  1.0560
15670TIP3    H168425   3.800   2.231  11.227 -0.3964  0.6869 -0.6427
15670TIP3    H268426   3.827   2.330  11.338 -1.1900 -0.5530  0.6866
15671TIP3   OH268427   1.266   2.529   3.540  0.3527 -0.4585 -0.1556
15671TIP3    H168428   1.218   2.547   3.460 -1.5132  1.5027  1.2909
15671TIP3    H268429   1.296   2.614   3.571 -0.9080 -0.8025  2.3174
15672TIP3   OH268430   3.393   6.293  11.446 -0.0403 -0.4392 -0.0476
15672TIP3    H168431   3.311   6.282  11.398  0.7442 -1.9610 -1.1363
15672TIP3    H268432   3.398   6.387  11.464 -2.0749 -0.3398  0.1729
15673TIP3   OH268433   4.661   2.800   5.088  0.4003 -0.7728 -0.0134
15673TIP3    H168434   4.710   2.873   5.049 -0.4155 -0.3716 -0.3024
15673TIP3    H268435   4.656   2.821   5.181  1.2082 -1.0722  0.1064
15674TIP3   OH268436   5.332   0.681   5.472  0.0747 -0.7559  0.0182
15674TIP3    H168437   5.245   0.642   5.458 -0.5685  0.5783  0.1482
15674TIP3    H268438   5.373   0.677   5.386 -1.2655  1.2433 -0.7794
15675TIP3   OH268439   4.189   6.694  11.880  0.6693 -0.0982  0.2054
15675TIP3    H168440   4.175   6.770  11.936 -2.4172  0.1772 -0.7496
15675TIP3    H268441   4.207   6.731  11.794 -0.8644 -0.3779 -0.2684
15676TIP3   OH268442   3.611   4.628  12.297  0.2405 -0.2027  0.0018
15676TIP3    H168443   3.535   4.673  12.258 -0.1848 -2.4324 -1.9860
15676TIP3    H268444   3.679   4.633  12.230  0.6909 -1.1738  0.3631
15677TIP3   OH268445   5.938   5.953   6.098  0.1924  0.0193  0.1576
15677TIP3    H168446   5.908   5.905   6.175  3.5267  1.2458  2.4640
15677TIP3    H268447   5.881   6.030   6.093 -0.1783 -0.1587  1.3696
15678TIP3   OH268448   5.740   5.198   2.924  0.1439 -0.1840  0.1856
15678TIP3    H168449   5.739   5.289   2.896 -0.3198  0.0581  0.9581
15678TIP3    H268450   5.681   5.154   2.863 -0.0881  0.1489  0.1657
15679TIP3   OH268451   3.189   2.082   1.125 -0.3738 -0.3926 -0.1261
15679TIP3    H168452   3.096   2.098   1.140 -0.0232  1.0918  0.6811
15679TIP3    H268453   3.226   2.071   1.212 -0.1038 -3.3396 -0.5017
15680TIP3   OH268454   1.658   5.823  11.348 -0.2206  0.2533  0.3623
15680TIP3    H168455   1.665   5.862  11.260  0.8705 -0.7938 -0.0441
15680TIP3    H268456   1.737   5.852  11.393  0.8974 -1.8282 -0.1275
15681TIP3   OH268457   6.076   2.006   1.196  0.0370 -0.1414 -0.4383
15681TIP3    H168458   6.104   2.017   1.105 -1.7727  2.0994 -0.8253
15681TIP3    H268459   6.034   1.920   1.199  1.2034 -0.7705 -1.3819
15682TIP3   OH268460   3.364   3.936  15.094  0.3769 -0.3837 -0.0218
15682TIP3    H168461   3.399   3.860  15.142  0.0320  0.2138  1.2344
15682TIP3    H268462   3.327   3.992  15.163  0.6546  0.9411 -0.9196
15683TIP3   OH268463   4.743   0.734  13.089 -0.8502  0.4497 -0.0002
15683TIP3    H168464   4.822   0.735  13.142  0.7817  0.4186 -2.2748
15683TIP3    H268465   4.723   0.641  13.077 -0.8901  0.4459  0.0963
15684TIP3   OH268466   3.468   5.991   3.385  0.2220  0.7176  0.2332
15684TIP3    H168467   3.445   5.898   3.388 -0.4627  0.8955  0.8688
15684TIP3    H268468   3.396   6.035   3.431  1.8917  1.2995  2.4290
15685TIP3   OH268469   2.428   2.638  16.665  0.1923  0.2226  0.4366
15685TIP3    H168470   2.494   2.581  16.626  0.6085 -0.3714  1.9158
15685TIP3    H268471   2.418   2.710  16.603 -0.3386 -1.4212 -1.4869
15686TIP3   OH268472   0.162   5.437   4.878 -0.2003 -0.2051  0.0386
15686TIP3    H168473   0.179   5.391   4.961  1.9379 -0.0782 -0.2622
15686TIP3    H268474   0.172   5.529   4.900 -1.1440 -0.0754 -0.0602
15687TIP3   OH268475   4.752   1.931   2.418  0.1850  0.2722 -0.4337
15687TIP3    H168476   4.658   1.945   2.428  0.6058  2.7765  0.6715
15687TIP3    H268477   4.780   1.895   2.502  0.7999  3.7276  1.0135
15688TIP3   OH268478   1.174   5.989   3.647  0.1892  0.0700  0.1498
15688TIP3    H168479   1.206   6.008   3.558  1.6117  1.2659  0.8604
15688TIP3    H268480   1.159   5.895   3.648  2.9725 -0.4759 -0.5569
15689TIP3   OH268481   2.643   6.368   5.361  0.3500  0.2807 -0.2135
15689TIP3    H168482   2.709   6.429   5.394  0.2660  1.7091 -2.5098
15689TIP3    H268483   2.568   6.423   5.341  0.4694 -0.4245 -2.8969
15690TIP3   OH268484   3.683   2.773   5.418 -0.8293 -0.5068  0.5796
15690TIP3    H168485   3.649   2.688   5.389  0.2438 -1.3012  1.5503
15690TIP3    H268486   3.745   2.751   5.488  1.4080  0.8668 -0.8345
15691TIP3   OH268487   4.470   1.210  12.309 -0.5659  0.4273 -0.2012
15691TIP3    H168488   4.542   1.168  12.263 -1.3117 -0.9678 -0.1441
15691TIP3    H268489   4.505   1.295  12.337  0.4800  0.5056 -1.6756
15692TIP3   OH268490   5.123   1.057  11.928 -0.1676 -0.6559  0.3845
15692TIP3    H168491   5.077   1.023  11.851 -0.4008 -0.3849  0.4043
15692TIP3    H268492   5.084   1.010  12.002 -0.1088 -0.7430  0.3604
15693TIP3   OH268493   0.970   0.785   5.200 -0.0507 -0.2668  0.5890
15693TIP3    H168494   0.995   0.843   5.128 -0.2924 -0.0476  0.6806
15693TIP3    H268495   0.893   0.738   5.168  1.8087 -2.7566 -0.6659
15694TIP3   OH268496   3.432   2.230  11.140  0.4297 -0.8931 -0.5557
15694TIP3    H168497   3.365   2.210  11.075  0.1281 -1.7549  0.0155
15694TIP3    H268498   3.514   2.233  11.090 -0.0203  0.2866 -1.2786
15695TIP3   OH268499   0.492   2.419  14.610  0.2687  0.4052  0.3398
15695TIP3    H168500   0.482   2.343  14.667 -0.6018 -0.0675 -0.4058
15695TIP3    H268501   0.475   2.494  14.666  1.9333  0.1178  1.2751
15696TIP3   OH268502   2.072   6.463  11.290  0.1806 -0.1079  0.0325
15696TIP3    H168503   2.121   6.545  11.293 -0.1596  0.2194 -1.8918
15696TIP3    H268504   2.138   6.396  11.279  0.3484  0.1094 -0.3128
15697TIP3   OH268505   6.462   4.634   3.409  0.1262  0.4637 -0.4633
15697TIP3    H168506   6.422   4.691   3.475 -0.6321 -0.0548 -0.4567
15697TIP3    H268507   6.398   4.564   3.397  1.5492 -1.0554  0.4186
15698TIP3   OH268508   3.124   4.691  10.654  0.2716 -0.5051 -0.5392
15698TIP3    H168509   3.207   4.646  10.675  0.9363  1.1946  0.7416
15698TIP3    H268510   3.131   4.711  10.561  2.3967  1.5727 -0.0379
15699TIP3   OH268511   4.358   4.175  13.059  0.7883 -0.6179  0.5621
15699TIP3    H168512   4.377   4.081  13.067  0.1122 -0.8939 -0.7234
15699TIP3    H268513   4.403   4.201  12.978 -1.2221 -0.4815 -0.5792
15700TIP3   OH268514   2.782   1.590   6.663 -0.3288 -0.1058 -0.3931
15700TIP3    H168515   2.785   1.524   6.732  1.5162  0.4029  0.0666
15700TIP3    H268516   2.851   1.652   6.685 -0.7593  0.9665 -1.8396
15701TIP3   OH268517   2.278   1.812  16.601 -0.4987 -0.5872  0.1659
15701TIP3    H168518   2.214   1.883  16.610  0.0558  0.0369 -0.6331
15701TIP3    H268519   2.290   1.780  16.690 -0.9647  0.1425  0.5050
15702TIP3   OH268520   1.005   2.430  11.914  0.2793  0.6025  0.1137
15702TIP3    H168521   0.976   2.339  11.918 -3.6471  1.5931 -0.9899
15702TIP3    H268522   0.924   2.481  11.920  2.0936  3.9832 -1.3146
15703TIP3   OH268523   2.949   5.937  14.497  0.2489 -0.3128 -0.4677
15703TIP3    H168524   2.951   5.998  14.424  0.3122  0.8649  0.4836
15703TIP3    H268525   3.028   5.957  14.548 -1.4091  1.2142  1.6977
15704TIP3   OH268526   1.053   1.331   0.100 -0.4026 -0.0564  0.9334
15704TIP3    H168527   1.033   1.260   0.039  0.9795 -0.9426  1.4553
15704TIP3    H268528   0.982   1.328   0.164 -0.4667 -0.8684  0.8447
15705TIP3   OH268529   3.215   4.936   2.559  0.8712 -0.2262  0.1853
15705TIP3    H168530   3.153   4.875   2.600  0.2426  1.0204  1.1380
15705TIP3    H268531   3.293   4.883   2.543  0.9797 -0.9152  2.5830
15706TIP3   OH268532   2.282   0.546  13.349 -0.0532  0.0908 -0.1350
15706TIP3    H168533   2.230   0.602  13.406  0.6349 -0.2838  0.8871
15706TIP3    H268534   2.280   0.460  13.392  1.0810 -0.0228 -0.2757
15707TIP3   OH268535   1.878   4.759  11.952 -0.3733  0.2966 -0.1522
15707TIP3    H168536   1.849   4.701  12.022  0.8315 -1.1539 -0.8147
15707TIP3    H268537   1.973   4.753  11.952 -0.3576 -1.0721 -2.9294
15708TIP3   OH268538   6.325   5.731   5.672  0.3515 -0.4294  0.1180
15708TIP3    H168539   6.411   5.745   5.635  0.5743  0.6335  0.9776
15708TIP3    H268540   6.265   5.731   5.597  0.8897  0.7138 -0.3231
15709TIP3   OH268541   1.701   6.152   4.208 -0.4999 -1.5803  0.3636
15709TIP3    H168542   1.785   6.193   4.187  0.2369 -3.3907 -0.5528
15709TIP3    H268543   1.679   6.184   4.295  0.0644  0.5620 -0.2259
15710TIP3   OH268544   3.656   0.331  12.813 -0.5054  0.2512  0.2626
15710TIP3    H168545   3.599   0.406  12.833 -0.8480 -0.6841  3.2600
15710TIP3    H268546   3.700   0.312  12.896  1.3374 -1.4563 -1.0228
15711TIP3   OH268547   2.715   4.926   3.050 -0.0062  0.1467 -0.1339
15711TIP3    H168548   2.742   4.860   3.114  0.3492  0.2612 -0.1687
15711TIP3    H268549   2.654   4.880   2.993 -1.1845  0.3075  0.9339
15712TIP3   OH268550   3.025   5.140   1.637 -0.2379  0.1171 -0.4929
15712TIP3    H168551   3.044   5.098   1.553  1.4056 -1.7403  0.7172
15712TIP3    H268552   3.111   5.152   1.677 -0.7460  3.4943 -0.1473
15713TIP3   OH268553   3.545   6.097  12.825 -0.4713  0.0125  0.3129
15713TIP3    H168554   3.558   6.018  12.878  1.9084 -1.4856 -2.2074
15713TIP3    H268555   3.627   6.146  12.835 -0.1186 -0.1243 -1.5731
15714TIP3   OH268556   1.564   5.304   3.401 -0.2728 -0.0529  0.3684
15714TIP3    H168557   1.566   5.367   3.329 -0.4294  0.6248  0.9406
15714TIP3    H268558   1.638   5.246   3.386 -0.7319 -0.3752 -0.7299
15715TIP3   OH268559   3.988   6.050   5.866  0.1959 -0.6523  0.1499
15715TIP3    H168560   3.982   5.970   5.918 -1.4951 -0.2810  0.5567
15715TIP3    H268561   4.041   6.109   5.919 -0.7418 -0.5945  1.0348
15716TIP3   OH268562   6.081   5.017  15.865  0.2099 -0.8977 -0.0234
15716TIP3    H168563   6.048   5.045  15.950  0.7103 -0.5166  0.0541
15716TIP3    H268564   6.083   4.922  15.870 -2.5535 -1.0773 -0.6701
15717TIP3   OH268565   2.662   6.277   2.566 -0.9691  0.0452 -0.7547
15717TIP3    H168566   2.728   6.288   2.497  1.8482  2.9273  2.0551
15717TIP3    H268567   2.610   6.356   2.563 -0.2840  0.5962  0.8183
15718TIP3   OH268568   4.386   3.610   5.805 -0.0515 -0.3601 -0.1438
15718TIP3    H168569   4.335   3.554   5.865 -1.3419  0.5141 -0.3771
15718TIP3    H268570   4.434   3.669   5.863  0.5667 -1.0586  0.0759
15719TIP3   OH268571   2.722   1.225  10.953 -0.3430  0.4290 -0.2016
15719TIP3    H168572   2.766   1.249  11.035 -0.2080 -0.8667  0.1177
15719TIP3    H268573   2.792   1.228  10.887  0.0004 -0.5528  0.1097
15720TIP3   OH268574   5.002   1.702   1.893  0.1247 -0.0524 -0.4737
15720TIP3    H168575   5.043   1.771   1.946  0.7502 -0.0376 -0.9710
15720TIP3    H268576   4.946   1.749   1.832 -1.3387 -0.1095  0.7672
15721TIP3   OH268577   0.919   6.236   2.567  0.0875 -1.0246 -0.4160
15721TIP3    H168578   0.988   6.298   2.592 -1.3762  0.7891 -0.7022
15721TIP3    H268579   0.853   6.244   2.636 -2.7922  2.1205 -3.1584
15722TIP3   OH268580   5.802   4.140  12.752 -0.9162  0.3257  0.1607
15722TIP3    H168581   5.790   4.130  12.658 -3.3654 -1.6099  0.5563
15722TIP3    H268582   5.826   4.052  12.782 -1.5667  0.5740  1.4747
15723TIP3   OH268583   0.838   3.531   2.573  0.1112 -0.7399  0.0321
15723TIP3    H168584   0.871   3.620   2.585  1.0890 -0.8280 -1.5639
15723TIP3    H268585   0.743   3.542   2.564  0.3123  0.3253 -1.2805
15724TIP3   OH268586   3.424   5.778   0.688  0.2234 -0.5533  0.3952
15724TIP3    H168587   3.504   5.728   0.669  0.1006 -0.6605  0.1636
15724TIP3    H268588   3.406   5.826   0.607  0.3661 -0.0985  0.6290
15725TIP3   OH268589   3.442   2.239  14.246 -0.0116  0.0102 -0.0292
15725TIP3    H168590   3.498   2.234  14.324  0.4684  0.1977 -0.3512
15725TIP3    H268591   3.426   2.333  14.235 -0.4550 -0.0498  0.1033
15726TIP3   OH268592   2.921   5.773  16.639 -0.0711 -1.0856 -0.5237
15726TIP3    H168593   2.984   5.831  16.597 -0.4183 -0.2893  0.0266
15726TIP3    H268594   2.842   5.781  16.586 -0.9508  0.9725  0.9752
15727TIP3   OH268595   4.455   2.794   1.759  0.3252  0.2523  0.4147
15727TIP3    H168596   4.518   2.767   1.826  1.0560  1.1000  0.1050
15727TIP3    H268597   4.499   2.774   1.676  0.0026  0.4517  0.1931
15728TIP3   OH268598   2.767   0.463   5.271 -0.2586 -0.0949 -0.8203
15728TIP3    H168599   2.778   0.428   5.182 -0.1532 -0.0110 -0.8395
15728TIP3    H268600   2.828   0.413   5.324 -1.6718 -1.4906 -0.4380
15729TIP3   OH268601   1.945   5.643  15.741  0.0835  0.5005  0.1286
15729TIP3    H168602   1.864   5.661  15.694 -0.3439 -0.7059  0.3611
15729TIP3    H268603   1.985   5.729  15.754  0.5076  0.8612 -2.8752
15730TIP3   OH268604   4.466   0.748   6.205 -0.2061 -0.7492  0.1218
15730TIP3    H168605   4.523   0.823   6.220  0.4662 -1.3873  0.8555
15730TIP3    H268606   4.497   0.711   6.122 -2.8957  1.8485 -2.2497
15731TIP3   OH268607   1.648   1.511   2.161 -0.5102 -0.9121 -0.1105
15731TIP3    H168608   1.624   1.426   2.197 -1.8932  0.2490  1.9065
15731TIP3    H268609   1.720   1.541   2.216 -0.8639 -0.2448 -0.0093
15732TIP3   OH268610   3.047   5.444   0.262  0.3365 -0.2331  0.1018
15732TIP3    H168611   3.039   5.533   0.225  1.1882  0.1015  0.7058
15732TIP3    H268612   3.136   5.440   0.296  0.0020 -1.0151  0.9091
15733TIP3   OH268613   3.249   2.683   0.125 -0.7473  0.3118 -0.3155
15733TIP3    H168614   3.263   2.776   0.104 -3.8434  0.6284 -1.4678
15733TIP3    H268615   3.178   2.684   0.188 -0.3826 -1.2873  0.1495
15734TIP3   OH268616   3.323   4.176   5.493 -0.7462  0.6243  0.2573
15734TIP3    H168617   3.414   4.194   5.470 -1.0648  1.7073 -0.2569
15734TIP3    H268618   3.311   4.215   5.579 -0.8183  0.8336  0.1545
15735TIP3   OH268619   1.076   2.102   1.810 -0.2016  0.3369  0.4305
15735TIP3    H168620   1.067   2.159   1.733 -1.4338  1.0042  1.0381
15735TIP3    H268621   0.991   2.106   1.852  0.4506 -0.0459  1.8223
15736TIP3   OH268622   2.595   2.352   0.529 -0.7340 -0.6896  0.4874
15736TIP3    H168623   2.596   2.430   0.473  0.4721 -0.3352  0.9698
15736TIP3    H268624   2.544   2.288   0.480 -2.1815  0.5548  0.3032
15737TIP3   OH268625   1.318   1.016   3.014 -0.2328 -0.1869  0.2056
15737TIP3    H168626   1.278   1.074   2.950 -2.1682 -0.6971  0.9011
15737TIP3    H268627   1.332   1.072   3.091  1.0175  0.1398 -0.2360
15738TIP3   OH268628   4.224   2.513  15.612  0.3034  0.3170  0.4049
15738TIP3    H168629   4.250   2.438  15.667  0.4078  1.3433  1.8056
15738TIP3    H268630   4.302   2.532  15.560  0.9643  0.6734  1.4794
15739TIP3   OH268631   0.517   5.955   1.567 -0.7691  0.0717  0.2368
15739TIP3    H168632   0.468   5.888   1.614 -1.3152  0.4446  0.2086
15739TIP3    H268633   0.518   6.030   1.626  1.0215 -0.3923  0.8523
15740TIP3   OH268634   4.569   3.987   1.399 -0.4732  0.8950 -0.1972
15740TIP3    H168635   4.521   3.904   1.391  0.1649  0.6806 -2.8145
15740TIP3    H268636   4.517   4.049   1.347  1.0043  1.1513 -1.4227
15741TIP3   OH268637   4.704   2.186  14.768  0.0022 -0.2384 -0.4191
15741TIP3    H168638   4.701   2.277  14.798 -1.2459 -0.7221  1.0777
15741TIP3    H268639   4.651   2.139  14.832 -0.0689 -1.8888 -1.6489
15742TIP3   OH268640   3.469   3.365   0.540  0.1571 -0.3084 -0.0939
15742TIP3    H168641   3.411   3.351   0.465  1.0248 -2.1068 -0.5071
15742TIP3    H268642   3.438   3.303   0.606 -0.2568  0.8765  0.8531
15743TIP3   OH268643   5.746   5.282   5.885 -0.1556 -0.0823  0.4477
15743TIP3    H168644   5.817   5.329   5.841  0.6007 -2.7086 -1.4151
15743TIP3    H268645   5.748   5.313   5.975  1.6922  1.7563 -0.1543
15744TIP3   OH268646   3.762   3.277  11.592 -0.0098 -1.1381  0.3096
15744TIP3    H168647   3.720   3.283  11.506 -1.1393 -0.1268  0.9039
15744TIP3    H268648   3.689   3.270  11.654  0.7944 -3.9846  1.1058
15745TIP3   OH268649   0.379   2.830  11.870 -0.4599 -0.2135 -0.2159
15745TIP3    H168650   0.457   2.884  11.857 -1.7699  1.8337 -0.0029
15745TIP3    H268651   0.315   2.889  11.909 -2.1637 -1.8027 -0.4572
15746TIP3   OH268652   0.661   3.939  11.792 -0.2947  0.4720 -0.0821
15746TIP3    H168653   0.751   3.959  11.819 -0.1368  1.3320 -1.1716
15746TIP3    H268654   0.670   3.862  11.736 -0.3437  0.0956  0.4163
15747TIP3   OH268655   5.234   4.961  12.890  0.1213 -0.0352  0.4182
15747TIP3    H168656   5.247   5.024  12.818 -0.0466 -0.9054 -0.3947
15747TIP3    H268657   5.164   4.999  12.943 -0.3188  0.2279 -0.3379
15748TIP3   OH268658   3.416   3.514   3.921  0.1726 -0.5025 -0.1652
15748TIP3    H168659   3.325   3.529   3.896  0.6616 -1.6447 -2.9758
15748TIP3    H268660   3.411   3.480   4.010 -2.1821 -0.9619 -0.4085
15749TIP3   OH268661   1.575   0.977  15.668  0.1311  0.5278 -0.1291
15749TIP3    H168662   1.520   0.919  15.720 -0.3602 -0.6939 -1.9386
15749TIP3    H268663   1.654   0.926  15.649  0.6901  1.2749  0.1407
15750TIP3   OH268664   3.244   0.869  13.490  0.0333  0.2814  0.0429
15750TIP3    H168665   3.246   0.960  13.461  1.5880 -0.1028 -1.2024
15750TIP3    H268666   3.236   0.875  13.585  1.7029  1.7841  0.1475
15751TIP3   OH268667   0.962   3.732   5.676 -0.2509 -0.8608 -0.6310
15751TIP3    H168668   0.903   3.670   5.634  0.5949 -1.9919 -0.2366
15751TIP3    H268669   0.981   3.692   5.761  1.5081 -0.8501 -0.9691
15752TIP3   OH268670   3.978   1.420  11.067 -0.0678 -0.1884 -0.0165
15752TIP3    H168671   4.063   1.387  11.094  0.2146  0.5630  0.0203
15752TIP3    H268672   3.940   1.457  11.147  0.5440  1.5528 -0.5027
15753TIP3   OH268673   6.256   5.949   0.382 -0.2331  0.1286 -0.3626
15753TIP3    H168674   6.199   5.928   0.308 -0.7900 -2.3573  0.6796
15753TIP3    H268675   6.337   5.901   0.365  0.1920  0.7041 -0.0341
15754TIP3   OH268676   2.016   6.325  16.329 -0.2228  0.2946 -0.1847
15754TIP3    H168677   1.950   6.273  16.375 -0.3116 -0.1233 -0.7831
15754TIP3    H268678   2.094   6.269  16.329  0.2683  0.9277  0.8460
15755TIP3   OH268679   1.301   0.696  13.650 -0.0544 -0.3942 -0.2450
15755TIP3    H168680   1.267   0.720  13.737  0.5131 -0.2839 -0.0530
15755TIP3    H268681   1.237   0.733  13.589 -0.6678 -0.8056  0.1309
15756TIP3   OH268682   1.112   6.517   0.990 -0.1287  0.0332 -0.2233
15756TIP3    H168683   1.197   6.516   0.948 -0.2918  2.0086 -0.7222
15756TIP3    H268684   1.121   6.460   1.066  1.1753 -0.9360 -1.0831
15757TIP3   OH268685   2.146   6.283  11.012  0.0766 -0.3674  0.1405
15757TIP3    H168686   2.130   6.337  10.934  0.9104 -1.9778 -1.2007
15757TIP3    H268687   2.173   6.346  11.079 -1.0092  1.0991 -0.7378
15758TIP3   OH268688   6.133   6.459   2.592  0.3060  0.2677 -0.1109
15758TIP3    H168689   6.124   6.369   2.623  2.0390 -0.2241 -0.8912
15758TIP3    H268690   6.073   6.465   2.518  0.3753 -0.3519 -0.2251
15759TIP3   OH268691   4.298   1.022  11.352  0.1320  0.2534  0.5394
15759TIP3    H168692   4.302   0.929  11.329  0.9049 -0.0075  1.6849
15759TIP3    H268693   4.255   1.063  11.276  0.9078 -0.8408 -0.5304
15760TIP3   OH268694   5.615   1.016  16.747 -0.2239 -0.2527  0.3309
15760TIP3    H168695   5.606   1.108  16.771  0.2083  0.2169 -1.1674
15760TIP3    H268696   5.669   1.017  16.668 -1.6161 -1.6633 -0.7034
15761TIP3   OH268697   0.672   4.338  15.230  0.0239 -0.2072 -0.2430
15761TIP3    H168698   0.738   4.295  15.284  0.7447  0.6950 -0.3755
15761TIP3    H268699   0.696   4.317  15.140 -1.0953 -1.5919 -0.2511
15762TIP3   OH268700   4.133   4.210   4.842  0.1014 -0.0856 -0.1537
15762TIP3    H168701   4.187   4.134   4.822 -0.0552 -0.6069  1.2888
15762TIP3    H268702   4.191   4.285   4.825  0.2180 -0.4822 -1.6960
15763TIP3   OH268703   0.845   6.334  14.962 -0.1600  0.0408 -0.1437
15763TIP3    H168704   0.904   6.294  14.898 -0.7521  0.2494 -0.8339
15763TIP3    H268705   0.789   6.262  14.991  0.8924 -0.3304  1.0829
15764TIP3   OH268706   3.872   3.164  11.313  0.0397  0.0448  0.3869
15764TIP3    H168707   3.913   3.134  11.232 -2.7745  2.4337 -2.1655
15764TIP3    H268708   3.895   3.257  11.319 -1.4102  0.3797  1.2384
15765TIP3   OH268709   1.950   4.808   6.051 -0.8749 -0.2885  0.3504
15765TIP3    H168710   1.998   4.783   6.130 -0.3258 -1.0570 -0.2158
15765TIP3    H268711   1.863   4.770   6.063 -0.3321 -1.7048 -0.0778
15766TIP3   OH268712   3.247   1.500  14.875 -0.2921 -0.1625 -0.1827
15766TIP3    H168713   3.222   1.409  14.892 -0.7285 -0.1628 -0.7913
15766TIP3    H268714   3.304   1.495  14.799  0.3250 -0.0018  0.2692
15767TIP3   OH268715   3.758   3.387   0.896 -0.3702  0.0678 -0.0098
15767TIP3    H168716   3.664   3.405   0.896 -0.3120  0.3626 -0.6809
15767TIP3    H268717   3.796   3.460   0.945 -0.6042 -0.6995  1.3734
15768TIP3   OH268718   2.332   6.396   5.103  0.4573  0.0600 -0.2606
15768TIP3    H168719   2.365   6.306   5.092  0.5755  0.1470 -0.6559
15768TIP3    H268720   2.354   6.439   5.020  2.1371  1.0101  0.6335
15769TIP3   OH268721   0.139   3.721   2.203 -0.5242 -0.4195 -0.9699
15769TIP3    H168722   0.218   3.692   2.158 -1.3786 -1.2515 -1.9756
15769TIP3    H268723   0.068   3.707   2.140 -1.4870  0.2597 -0.0764
15770TIP3   OH268724   2.156   1.414  14.552  0.5370 -0.1514 -0.1681
15770TIP3    H168725   2.124   1.334  14.593  0.4625  1.1403  2.4641
15770TIP3    H268726   2.103   1.424  14.473 -1.3961 -1.2044  0.9461
15771TIP3   OH268727   1.556   3.079  15.261 -0.0360  0.7710 -0.1812
15771TIP3    H168728   1.498   3.005  15.275  0.9556  0.0520  0.2950
15771TIP3    H268729   1.581   3.072  15.168  0.3513  0.2709 -0.0455
15772TIP3   OH268730   1.879   3.070  12.120  0.3235  0.6087 -0.1427
15772TIP3    H168731   1.939   3.145  12.111  0.6074  0.4374  0.3276
15772TIP3    H268732   1.873   3.055  12.214  1.6925 -1.1118 -0.2806
15773TIP3   OH268733   1.601   2.365   5.097  0.9311  0.4193 -0.4608
15773TIP3    H168734   1.659   2.334   5.167 -0.9801 -0.6583  0.7354
15773TIP3    H268735   1.538   2.423   5.141 -0.5230 -0.5477 -1.1689
15774TIP3   OH268736   2.967   3.423  13.518 -0.1431 -0.1380  0.0342
15774TIP3    H168737   2.975   3.367  13.596 -2.3398 -0.5823 -0.0054
15774TIP3    H268738   3.038   3.487  13.527  0.1997 -0.7307  1.9489
15775TIP3   OH268739   3.557   1.054  14.477 -0.2434  0.2284 -0.6374
15775TIP3    H168740   3.652   1.057  14.487 -0.0370 -0.6664 -2.0055
15775TIP3    H268741   3.533   1.142  14.448 -0.2149  1.2571  2.1923
15776TIP3   OH268742   0.342   6.032   3.869  0.1918 -0.3578 -0.0362
15776TIP3    H168743   0.249   6.044   3.850  0.7799  1.1143 -2.3429
15776TIP3    H268744   0.382   6.115   3.847  2.1897 -1.2028  0.2022
15777TIP3   OH268745   0.544   4.177  11.864 -0.5517  0.4302  0.0273
15777TIP3    H168746   0.582   4.097  11.829 -3.0647 -0.9794  0.2960
15777TIP3    H268747   0.454   4.153  11.887 -0.9455  2.9515  1.5060
15778TIP3   OH268748   2.943   2.108   0.149 -0.1204  0.3936 -0.6201
15778TIP3    H168749   2.989   2.038   0.103  0.4995  0.5452 -0.2487
15778TIP3    H268750   2.892   2.063   0.216  1.9745  0.3758  1.0945
15779TIP3   OH268751   1.174   0.789  16.085 -0.0840  0.0314 -0.0773
15779TIP3    H168752   1.253   0.785  16.139 -0.2876 -0.5806  0.1810
15779TIP3    H268753   1.204   0.825  16.001  0.3003  0.6522  0.3127
15780TIP3   OH268754   1.179   4.737   3.313 -0.5546 -0.2871  0.5720
15780TIP3    H168755   1.232   4.807   3.352  0.6559 -0.5457 -0.5449
15780TIP3    H268756   1.112   4.783   3.262  0.1695  0.0560 -0.0691
15781TIP3   OH268757   6.470   6.622   0.453  0.5624 -0.4196  0.1530
15781TIP3    H168758   6.386   6.666   0.440  1.3097  0.7934 -0.9412
15781TIP3    H268759   6.459   6.571   0.532 -1.1779 -0.2217  0.0771
15782TIP3   OH268760   5.371   3.260  13.370 -0.7492  0.1879  0.5751
15782TIP3    H168761   5.345   3.185  13.316  1.5313 -0.7803  0.7206
15782TIP3    H268762   5.289   3.288  13.411 -2.1282 -0.5679 -1.4704
15783TIP3   OH268763   2.688   1.983   6.030 -0.2746 -0.3199  0.0277
15783TIP3    H168764   2.678   1.950   5.940 -0.4780 -1.2347  0.3742
15783TIP3    H268765   2.643   1.918   6.084  0.0201  0.1181  0.8108
15784TIP3   OH268766   5.097   2.955   1.752  0.6131  0.0539  0.5360
15784TIP3    H168767   5.087   2.893   1.680  0.9183  0.0241  0.5173
15784TIP3    H268768   5.148   3.027   1.715  1.7849 -0.5001  1.0307
15785TIP3   OH268769   0.690   0.129  13.088 -0.3843 -0.3048 -0.0072
15785TIP3    H168770   0.702   0.040  13.123 -1.3991 -0.0762  0.9857
15785TIP3    H268771   0.681   0.117  12.994  1.0667 -1.0850 -0.0841
15786TIP3   OH268772   0.358   4.409   1.991  0.1173 -0.4087  0.1920
15786TIP3    H168773   0.454   4.406   1.996  0.2282  0.3677 -1.0269
15786TIP3    H268774   0.332   4.464   2.064  0.4685 -1.8717  1.4653
15787TIP3   OH268775   5.561   5.872  16.052  0.1553  0.0108 -0.1345
15787TIP3    H168776   5.617   5.800  16.083  1.4450  0.9545 -0.1822
15787TIP3    H268777   5.477   5.831  16.034  1.4756 -2.0080 -2.3828
15788TIP3   OH268778   1.646   1.538   0.757  0.4877 -0.2351  0.1367
15788TIP3    H168779   1.661   1.466   0.818  2.1562 -0.9314 -1.0019
15788TIP3    H268780   1.734   1.571   0.738 -0.1740  1.4222 -0.1934
15789TIP3   OH268781   1.241   4.709  16.039  0.4575  0.2844  0.1313
15789TIP3    H168782   1.288   4.748  16.112 -1.3458  1.1484  0.8978
15789TIP3    H268783   1.268   4.617  16.039 -0.9821 -0.2678  3.2189
15790TIP3   OH268784   3.044   2.113  11.260 -0.0189 -0.5417 -0.0458
15790TIP3    H168785   3.090   2.134  11.179  0.3917  0.3785  0.4161
15790TIP3    H268786   3.113   2.093  11.323 -0.3323 -1.1907  0.1019
15791TIP3   OH268787   1.532   0.772  11.808  0.4190 -0.1001  0.2560
15791TIP3    H168788   1.545   0.799  11.717  0.2838 -0.7944  0.0243
15791TIP3    H268789   1.540   0.676  11.807 -1.3123 -0.2906  0.6509
15792TIP3   OH268790   0.713   5.611  12.804  0.5625 -0.2025  0.4203
15792TIP3    H168791   0.642   5.563  12.759  1.3457 -0.3305 -0.7222
15792TIP3    H268792   0.680   5.625  12.893 -0.5097 -1.0927  0.1834
15793TIP3   OH268793   0.502   1.508  12.753  0.6563  0.4567 -0.1683
15793TIP3    H168794   0.493   1.428  12.804  2.9694 -0.8959 -1.7009
15793TIP3    H268795   0.546   1.569  12.812 -1.4987  0.8297  1.1524
15794TIP3   OH268796   0.099   1.228   1.661 -0.9907 -0.3934 -0.4595
15794TIP3    H168797   0.185   1.252   1.694 -1.3274 -1.1601  1.0735
15794TIP3    H268798   0.116   1.160   1.595 -0.3426  0.7552 -1.5229
15795TIP3   OH268799   1.641   5.720   4.089  0.0575 -0.3727 -0.4069
15795TIP3    H168800   1.659   5.806   4.053  0.4788  1.0420  2.8356
15795TIP3    H268801   1.546   5.719   4.102  0.0423 -0.4489 -0.5183
15796TIP3   OH268802   2.746   5.951   5.574  0.7905  0.7223 -0.2323
15796TIP3    H168803   2.768   5.862   5.602 -1.5514 -0.0140 -0.5443
15796TIP3    H268804   2.806   5.968   5.500  0.5063 -1.0600 -0.9195
15797TIP3   OH268805   3.902   4.595   1.843  0.6330  0.0057 -0.1359
15797TIP3    H168806   3.889   4.543   1.763  0.0728 -0.7962  0.4566
15797TIP3    H268807   3.913   4.529   1.912  1.4670  0.6936  0.3939
15798TIP3   OH268808   2.991   1.842   2.404 -0.2195  0.2993  0.2930
15798TIP3    H168809   3.010   1.887   2.486 -3.4190  0.5823  1.0145
15798TIP3    H268810   2.966   1.754   2.430 -1.1055  0.3379 -0.3634
15799TIP3   OH268811   4.135   5.995   2.692 -0.1568  0.4574  0.0585
15799TIP3    H168812   4.073   5.942   2.742  0.0361 -0.1050 -0.2947
15799TIP3    H268813   4.115   6.085   2.717 -0.0626  0.1888  1.1653
15800TIP3   OH268814   4.909   2.312   5.673 -0.3732  0.0766 -0.3201
15800TIP3    H168815   4.925   2.243   5.609 -1.2527 -0.8191  0.3876
15800TIP3    H268816   4.820   2.294   5.705  0.5506 -0.3986  2.2016
15801TIP3   OH268817   0.426   3.865   1.891  0.6954 -0.4695  0.6300
15801TIP3    H168818   0.413   3.799   1.959  1.0848 -0.3086  0.8693
15801TIP3    H268819   0.354   3.852   1.830  0.0366 -0.2645  1.3573
15802TIP3   OH268820   5.320   5.086   2.102 -0.1075  0.1143 -0.2340
15802TIP3    H168821   5.358   5.169   2.131  1.1716  0.3696 -2.4317
15802TIP3    H268822   5.383   5.019   2.130 -0.2098  0.0742 -0.0979
15803TIP3   OH268823   5.275   3.674  16.240  0.1812  0.5921 -0.3425
15803TIP3    H168824   5.266   3.758  16.285  0.6746  0.0906  0.7270
15803TIP3    H268825   5.333   3.622  16.296  0.9333 -0.0225 -1.6370
15804TIP3   OH268826   3.052   1.172  17.111 -0.3110  0.3057  0.6805
15804TIP3    H168827   3.147   1.164  17.117 -0.2921 -2.6653 -1.2149
15804TIP3    H268828   3.038   1.240  17.045  0.3944  1.8214  2.0315
15805TIP3   OH268829   2.898   5.126  16.035  0.5137  0.6105  0.5264
15805TIP3    H168830   2.808   5.094  16.034  1.2857 -1.8372  1.0432
15805TIP3    H268831   2.909   5.161  16.124  0.3887 -0.2045  0.8780
15806TIP3   OH268832   2.199   5.494   6.564 -0.3746 -0.1040  0.5676
15806TIP3    H168833   2.251   5.523   6.639 -1.4562 -0.8880  1.6626
15806TIP3    H268834   2.234   5.544   6.490  1.1458  0.2399  1.4604
15807TIP3   OH268835   4.478   0.643   1.218  0.0688 -0.2847  0.0191
15807TIP3    H168836   4.552   0.581   1.219 -0.2480 -0.6646  1.2417
15807TIP3    H268837   4.486   0.691   1.300 -0.0755  0.8778 -0.6221
15808TIP3   OH268838   5.996   2.910  15.302  0.2177  0.5751 -0.3374
15808TIP3    H168839   5.994   2.830  15.251  1.1538  1.3537 -1.6705
15808TIP3    H268840   6.044   2.887  15.381 -0.1315 -0.3384 -0.3823
15809TIP3   OH268841   3.478   4.576   0.703 -0.1036  0.8128 -0.1119
15809TIP3    H168842   3.445   4.581   0.793  0.0697  0.5605 -0.0324
15809TIP3    H268843   3.410   4.528   0.656  0.1368  0.3112  0.0470
15810TIP3   OH268844   2.592   5.504   5.168 -0.4959  0.1965  0.2814
15810TIP3    H168845   2.572   5.430   5.226 -0.3789 -0.4181 -0.4393
15810TIP3    H268846   2.667   5.474   5.117  1.1722  1.7517  1.6671
15811TIP3   OH268847   2.281   6.585  16.839 -0.1955  0.0222 -0.5795
15811TIP3    H168848   2.218   6.543  16.898  0.3785 -0.7458 -0.4960
15811TIP3    H268849   2.328   6.648  16.894  0.3725 -0.7276 -0.2002
15812TIP3   OH268850   3.607   4.402   4.747  0.7191 -0.3198 -0.0830
15812TIP3    H168851   3.636   4.350   4.822  0.0155  1.4201  1.4709
15812TIP3    H268852   3.686   4.410   4.693  1.8896  0.2461  1.6117
15813TIP3   OH268853   4.590   5.557   1.592 -0.0498  0.4767  0.3033
15813TIP3    H168854   4.660   5.494   1.608  0.2954  0.8348  0.2075
15813TIP3    H268855   4.548   5.526   1.511  1.1852  1.2909 -0.6916
15814TIP3   OH268856   0.434   6.355   0.926 -0.2250 -0.0878  0.4661
15814TIP3    H168857   0.523   6.331   0.953 -0.4218 -0.8451  0.4742
15814TIP3    H268858   0.426   6.324   0.836 -0.6651 -0.5316  0.6531
15815TIP3   OH268859   3.831   1.643  16.059  0.3024  0.2968 -0.0824
15815TIP3    H168860   3.831   1.638  16.154  0.3928  1.1959 -0.0299
15815TIP3    H268861   3.842   1.736  16.039 -1.4270  0.3675 -0.9552
15816TIP3   OH268862   1.652   4.453  16.136  0.4920  0.0895  0.1540
15816TIP3    H168863   1.725   4.419  16.187  0.5044  1.5411  1.1697
15816TIP3    H268864   1.646   4.545  16.161 -0.5544  0.4400 -1.2603
15817TIP3   OH268865   4.647   3.083  11.291  0.6752  0.3834  0.7408
15817TIP3    H168866   4.738   3.111  11.300  0.8489  0.3129 -0.5211
15817TIP3    H268867   4.645   2.995  11.327  1.3435  0.0100 -0.0987
15818TIP3   OH268868   3.447   5.092   1.517  0.1190  0.6166  0.2635
15818TIP3    H168869   3.387   5.136   1.577  1.2521 -0.4364  2.2892
15818TIP3    H268870   3.534   5.106   1.555  1.1164  1.3539 -2.1039
15819TIP3   OH268871   4.336   5.580  10.353 -0.1383  0.3192 -0.0340
15819TIP3    H168872   4.303   5.491  10.364 -0.9795  0.3774 -1.8289
15819TIP3    H268873   4.260   5.637  10.368  0.4550  0.8053  1.3967
15820TIP3   OH268874   1.235   2.923  14.854 -0.4957 -0.5718 -0.7859
15820TIP3    H168875   1.298   2.850  14.851 -2.0893 -2.1140  0.5592
15820TIP3    H268876   1.287   2.998  14.881  1.0559 -1.4204 -1.2835
15821TIP3   OH268877   1.997   6.443  12.205 -0.0438  0.2441  0.8859
15821TIP3    H168878   1.973   6.406  12.290 -0.7068 -1.6461 -0.0619
15821TIP3    H268879   1.970   6.377  12.142 -1.8108  2.6006 -1.0221
15822TIP3   OH268880   1.766   4.439  14.348  0.1909 -0.0632  0.5108
15822TIP3    H168881   1.812   4.457  14.430 -0.6723  1.0547  0.7925
15822TIP3    H268882   1.683   4.399  14.376 -0.9923  2.1351  0.3870
15823TIP3   OH268883   2.070   1.273  15.773 -0.1004  0.2918  0.0183
15823TIP3    H168884   2.149   1.229  15.742 -0.3162  0.3716 -0.6639
15823TIP3    H268885   2.073   1.359  15.731 -1.9903 -0.6921 -2.3813
15824TIP3   OH268886   3.951   0.214   2.299 -0.0081  0.1069 -0.0587
15824TIP3    H168887   3.875   0.222   2.241 -0.4036  0.4356  0.4906
15824TIP3    H268888   4.027   0.231   2.243 -0.4078  0.7845 -0.4000
15825TIP3   OH268889   0.099   2.039   2.992  0.4017 -0.1502  0.0329
15825TIP3    H168890   0.164   2.107   3.007  1.8530 -1.3905 -0.4535
15825TIP3    H268891   0.108   1.981   3.068  0.0530 -0.4866 -0.1796
15826TIP3   OH268892   3.419   2.051  13.060 -0.0391 -0.4951 -0.3991
15826TIP3    H168893   3.397   2.006  12.978 -0.4086  1.9583 -1.7288
15826TIP3    H268894   3.514   2.044  13.068  0.2636  0.9928 -2.1804
15827TIP3   OH268895   1.450   2.780  16.197 -0.6245 -0.8935 -0.6980
15827TIP3    H168896   1.367   2.766  16.153  0.0575 -1.5560 -1.8340
15827TIP3    H268897   1.508   2.813  16.128 -0.0262 -0.1447  0.1417
15828TIP3   OH268898   0.851   5.189  13.345  0.1237 -0.4508 -0.1449
15828TIP3    H168899   0.807   5.259  13.393  1.8258 -0.5409  1.6518
15828TIP3    H268900   0.926   5.232  13.304 -1.2379 -0.3861 -2.8090
15829TIP3   OH268901   3.924   4.851   0.652  0.2894 -0.1303  0.0380
15829TIP3    H168902   4.006   4.844   0.701  0.5923 -1.1699 -0.5825
15829TIP3    H268903   3.913   4.765   0.611 -1.0194  0.0453 -0.0421
15830TIP3   OH268904   0.143   5.378  11.566 -0.4078 -0.0740 -0.7569
15830TIP3    H168905   0.079   5.330  11.619 -0.7002 -0.2943 -1.3066
15830TIP3    H268906   0.226   5.335  11.585 -0.0875  1.2953  1.2982
15831TIP3   OH268907   6.605   6.613   5.447 -0.4780 -0.5655  0.0659
15831TIP3    H168908   6.641   6.697   5.420 -0.0403 -1.1032 -1.0863
15831TIP3    H268909   6.544   6.590   5.377  0.0298 -1.5967 -0.0475
15832TIP3   OH268910   6.162   0.878   5.963  0.5153  0.3539 -0.8873
15832TIP3    H168911   6.239   0.920   6.002 -0.8373  1.0221  1.1952
15832TIP3    H268912   6.088   0.933   5.988 -1.0354 -1.8716 -0.1751
15833TIP3   OH268913   5.773   4.478  13.312  0.2855  0.1540 -0.2377
15833TIP3    H168914   5.817   4.533  13.246  0.0926 -1.4101 -1.7472
15833TIP3    H268915   5.682   4.507  13.310  0.3326  0.2944 -0.4697
15834TIP3   OH268916   2.133   1.005  15.504  0.0512 -0.1461  0.1504
15834TIP3    H168917   2.085   0.934  15.546  0.3751 -0.9199 -0.7533
15834TIP3    H268918   2.215   1.010  15.553  0.2384 -0.7415 -0.0933
15835TIP3   OH268919   0.258   6.605   0.110 -0.0084 -0.7979 -0.1381
15835TIP3    H168920   0.179   6.574   0.154 -0.4603 -1.3888 -1.3260
15835TIP3    H268921   0.330   6.574   0.165 -0.5651 -0.7786  0.6259
15836TIP3   OH268922   6.115   5.374   1.574 -0.2586 -0.2848  0.6425
15836TIP3    H168923   6.133   5.367   1.668 -1.9816  0.3775  1.0461
15836TIP3    H268924   6.201   5.364   1.533  0.5126 -0.7030  2.2731
15837TIP3   OH268925   6.574   4.315  11.456 -0.3723  0.0911 -0.5318
15837TIP3    H168926   6.483   4.287  11.442 -0.8362  0.8333  0.8730
15837TIP3    H268927   6.624   4.234  11.453 -1.2414 -0.4797 -0.1536
15838TIP3   OH268928   0.658   1.802   1.156 -0.1997 -0.5059 -0.1910
15838TIP3    H168929   0.652   1.779   1.249 -2.1502  0.0248 -0.1358
15838TIP3    H268930   0.751   1.792   1.135  0.5455  0.6747  2.1539
15839TIP3   OH268931   3.342   0.226  11.408 -0.2348 -0.0989  0.0435
15839TIP3    H168932   3.349   0.304  11.352  0.4773  1.9742  2.8168
15839TIP3    H268933   3.266   0.244  11.463  1.2892 -0.1952  2.3050
15840TIP3   OH268934   5.475   0.791  11.787 -0.0668  0.5628 -0.0691
15840TIP3    H168935   5.434   0.719  11.739 -0.0672 -0.4420  1.3905
15840TIP3    H268936   5.401   0.842  11.821 -0.0714  0.3413  0.2465
15841TIP3   OH268937   1.612   1.412   4.662 -0.2570  0.3746 -0.4003
15841TIP3    H168938   1.532   1.421   4.611  0.6660  2.8320 -1.5697
15841TIP3    H268939   1.637   1.320   4.653 -2.1082 -0.0859 -1.2484
15842TIP3   OH268940   4.598   4.510  13.191 -0.2264  0.5348  0.3293
15842TIP3    H168941   4.641   4.431  13.225  1.1981  1.3608  0.5315
15842TIP3    H268942   4.514   4.479  13.158  0.9783 -1.3741 -1.1551
15843TIP3   OH268943   2.882   5.668  13.736  0.3030  0.1085 -0.1975
15843TIP3    H168944   2.883   5.639  13.827  0.4296 -1.4798 -0.6610
15843TIP3    H268945   2.974   5.679  13.713  0.2114  2.7536  0.4893
15844TIP3   OH268946   5.535   3.676   3.548  0.2908  0.1387  0.0827
15844TIP3    H168947   5.544   3.650   3.457 -0.6745  0.0160  0.0108
15844TIP3    H268948   5.595   3.750   3.558 -1.4088  1.8431 -1.3630
15845TIP3   OH268949   3.069   2.571   6.193 -1.4694 -0.1518  0.5593
15845TIP3    H168950   2.983   2.574   6.234 -0.6927 -0.1933  2.2490
15845TIP3    H268951   3.125   2.624   6.250 -0.2502 -0.5762 -0.2073
15846TIP3   OH268952   2.440   0.796  13.930 -0.1218  0.1344  0.3126
15846TIP3    H168953   2.435   0.703  13.911  0.3589  0.2625 -0.4661
15846TIP3    H268954   2.388   0.838  13.861  3.2475  0.7565 -2.1121
15847TIP3   OH268955   5.599   2.995   0.940 -0.0297 -0.0651  0.7160
15847TIP3    H168956   5.633   3.085   0.940 -2.7120  1.0951  2.2753
15847TIP3    H268957   5.547   2.989   1.020  0.8028 -3.3923  1.1533
15848TIP3   OH268958   0.441   6.131  16.288  0.5105  0.4369 -0.5093
15848TIP3    H168959   0.529   6.118  16.255  0.7108  0.0305  0.1558
15848TIP3    H268960   0.397   6.184  16.222  1.0963  0.2069 -1.0831
15849TIP3   OH268961   4.074   3.478   3.513 -0.5289  0.8911  0.3109
15849TIP3    H168962   4.145   3.511   3.567  0.6741  0.5475 -0.9974
15849TIP3    H268963   4.053   3.550   3.453 -1.7294  1.2101  1.0770
15850TIP3   OH268964   1.189   3.807  14.940 -0.1592  0.7118 -0.5934
15850TIP3    H168965   1.189   3.860  14.861 -2.6144  0.1751 -1.0429
15850TIP3    H268966   1.183   3.870  15.012 -0.9920  1.1141 -1.0072
15851TIP3   OH268967   0.618   6.626   2.566  1.0644 -0.2496 -0.2661
15851TIP3    H168968   0.690   6.689   2.559  0.3950  0.6118  0.3553
15851TIP3    H268969   0.594   6.606   2.475 -0.3777  2.3673 -0.5429
15852TIP3   OH268970   0.474   5.966   4.346  0.2994  0.1292 -0.2600
15852TIP3    H168971   0.458   5.996   4.436  3.8810  0.2800  0.4668
15852TIP3    H268972   0.441   6.037   4.291 -1.0637  0.4811  0.9264
15853TIP3   OH268973   0.655   3.507  15.336 -0.4314  0.1324  0.1930
15853TIP3    H168974   0.673   3.526  15.244 -0.5061  2.4002  0.5822
15853TIP3    H268975   0.716   3.436  15.358  0.9648  0.8656 -1.1035
15854TIP3   OH268976   4.006   2.104   0.386 -0.1882  0.0397 -0.6273
15854TIP3    H168977   4.009   2.172   0.319  0.8038  1.2753  0.6123
15854TIP3    H268978   3.937   2.044   0.357 -1.2932  1.7243 -1.6114
15855TIP3   OH268979   2.032   4.899   4.770  0.5674  0.7351 -0.8044
15855TIP3    H168980   1.950   4.911   4.723 -1.7413 -1.3900  2.2666
15855TIP3    H268981   2.025   4.957   4.846  1.4452 -0.1667 -0.0037
15856TIP3   OH268982   4.382   6.308  12.845 -0.5073 -0.3620  0.5880
15856TIP3    H168983   4.386   6.394  12.804 -0.7983  0.1238  1.5521
15856TIP3    H268984   4.291   6.299  12.875  0.2543  0.4399  3.4510
15857TIP3   OH268985   1.703   6.524  15.220  0.5229  0.2037 -0.6036
15857TIP3    H168986   1.783   6.557  15.262 -0.5997 -0.1996  2.0793
15857TIP3    H268987   1.649   6.603  15.207  0.4142  0.1984 -0.1956
15858TIP3   OH268988   4.623   0.488   1.785 -0.3612  0.2207  0.3383
15858TIP3    H168989   4.643   0.554   1.850 -1.0017  0.2484  0.5163
15858TIP3    H268990   4.708   0.458   1.753  0.0589 -1.1097  2.4825
15859TIP3   OH268991   1.026   6.535   2.426  0.3616  0.0374 -0.7432
15859TIP3    H168992   0.973   6.612   2.445 -0.7942 -0.5855 -1.3194
15859TIP3    H268993   1.051   6.545   2.335  1.3747  0.3854 -0.4437
15860TIP3   OH268994   5.998   0.338   5.134 -0.2006  0.0232  0.1454
15860TIP3    H168995   5.956   0.359   5.051 -1.1241 -1.2733  0.2674
15860TIP3    H268996   6.049   0.416   5.155  0.0936  0.3473 -1.6575
15861TIP3   OH268997   1.347   6.717  16.328 -0.0145  0.1466 -0.2066
15861TIP3    H168998   1.400   6.700  16.406 -1.1950  0.7630  0.7585
15861TIP3    H268999   1.324   6.809  16.334 -1.3780 -0.1625 -0.4921
15862TIP3   OH269000   6.024   5.717   3.027 -0.2211  0.4498  0.2785
15862TIP3    H169001   6.005   5.634   3.071 -0.5730  1.2638  1.7015
15862TIP3    H269002   5.939   5.756   3.011 -0.1346 -0.0429 -1.6286
15863TIP3   OH269003   1.466   0.942  13.918 -0.1421  0.1939  0.0675
15863TIP3    H169004   1.517   0.875  13.873  0.2232 -0.9588  2.0638
15863TIP3    H269005   1.376   0.908  13.918  0.0018 -0.2097  0.8755
15864TIP3   OH269006   2.017   5.359   0.712 -0.1401 -0.2643  0.6793
15864TIP3    H169007   2.046   5.384   0.624 -0.1776 -1.4460  0.3141
15864TIP3    H269008   2.043   5.433   0.767 -1.2480  1.0619 -0.5078
15865TIP3   OH269009   1.956   3.343   2.074  0.1009 -0.2550  0.1121
15865TIP3    H169010   2.048   3.366   2.090  0.3887 -1.0619 -0.3017
15865TIP3    H269011   1.906   3.396   2.135  0.5826  2.7425 -1.8972
15866TIP3   OH269012   0.125   1.232  17.273 -0.3110  0.8070 -0.7108
15866TIP3    H169013   0.101   1.255  17.363  1.7006  0.2303  0.0363
15866TIP3    H269014   0.055   1.268  17.219 -2.0226  0.4555  1.1374
15867TIP3   OH269015   3.215   2.575   1.409  0.3273  0.2214 -0.2150
15867TIP3    H169016   3.307   2.566   1.387  0.4222  0.5118  0.0470
15867TIP3    H269017   3.168   2.531   1.338  0.7196 -1.7943  0.7278
15868TIP3   OH269018   3.708   2.022  15.919  0.1123  0.1756  0.0901
15868TIP3    H169019   3.616   2.032  15.946 -0.4456 -0.7318 -1.3558
15868TIP3    H269020   3.737   2.111  15.901 -0.3236  0.5259  1.0058
15869TIP3   OH269021   1.174   1.457   0.823 -0.0862  0.0835  0.1369
15869TIP3    H169022   1.205   1.485   0.737 -0.4509 -0.9871 -0.3665
15869TIP3    H269023   1.155   1.538   0.870 -2.6672  0.7627 -1.8155
15870TIP3   OH269024   5.460   3.471   5.674  0.0618  0.1830  0.3314
15870TIP3    H169025   5.369   3.500   5.667 -0.6313 -1.9048 -0.0110
15870TIP3    H269026   5.483   3.486   5.766 -1.4089 -1.3171  0.9966
15871TIP3   OH269027   1.187   1.152   2.546  0.1755 -0.0364 -0.1367
15871TIP3    H169028   1.121   1.151   2.477 -1.2912  0.4625  1.1995
15871TIP3    H269029   1.268   1.123   2.503 -0.4164  1.2953 -2.2938
15872TIP3   OH269030   3.386   3.972   3.447 -0.4688 -0.0890 -0.0401
15872TIP3    H169031   3.354   3.885   3.425 -1.8396  0.1081  1.0171
15872TIP3    H269032   3.332   3.999   3.521  2.1798  0.2610  1.9453
15873TIP3   OH269033   3.251   4.972   4.987  0.3355 -0.2044 -0.1864
15873TIP3    H169034   3.195   4.950   4.913  0.5835  0.0754 -0.4632
15873TIP3    H269035   3.202   5.040   5.034 -0.7882 -1.8117  1.1060
15874TIP3   OH269036   5.238   1.557  16.264  0.4729 -0.1712  0.1766
15874TIP3    H169037   5.329   1.560  16.237  0.2257  0.7368 -0.6343
15874TIP3    H269038   5.240   1.563  16.359  1.4665 -5.0907  0.7295
15875TIP3   OH269039   5.621   1.905   6.684 -0.3683 -0.6395 -0.2110
15875TIP3    H169040   5.708   1.928   6.650 -0.5025  0.3309  0.0676
15875TIP3    H269041   5.582   1.852   6.615 -0.4114  0.8048 -1.3417
15876TIP3   OH269042   4.010   3.695  15.056 -0.0651 -0.0833 -0.1587
15876TIP3    H169043   4.093   3.714  15.101 -0.5259  0.4162  0.5089
15876TIP3    H269044   4.006   3.600  15.052  0.1866 -0.1284  0.4960
15877TIP3   OH269045   6.002   5.006   5.273  0.0159  0.3136 -0.3376
15877TIP3    H169046   6.058   5.084   5.267  0.4241 -0.0600 -1.5695
15877TIP3    H269047   6.032   4.960   5.351  2.0165 -0.3143 -1.4249
15878TIP3   OH269048   4.937   3.794  15.948 -0.1291 -0.0183  0.1100
15878TIP3    H169049   4.974   3.850  15.880 -0.1405  0.6271  0.6270
15878TIP3    H269050   4.892   3.854  16.008  0.7708 -0.4571  1.2658
15879TIP3   OH269051   0.484   1.466   3.954  0.1047  0.2600 -0.1006
15879TIP3    H169052   0.548   1.495   4.019  0.4773  0.5031 -0.5728
15879TIP3    H269053   0.521   1.385   3.918 -0.7492 -0.6270  0.9406
15880TIP3   OH269054   4.293   1.907   2.964  0.5233 -0.0096  0.0186
15880TIP3    H169055   4.204   1.908   2.930 -0.1717 -0.0048  1.7316
15880TIP3    H269056   4.347   1.941   2.893 -0.7636 -0.5325 -1.2372
15881TIP3   OH269057   3.708   6.733  14.989  0.1380  0.3711  0.1201
15881TIP3    H169058   3.673   6.664  15.045  0.0169 -0.8867 -1.4306
15881TIP3    H269059   3.783   6.768  15.038  0.5988 -1.3154  0.6865
15882TIP3   OH269060   4.022   3.122  17.134 -0.5381  0.0141 -0.5678
15882TIP3    H169061   4.052   3.194  17.077 -0.8033  0.8948  0.3708
15882TIP3    H269062   3.941   3.156  17.173 -0.4176 -0.6260  0.2480
15883TIP3   OH269063   2.452   2.933  12.431  0.4891 -0.2931  0.2755
15883TIP3    H169064   2.535   2.979  12.435  0.2016  0.1506  1.5802
15883TIP3    H269065   2.386   3.002  12.426  0.1194 -0.6031  0.7821
15884TIP3   OH269066   4.483   0.905   6.750  0.3266 -0.0733 -0.6834
15884TIP3    H169067   4.576   0.886   6.761  0.6083  0.9085 -1.2166
15884TIP3    H269068   4.481   0.982   6.693 -0.8055  0.1120 -0.4207
15885TIP3   OH269069   0.379   1.141  17.258  0.3383 -0.4958 -0.0049
15885TIP3    H169070   0.297   1.189  17.249 -0.3762 -1.8068 -0.9096
15885TIP3    H269071   0.395   1.136  17.352  0.3423  1.3103  0.1117
15886TIP3   OH269072   3.456   5.181   4.052 -0.0516 -0.1960 -0.1377
15886TIP3    H169073   3.418   5.161   3.966 -1.7696  2.0321  0.0034
15886TIP3    H269074   3.470   5.095   4.092 -1.4255 -1.2424 -1.7249
15887TIP3   OH269075   4.631   4.311  13.680  0.2304 -0.5923  0.4141
15887TIP3    H169076   4.544   4.309  13.721 -0.6086 -0.9583 -1.2700
15887TIP3    H269077   4.665   4.398  13.700 -0.0745 -0.7921  1.9365
15888TIP3   OH269078   0.390   5.771   1.244  0.0382 -0.4831 -0.1025
15888TIP3    H169079   0.311   5.817   1.272  0.0957  0.3880 -1.2593
15888TIP3    H269080   0.382   5.683   1.280 -2.5402 -1.1031 -1.9392
15889TIP3   OH269081   6.226   5.384   4.811 -0.0425  0.6109 -0.0299
15889TIP3    H169082   6.223   5.291   4.833  3.2780 -0.0695 -1.7309
15889TIP3    H269083   6.199   5.429   4.891  1.0590 -1.7827  1.8230
15890TIP3   OH269084   3.340   3.282   5.423  1.1083  0.2492 -0.2738
15890TIP3    H169085   3.412   3.326   5.379  2.6460 -0.8933  0.9621
15890TIP3    H269086   3.277   3.263   5.354  2.2359  0.8249 -1.4869
15891TIP3   OH269087   4.835   6.347  12.340 -0.3972  0.2126  0.0037
15891TIP3    H169088   4.769   6.333  12.408 -0.3446  1.1914  0.2813
15891TIP3    H269089   4.790   6.401  12.274 -0.3294 -0.4004 -0.5537
15892TIP3   OH269090   2.036   1.412  15.176  0.1983  0.1875 -0.2257
15892TIP3    H169091   2.077   1.352  15.238  2.6725  0.2871 -1.6168
15892TIP3    H269092   2.099   1.418  15.104 -2.0350  0.9218 -2.2404
15893TIP3   OH269093   6.705   6.093  16.869 -0.1268  0.0265 -0.3414
15893TIP3    H169094   6.655   6.060  16.943  0.5524 -0.2504 -0.0016
15893TIP3    H269095   6.784   6.131  16.908 -0.0600  0.4438 -0.8707
15894TIP3   OH269096   2.270   5.542  12.827  0.1129  0.1948  0.2205
15894TIP3    H169097   2.254   5.468  12.885  0.7698  1.7405  2.5377
15894TIP3    H269098   2.203   5.606  12.852 -0.1094  0.6009 -1.3463
15895TIP3   OH269099   2.746   5.794   1.211  0.1835 -0.2042 -0.1587
15895TIP3    H169100   2.783   5.782   1.298 -0.5518 -1.3710  0.0248
15895TIP3    H269101   2.817   5.829   1.158  0.7668  0.0711  0.8045
15896TIP3   OH269102   6.646   6.757   1.525  0.3692  0.0769  0.2442
15896TIP3    H169103   6.581   6.714   1.581 -1.0385  1.2430 -0.4347
15896TIP3    H269104   6.651   6.702   1.447  1.2385 -0.7391  0.8377
15897TIP3   OH269105   3.495   6.131   5.904  0.2883 -0.0600 -0.3559
15897TIP3    H169106   3.512   6.038   5.889 -3.0901 -0.7572 -0.6921
15897TIP3    H269107   3.404   6.135   5.933  0.6669  3.0800  0.8103
15898TIP3   OH269108   4.768   0.986  17.128  0.3638  0.1541 -0.2503
15898TIP3    H169109   4.736   1.070  17.162  0.3597 -0.3362  0.9903
15898TIP3    H269110   4.789   1.005  17.036  1.5229  1.8365  0.3115
15899TIP3   OH269111   5.516   3.860  14.477 -0.0040  0.7603  0.0797
15899TIP3    H169112   5.433   3.812  14.469 -0.2319  1.0093  0.7926
15899TIP3    H269113   5.582   3.792  14.488  0.1068  0.4896 -1.9227
15900TIP3   OH269114   1.455   5.137   5.371  0.5993 -0.2619  0.1082
15900TIP3    H169115   1.537   5.112   5.413 -0.2258 -1.0835  1.2772
15900TIP3    H269116   1.468   5.114   5.279  1.1619 -1.7384  0.5309
15901TIP3   OH269117   4.701   2.054  12.519  0.1513  0.0862 -0.5290
15901TIP3    H169118   4.746   1.992  12.462 -1.8253 -3.1631  1.1443
15901TIP3    H269119   4.616   2.012  12.537 -0.3021  2.0854  2.7572
15902TIP3   OH269120   6.200   4.057   5.260  0.0233  0.3206 -0.6003
15902TIP3    H169121   6.161   4.120   5.320  1.9441  0.7460  0.2528
15902TIP3    H269122   6.245   3.994   5.316  0.6099 -0.1341 -1.5461
15903TIP3   OH269123   4.492   2.538   0.021  0.6070 -1.2651  0.0870
15903TIP3    H169124   4.579   2.532   0.060 -0.0136 -0.9714  1.5824
15903TIP3    H269125   4.454   2.618   0.059 -0.2279 -1.2552 -0.7287
15904TIP3   OH269126   5.060   6.554   1.704 -0.7503  0.1719  0.6310
15904TIP3    H169127   4.992   6.615   1.677 -2.1243 -1.7417 -0.3623
15904TIP3    H269128   5.126   6.559   1.635 -0.2214  1.4261  1.1928
15905TIP3   OH269129   3.290   4.871   4.567  0.7974  0.1646 -0.2720
15905TIP3    H169130   3.360   4.815   4.601  0.4566  0.3468  0.7379
15905TIP3    H269131   3.211   4.819   4.576  0.7019  0.2012 -0.8385
15906TIP3   OH269132   2.681   6.606   4.712 -0.6087  0.3015 -0.6205
15906TIP3    H169133   2.755   6.645   4.759  0.8245 -1.0154 -1.6895
15906TIP3    H269134   2.716   6.582   4.627 -2.2922 -0.3318 -1.1754
15907TIP3   OH269135   4.604   2.950  13.847  0.0247  0.1357 -0.6582
15907TIP3    H169136   4.669   2.894  13.890 -2.5300 -2.2817  0.4196
15907TIP3    H269137   4.588   2.906  13.763  0.0106  0.9207 -1.0749
15908TIP3   OH269138   3.976   6.259   4.639  0.0430 -0.8996 -0.1117
15908TIP3    H169139   3.977   6.166   4.618  0.7654 -0.8544 -0.3205
15908TIP3    H269140   4.053   6.271   4.694 -0.5228 -0.5795  0.6239
15909TIP3   OH269141   5.323   4.477   1.548  0.3553 -0.4443 -0.5043
15909TIP3    H169142   5.236   4.514   1.536  0.2742 -0.9912 -1.7741
15909TIP3    H269143   5.318   4.429   1.631 -0.4806 -0.2762 -0.4516
15910TIP3   OH269144   2.634   4.723  15.776 -0.2510  0.0996 -0.0717
15910TIP3    H169145   2.601   4.634  15.764 -1.2084  0.7395 -2.9495
15910TIP3    H269146   2.728   4.711  15.792 -0.3467 -1.4265 -0.4757
15911TIP3   OH269147   1.784   4.194   3.543  0.0409  0.3166  0.0064
15911TIP3    H169148   1.874   4.187   3.576  0.3389 -3.3483 -1.1583
15911TIP3    H269149   1.795   4.213   3.450 -0.3932 -0.1171 -0.1318
15912TIP3   OH269150   3.908   2.447  16.571  0.2500  0.1018  0.7754
15912TIP3    H169151   3.971   2.375  16.576  1.6106  1.2738  0.8937
15912TIP3    H269152   3.823   2.403  16.563  1.0574 -1.5118  0.6313
15913TIP3   OH269153   2.674   3.108  14.438 -0.4063  0.0121 -0.1479
15913TIP3    H169154   2.649   3.087  14.348 -0.9655  1.4288 -0.3663
15913TIP3    H269155   2.659   3.028  14.487  1.4065 -1.2756 -1.5730
15914TIP3   OH269156   4.687   0.590   0.645  0.4336 -0.0515  0.0137
15914TIP3    H169157   4.698   0.552   0.558  1.1678 -1.8024  0.8183
15914TIP3    H269158   4.762   0.648   0.655 -0.2889  1.0883 -0.9433
15915TIP3   OH269159   6.203   1.516   3.905  0.0433  0.1281 -0.5610
15915TIP3    H169160   6.290   1.509   3.866  0.7290 -0.2151  0.9447
15915TIP3    H269161   6.153   1.445   3.865  0.9934 -0.8012 -0.1600
15916TIP3   OH269162   4.410   3.405  15.313 -0.0587  0.6582 -0.2659
15916TIP3    H169163   4.468   3.481  15.316 -1.6229  1.8916  0.2714
15916TIP3    H269164   4.383   3.392  15.403  0.4497 -0.7743 -0.3046
15917TIP3   OH269165   4.143   2.111   0.917  0.7594  0.1451 -0.2057
15917TIP3    H169166   4.177   2.110   1.007 -2.0633 -2.7476  1.0374
15917TIP3    H269167   4.064   2.164   0.922  0.6662  0.0922 -1.0262
15918TIP3   OH269168   4.034   1.743   3.265  0.2318 -0.6873 -0.1118
15918TIP3    H169169   4.047   1.748   3.170  0.1834 -1.8353 -0.1966
15918TIP3    H269170   3.965   1.806   3.283 -1.3274 -2.0083 -1.1833
15919TIP3   OH269171   2.740   3.399   6.049  0.6381  0.1987  0.0255
15919TIP3    H169172   2.679   3.420   6.119  0.6796  0.8698 -0.1368
15919TIP3    H269173   2.822   3.379   6.093  0.3149 -0.6900  0.2429
15920TIP3   OH269174   1.698   2.217  14.315 -0.3573  0.0279  0.1401
15920TIP3    H169175   1.740   2.133  14.300  1.8717  0.7037  1.9437
15920TIP3    H269176   1.739   2.276  14.251 -2.7007 -0.3622 -1.8778
15921TIP3   OH269177   4.307   2.970  13.827 -0.1445  0.7718 -0.4506
15921TIP3    H169178   4.377   2.948  13.765 -0.9718 -2.4226 -0.4647
15921TIP3    H269179   4.235   3.002  13.772 -1.4393 -3.4633 -1.6099
15922TIP3   OH269180   1.230   1.590   0.405  0.8832  0.0801  0.1893
15922TIP3    H169181   1.269   1.572   0.320  0.7312 -0.3976  0.2187
15922TIP3    H269182   1.298   1.565   0.468  0.0571 -2.1024  0.2920
15923TIP3   OH269183   4.014   5.657  12.728 -0.3242 -0.4116 -0.0549
15923TIP3    H169184   3.925   5.688  12.741 -0.5051 -1.3174  1.0497
15923TIP3    H269185   4.069   5.731  12.751 -0.7423 -0.8410  2.6966
15924TIP3   OH269186   4.125   3.653   2.267  0.0807 -0.7668  0.0211
15924TIP3    H169187   4.164   3.597   2.334  1.2040 -1.6291 -1.2992
15924TIP3    H269188   4.183   3.644   2.191 -1.5949 -0.4930 -1.3562
15925TIP3   OH269189   0.697   4.859  11.486 -0.3584 -0.4686 -0.6363
15925TIP3    H169190   0.621   4.876  11.430 -1.5811 -1.3331  0.6818
15925TIP3    H269191   0.696   4.764  11.499  1.3318 -0.5800 -1.0699
15926TIP3   OH269192   5.141   1.575   0.684 -0.4087 -0.3030  0.1887
15926TIP3    H169193   5.071   1.555   0.622  0.8473  1.5205 -1.9595
15926TIP3    H269194   5.221   1.556   0.635  0.6326  1.3751  1.1738
15927TIP3   OH269195   0.085   0.531   2.714 -0.0923 -0.5358  0.7270
15927TIP3    H169196  -0.001   0.568   2.738  0.4701 -0.3781  2.6694
15927TIP3    H269197   0.078   0.438   2.735  0.6647 -0.2551  2.3065
15928TIP3   OH269198   0.339   0.605   1.205  0.7874  0.8185 -0.2888
15928TIP3    H169199   0.307   0.548   1.275 -1.8574  2.2477 -0.2142
15928TIP3    H269200   0.428   0.574   1.188  0.9071 -0.6918  2.4894
15929TIP3   OH269201   6.702   3.286  12.128 -0.2151 -0.2187 -0.4007
15929TIP3    H169202   6.628   3.346  12.139  1.5570  2.1302 -0.5181
15929TIP3    H269203   6.677   3.208  12.177 -2.3940  0.8235  0.2732
15930TIP3   OH269204   3.830   2.177   2.770 -0.7495 -0.1279 -0.8163
15930TIP3    H169205   3.811   2.083   2.770  0.9527 -0.6132  2.1400
15930TIP3    H269206   3.867   2.194   2.683 -1.0461 -2.1922 -1.4057
15931TIP3   OH269207   6.347   5.200  14.880  0.0820 -0.3962 -0.7197
15931TIP3    H169208   6.304   5.285  14.878  2.3195  0.7736 -2.2376
15931TIP3    H269209   6.390   5.192  14.795  0.3143 -2.8595 -0.4527
15932TIP3   OH269210   4.929   1.414   2.191  0.2974 -0.2219  0.0154
15932TIP3    H169211   4.957   1.484   2.250  1.1849 -0.6673  0.1368
15932TIP3    H269212   4.837   1.400   2.213  0.4077  0.1547  0.7520
15933TIP3   OH269213   2.101   5.250  13.740 -0.3215  0.2886 -0.2045
15933TIP3    H169214   2.056   5.200  13.672  1.9396 -0.2284 -1.3977
15933TIP3    H269215   2.056   5.225  13.821 -3.4253  1.3112 -1.4472
15934TIP3   OH269216   6.020   1.647   5.638  0.0998 -0.2879 -0.5758
15934TIP3    H169217   6.059   1.562   5.659 -2.0224 -0.8963  1.2114
15934TIP3    H269218   6.091   1.710   5.650  0.4110 -1.1834  3.7757
15935TIP3   OH269219   6.276   0.684   0.698 -0.2925 -0.2312  0.0671
15935TIP3    H169220   6.358   0.721   0.666 -1.0343  1.1561 -0.3192
15935TIP3    H269221   6.215   0.691   0.625 -0.6403 -1.7226  0.1777
15936TIP3   OH269222   4.608   3.769   0.938  0.8122  0.1360 -0.2872
15936TIP3    H169223   4.673   3.777   1.008  1.7127  0.4082 -1.1275
15936TIP3    H269224   4.568   3.683   0.952  1.6598 -0.2246  0.0122
15937TIP3   OH269225   1.016   3.026  12.054 -0.0019 -0.1505 -0.3303
15937TIP3    H169226   0.976   2.976  11.982  1.5327 -2.0709  0.0631
15937TIP3    H269227   0.946   3.033  12.119 -0.5438 -0.9354 -0.8086
15938TIP3   OH269228   0.600   3.600   5.029 -0.0807 -0.0516 -0.0634
15938TIP3    H169229   0.540   3.665   4.991  0.1952  0.4909  0.4059
15938TIP3    H269230   0.683   3.614   4.984 -0.0659 -0.1961 -0.0819
15939TIP3   OH269231   1.599   6.722  11.856  0.0476  0.0084  0.3468
15939TIP3    H169232   1.690   6.751  11.854 -0.0083  0.1220 -1.4053
15939TIP3    H269233   1.599   6.649  11.918  1.5868 -0.7760 -0.5128
15940TIP3   OH269234   5.659   3.956   5.999  0.0836 -0.0802 -0.5267
15940TIP3    H169235   5.731   3.935   6.059 -0.7905 -1.2589  0.1413
15940TIP3    H269236   5.580   3.943   6.051 -0.7139 -1.5059 -2.0205
15941TIP3   OH269237   3.444   2.055  16.210  0.3711 -0.1822  0.0144
15941TIP3    H169238   3.353   2.080  16.197  0.2490  0.5898  2.0003
15941TIP3    H269239   3.441   1.960  16.224 -0.2466 -0.0321  0.9539
15942TIP3   OH269240   0.868   3.368   5.944 -0.1886 -0.2516 -0.9701
15942TIP3    H169241   0.948   3.393   5.989  0.4730 -1.5926 -1.3580
15942TIP3    H269242   0.799   3.379   6.010  0.3559  0.4708 -0.4975
15943TIP3   OH269243   5.970   1.771   5.940  0.4907 -0.4264  0.2214
15943TIP3    H169244   6.061   1.772   5.970  1.3664 -1.7482 -2.0548
15943TIP3    H269245   5.976   1.742   5.849 -2.0912  1.2249 -0.5693
15944TIP3   OH269246   6.231   6.310  11.928 -0.1683  0.0920 -0.7893
15944TIP3    H169247   6.158   6.353  11.883 -0.2829  0.2775 -0.4309
15944TIP3    H269248   6.274   6.258  11.860  0.8678  1.9226 -1.6101
15945TIP3   OH269249   3.250   2.228   5.159  0.2658  0.4837  0.5046
15945TIP3    H169250   3.283   2.154   5.108 -0.4118  0.6044 -0.1185
15945TIP3    H269251   3.316   2.241   5.227  0.3368 -0.7681  0.7019
15946TIP3   OH269252   0.491   4.924  15.775 -0.4602  0.0736  0.0054
15946TIP3    H169253   0.569   4.949  15.725 -0.5483  2.1017  0.7704
15946TIP3    H269254   0.524   4.861  15.839  0.1732 -0.5171 -0.8763
15947TIP3   OH269255   5.082   0.630  12.962 -0.8326  0.3696 -0.2368
15947TIP3    H169256   5.018   0.559  12.961  1.2188 -1.5476 -1.0374
15947TIP3    H269257   5.028   0.710  12.959 -3.2423 -1.0534  1.3807
15948TIP3   OH269258   0.202   4.136  13.353  1.1053  0.2858 -0.2939
15948TIP3    H169259   0.138   4.088  13.299 -0.0481  1.2889  0.1397
15948TIP3    H269260   0.240   4.201  13.293 -1.2155  2.3744  0.3459
15949TIP3   OH269261   0.193   2.314   1.854  0.2481 -0.5106  0.3840
15949TIP3    H169262   0.264   2.317   1.790 -0.8361 -1.6979 -0.9638
15949TIP3    H269263   0.152   2.400   1.849 -1.7711 -1.4374 -3.0125
15950TIP3   OH269264   1.396   4.179  14.211  0.6747  0.3393  0.6737
15950TIP3    H169265   1.441   4.259  14.183  2.1370 -1.1322 -1.4569
15950TIP3    H269266   1.331   4.163  14.143  0.8273 -0.6081  0.7354
15951TIP3   OH269267   6.597   3.871  14.171  0.1243  0.0628  0.4683
15951TIP3    H169268   6.615   3.891  14.079 -1.5266 -2.2178 -0.4547
15951TIP3    H269269   6.680   3.884  14.216  1.2799  0.0894 -1.5728
15952TIP3   OH269270   6.504   2.821  13.673 -0.6422 -0.4796  0.1331
15952TIP3    H169271   6.423   2.771  13.687 -0.0450 -1.7006 -0.6007
15952TIP3    H269272   6.519   2.866  13.756 -1.9170 -0.4664  0.3725
15953TIP3   OH269273   5.911   6.490   5.501 -0.3253 -0.0683 -0.1415
15953TIP3    H169274   5.895   6.473   5.593 -1.9758  0.9432 -0.2118
15953TIP3    H269275   5.967   6.418   5.473 -0.1990 -0.6530  1.5230
15954TIP3   OH269276   0.849   5.972   3.525 -0.1974 -0.2096  0.4717
15954TIP3    H169277   0.866   6.057   3.566 -0.5114 -0.1650  0.5112
15954TIP3    H269278   0.783   5.931   3.581 -2.2730  0.7370 -1.1554
15955TIP3   OH269279   4.136   2.833  11.378  0.0992  0.5996 -0.5296
15955TIP3    H169280   4.108   2.920  11.406 -0.2875  0.6371 -1.0219
15955TIP3    H269281   4.055   2.791  11.348  0.5309  0.6120 -1.7223
15956TIP3   OH269282   3.183   5.815  11.344  0.6904  0.3660  0.4170
15956TIP3    H169283   3.137   5.858  11.272  0.0739  0.0167  0.5914
15956TIP3    H269284   3.271   5.851  11.341  0.3511  1.2082  0.2048
15957TIP3   OH269285   0.610   3.759   3.515  0.2907 -0.3949 -0.0217
15957TIP3    H169286   0.582   3.696   3.448  0.2140 -1.1840  0.7350
15957TIP3    H269287   0.547   3.831   3.508  0.9780  0.1125 -1.5907
15958TIP3   OH269288   1.171   3.333   5.968  0.3421 -0.8182 -0.3021
15958TIP3    H169289   1.226   3.348   6.045  0.6954 -0.6291 -0.5894
15958TIP3    H269290   1.202   3.396   5.904  0.1189 -1.0503 -0.6395
15959TIP3   OH269291   3.766   4.958  13.615 -0.5362  0.7640  0.1931
15959TIP3    H169292   3.735   5.003  13.694 -1.1897  0.5995  0.0408
15959TIP3    H269293   3.839   5.012  13.584 -0.5090  1.0308  0.7037
15960TIP3   OH269294   1.861   3.880   3.107  0.3410 -0.3613 -0.1185
15960TIP3    H169295   1.827   3.840   3.028  0.7965  0.4656 -0.7563
15960TIP3    H269296   1.951   3.847   3.114  0.1325 -0.8337  0.3401
15961TIP3   OH269297   4.468   3.878  13.119  0.1082  0.0277  0.3134
15961TIP3    H169298   4.493   3.790  13.149  0.8393  0.7467  1.9303
15961TIP3    H269299   4.383   3.894  13.160 -0.5295 -0.3139 -0.8378
15962TIP3   OH269300   5.090   3.354   5.956  0.0019  0.3671  0.2388
15962TIP3    H169301   5.175   3.323   5.986  1.2968  2.2970 -1.1730
15962TIP3    H269302   5.061   3.416   6.024  1.2423  2.0210 -0.6500
15963TIP3   OH269303   1.798   0.122  12.111  0.2351  0.3477  0.4562
15963TIP3    H169304   1.812   0.027  12.115  0.5192  0.2147 -2.2634
15963TIP3    H269305   1.703   0.132  12.110  0.1509 -0.1541 -1.9934
15964TIP3   OH269306   1.643   0.431  10.968  0.7019 -0.3710 -0.4909
15964TIP3    H169307   1.649   0.526  10.956  2.1215 -0.2192  1.1633
15964TIP3    H269308   1.615   0.398  10.882  0.1237  1.5317 -1.0776
15965TIP3   OH269309   4.641   3.225   1.220  0.0676  0.3003 -0.3204
15965TIP3    H169310   4.619   3.163   1.290 -0.2523 -0.7406 -1.3033
15965TIP3    H269311   4.558   3.265   1.196  0.0994  0.3015 -0.4302
15966TIP3   OH269312   2.724   4.353  16.398  0.7971 -0.6902  0.4130
15966TIP3    H169313   2.750   4.392  16.315  0.2081 -0.3460  0.3814
15966TIP3    H269314   2.628   4.349  16.393  0.7251 -0.2680  1.2470
15967TIP3   OH269315   4.860   6.442  16.494 -0.6024  0.3441  0.0114
15967TIP3    H169316   4.927   6.481  16.549  0.7694 -1.5019 -0.2580
15967TIP3    H269317   4.785   6.428  16.553 -0.4771  1.6840  0.5055
15968TIP3   OH269318   3.514   5.610   2.666 -0.1173 -0.6972  0.1693
15968TIP3    H169319   3.424   5.629   2.692  0.2569 -0.7386  1.5722
15968TIP3    H269320   3.510   5.521   2.629 -0.8325 -0.2562 -0.8441
15969TIP3   OH269321   4.935   2.805  16.036 -0.4844  0.0768  0.4016
15969TIP3    H169322   4.975   2.719  16.048 -0.9203 -0.1982 -0.1056
15969TIP3    H269323   4.966   2.834  15.950  0.3778  0.8251  0.9409
15970TIP3   OH269324   6.215   3.209  17.181 -1.1823 -0.1385 -0.0211
15970TIP3    H169325   6.266   3.140  17.223 -0.4008  0.3487 -0.1380
15970TIP3    H269326   6.209   3.278  17.247  1.2877  1.2359 -1.1052
15971TIP3   OH269327   4.090   3.060   5.763  0.3498  0.0881 -0.1592
15971TIP3    H169328   4.146   3.069   5.686  1.3442  0.2958  0.5716
15971TIP3    H269329   4.150   3.062   5.837 -0.6510  0.6934  0.6744
15972TIP3   OH269330   0.353   0.663   4.614 -0.2165 -0.3667 -0.1448
15972TIP3    H169331   0.263   0.678   4.642  0.3269 -0.3836  1.7734
15972TIP3    H269332   0.349   0.664   4.518 -2.2172 -0.2496 -0.1057
15973TIP3   OH269333   5.458   3.560   1.406  0.1373 -0.2002  0.3917
15973TIP3    H169334   5.506   3.622   1.462  1.6703  0.9463 -2.0527
15973TIP3    H269335   5.372   3.600   1.394  0.3155  0.2918  0.7174
15974TIP3   OH269336   4.951   4.043   3.840 -0.0637 -0.2521 -0.1155
15974TIP3    H169337   5.005   4.100   3.785 -2.2743 -0.1854 -2.4339
15974TIP3    H269338   4.891   4.000   3.778 -2.5070 -0.4686  2.2031
15975TIP3   OH269339   1.438   4.317   2.317  0.0554 -0.4948  0.0373
15975TIP3    H169340   1.395   4.241   2.357  0.4714 -0.2605  0.9601
15975TIP3    H269341   1.471   4.367   2.392  0.4514  0.1988 -0.5975
15976TIP3   OH269342   0.769   5.964  13.055 -0.3356  0.3343  0.7202
15976TIP3    H169343   0.817   5.988  12.976  1.0705  0.5347  1.5958
15976TIP3    H269344   0.676   5.968  13.030  0.0703  0.8721 -0.7605
15977TIP3   OH269345   3.011   4.393   0.459 -0.1177  0.1864 -0.2335
15977TIP3    H169346   3.074   4.368   0.392  1.1578  1.6904  0.3326
15977TIP3    H269347   2.938   4.433   0.412  0.7554  1.2061 -0.7481
15978TIP3   OH269348   0.364   1.249   1.834 -0.3740 -0.1955  0.0954
15978TIP3    H169349   0.394   1.339   1.826 -1.2097  0.0497 -0.4098
15978TIP3    H269350   0.345   1.237   1.927 -0.0151  0.0629  0.2035
15979TIP3   OH269351   6.440   5.707  15.500 -1.2244  0.0963 -0.4164
15979TIP3    H169352   6.408   5.617  15.491 -3.6799  0.7556  0.6308
15979TIP3    H269353   6.496   5.721  15.424 -1.7947 -1.9102 -1.2698
15980TIP3   OH269354   6.230   5.447   2.690  0.2204  0.4140 -0.6112
15980TIP3    H169355   6.172   5.395   2.746  1.3314  1.0650  1.2196
15980TIP3    H269356   6.227   5.535   2.726  2.6493  0.3827 -0.1445
15981TIP3   OH269357   3.163   6.291  16.135 -0.4314 -0.3093  0.0528
15981TIP3    H169358   3.117   6.213  16.168 -0.1562 -0.1068  0.9503
15981TIP3    H269359   3.191   6.337  16.214  0.9357 -0.1938 -0.4750
15982TIP3   OH269360   2.733   2.775  15.255 -0.3927  0.2927 -0.0364
15982TIP3    H169361   2.692   2.817  15.331  0.4369 -2.2342  1.9412
15982TIP3    H269362   2.664   2.721  15.218 -0.6883  1.2363 -0.9128
15983TIP3   OH269363   1.145   4.035   5.631 -1.2025  0.0630 -0.6448
15983TIP3    H169364   1.068   4.071   5.674 -0.8068 -0.1844  0.2980
15983TIP3    H269365   1.218   4.084   5.668 -1.0125  1.7071 -3.0024
15984TIP3   OH269366   3.594   0.109   1.739  0.1153  0.1234  0.0197
15984TIP3    H169367   3.525   0.124   1.803  1.3662  3.1698  0.8392
15984TIP3    H269368   3.561   0.152   1.659  0.9807  1.6599  0.4375
15985TIP3   OH269369   5.459   3.190  16.636 -0.4386  0.1252  0.5745
15985TIP3    H169370   5.513   3.186  16.557 -1.4091 -1.0185 -0.0607
15985TIP3    H269371   5.371   3.212  16.604 -0.3013  2.6267  1.6419
15986TIP3   OH269372   0.818   6.767   2.415  0.3861  0.3716 -0.1202
15986TIP3    H169373   0.882   6.815   2.362 -0.4476  1.3046 -0.2941
15986TIP3    H269374   0.753   6.736   2.352  0.4143 -0.1896  0.1170
15987TIP3   OH269375   0.840   1.854   5.931  0.0961  0.0088  0.5041
15987TIP3    H169376   0.842   1.932   5.876  0.4550 -2.1498 -2.8455
15987TIP3    H269377   0.748   1.830   5.935 -0.1036  0.9597  2.1733
15988TIP3   OH269378   3.996   0.501   3.258  0.4133 -0.4102 -0.1278
15988TIP3    H169379   4.042   0.429   3.215  0.2257  0.4943 -1.9741
15988TIP3    H269380   3.921   0.519   3.200 -0.8363 -0.2026  1.4853
15989TIP3   OH269381   0.147   1.791  13.852 -0.6318  0.4568 -0.3379
15989TIP3    H169382   0.130   1.730  13.780  0.5259  1.0216 -1.1116
15989TIP3    H269383   0.196   1.739  13.916 -2.4965 -0.3224  0.5312
15990TIP3   OH269384   6.212   3.609  14.838  0.9709 -0.3955  0.0686
15990TIP3    H169385   6.133   3.566  14.805  1.3533 -0.8034 -0.3091
15990TIP3    H269386   6.267   3.538  14.870  1.1240 -0.0975  0.4833
15991TIP3   OH269387   2.409   4.392   5.762  0.2890 -0.2254 -0.1044
15991TIP3    H169388   2.398   4.297   5.774 -1.4875 -0.0620 -0.1471
15991TIP3    H269389   2.331   4.430   5.803  1.3036  1.2728  0.4898
15992TIP3   OH269390   6.380   1.907   0.559  0.1510  0.0913  0.2197
15992TIP3    H169391   6.365   1.966   0.484 -0.9842 -0.8365 -0.3091
15992TIP3    H269392   6.471   1.880   0.549 -0.8103 -2.6182 -2.8302
15993TIP3   OH269393   5.236   4.987  11.295  0.0313 -0.1948 -0.3001
15993TIP3    H169394   5.332   4.982  11.290  0.0970  1.4493 -1.9299
15993TIP3    H269395   5.218   5.008  11.387  1.3600  1.0156 -0.2787
15994TIP3   OH269396   1.367   0.804   5.358  0.1037  0.2638 -0.1506
15994TIP3    H169397   1.386   0.723   5.406  0.0811  0.2871 -0.1023
15994TIP3    H269398   1.346   0.775   5.269 -4.5351 -0.2571  0.8539
15995TIP3   OH269399   5.888   3.221  12.943  0.0997 -0.1307  0.4790
15995TIP3    H169400   5.921   3.257  13.025 -0.6803 -0.5549  0.9761
15995TIP3    H269401   5.927   3.278  12.876 -0.2855  1.0195  1.1983
15996TIP3   OH269402   2.679   1.822   4.971 -0.0790 -0.0883 -0.6427
15996TIP3    H169403   2.694   1.902   4.921  0.9394  1.6702  2.2255
15996TIP3    H269404   2.590   1.831   5.005 -0.4915 -0.9149 -1.4525
15997TIP3   OH269405   4.273   2.419  16.047 -0.3579 -0.1719 -0.2152
15997TIP3    H169406   4.366   2.407  16.027 -0.1133  0.7314  0.3550
15997TIP3    H269407   4.250   2.502  16.007 -0.6836  0.0620  0.4418
15998TIP3   OH269408   2.822   0.245   0.549 -0.5399  0.3399 -0.2587
15998TIP3    H169409   2.886   0.180   0.520 -0.3927  0.4566 -0.1927
15998TIP3    H269410   2.865   0.329   0.535  0.2841  0.3590  2.1094
15999TIP3   OH269411   5.663   5.594  14.964 -0.2517  0.2731 -0.3622
15999TIP3    H169412   5.693   5.684  14.978 -2.0131  0.9773 -0.9462
15999TIP3    H269413   5.669   5.581  14.870  1.4852 -0.8193 -0.1619
16000TIP3   OH269414   3.711   2.384  12.435 -0.3491  0.8402 -0.1706
16000TIP3    H169415   3.804   2.361  12.425 -0.5827  0.5820 -2.4299
16000TIP3    H269416   3.712   2.471  12.474  0.7623  0.0762  1.6470
16001TIP3   OH269417   2.858   6.670   2.121  0.0834  0.0283 -0.0638
16001TIP3    H169418   2.868   6.649   2.214 -0.1304  2.2003  0.4857
16001TIP3    H269419   2.922   6.613   2.077 -0.5290 -1.7936  1.2649
16002TIP3   OH269420   2.097   2.812   5.145 -0.2023  0.8616 -0.8735
16002TIP3    H169421   2.031   2.764   5.194 -0.9613  0.9673 -1.7624
16002TIP3    H269422   2.176   2.808   5.200 -0.6675 -0.0999 -0.2481
16003TIP3   OH269423   6.530   3.507  16.603  0.6575  0.2681  0.2229
16003TIP3    H169424   6.464   3.443  16.577  0.3487  0.3781  0.7235
16003TIP3    H269425   6.494   3.548  16.681  0.7498  1.2055 -0.2069
16004TIP3   OH269426   2.985   0.105   6.294  0.6538  0.0579 -1.1725
16004TIP3    H169427   3.022   0.017   6.301  0.9869  0.0470 -2.6125
16004TIP3    H269428   2.909   0.095   6.237 -0.4711  0.4078  0.2069
16005TIP3   OH269429   3.496   5.824  13.884  0.0264  0.2396 -0.3676
16005TIP3    H169430   3.570   5.839  13.825 -0.9106  0.4621 -1.5215
16005TIP3    H269431   3.432   5.890  13.860 -1.1162 -0.8241 -0.3790
16006TIP3   OH269432   1.378   1.889   1.276  0.1845  0.1170  0.2992
16006TIP3    H169433   1.347   1.912   1.363 -0.3183 -2.6148  0.9056
16006TIP3    H269434   1.384   1.973   1.230 -3.5248  1.2900  1.6236
16007TIP3   OH269435   1.583   6.506   3.868  0.4185  0.2695 -0.4872
16007TIP3    H169436   1.668   6.508   3.912  0.8182 -1.7696 -1.0511
16007TIP3    H269437   1.557   6.414   3.869 -0.7631  0.5246 -2.2090
16008TIP3   OH269438   0.425   5.117  16.864  0.4316  0.4583  0.1854
16008TIP3    H169439   0.504   5.066  16.844  0.2065 -0.8891  2.4049
16008TIP3    H269440   0.363   5.094  16.795  0.9480 -0.9065  0.1480
16009TIP3   OH269441   0.471   1.681   3.035 -0.6439 -0.1074 -0.2379
16009TIP3    H169442   0.483   1.659   2.943 -1.3224 -1.0910 -0.1190
16009TIP3    H269443   0.456   1.596   3.078 -0.8226  0.3772  0.6937
16010TIP3   OH269444   5.727   2.018   1.972  0.1977  0.2806 -0.2027
16010TIP3    H169445   5.726   1.930   1.935  1.4821 -0.4245  1.3315
16010TIP3    H269446   5.636   2.036   1.993  0.0240 -1.0469  0.2587
16011TIP3   OH269447   1.986   1.282   4.873  0.0332 -0.2032  0.0502
16011TIP3    H169448   2.002   1.371   4.905  0.4464 -0.5750  0.9136
16011TIP3    H269449   1.932   1.241   4.941  0.2101 -0.7452 -0.1279
16012TIP3   OH269450   2.674   0.658  12.157  0.4294 -0.1302  0.2171
16012TIP3    H169451   2.700   0.720  12.225 -0.0263  0.5894 -0.2521
16012TIP3    H269452   2.755   0.635  12.112  0.7876 -0.8620  1.1858
16013TIP3   OH269453   1.779   3.656  11.997  0.1225  0.3450  0.1349
16013TIP3    H169454   1.697   3.621  11.962  0.2536 -1.0572  1.1678
16013TIP3    H269455   1.760   3.676  12.089  0.5089  1.5003 -0.0228
16014TIP3   OH269456   4.395   6.432  13.820  0.3298 -0.4371  0.2661
16014TIP3    H169457   4.455   6.360  13.799  0.4143  0.2440 -2.1786
16014TIP3    H269458   4.449   6.493  13.871  1.4135 -0.3758 -0.8937
16015TIP3   OH269459   2.406   2.428  14.011  0.7311  0.6100  0.2819
16015TIP3    H169460   2.430   2.517  13.984 -2.3265  1.2154 -0.8832
16015TIP3    H269461   2.311   2.424  13.996  0.6201 -2.5476  1.2504
16016TIP3   OH269462   1.657   5.932  17.157  0.5566  0.6400  0.7475
16016TIP3    H169463   1.686   5.862  17.216 -0.2366 -0.8679 -0.5859
16016TIP3    H269464   1.736   5.982  17.139  2.0910 -2.3086 -1.3980
16017TIP3   OH269465   6.433   4.870   6.187 -0.0683  0.1781  0.2711
16017TIP3    H169466   6.426   4.965   6.203  0.2486  0.2825 -0.1965
16017TIP3    H269467   6.525   4.856   6.166  0.3589 -0.5717  2.4293
16018TIP3   OH269468   0.685   2.762   1.397 -0.2113 -0.6986  0.1482
16018TIP3    H169469   0.748   2.714   1.451 -0.0514 -1.5758 -0.7899
16018TIP3    H269470   0.617   2.698   1.378 -0.8813 -0.0443  0.2993
16019TIP3   OH269471   0.680   0.979   2.859  0.4470 -0.3246 -0.0072
16019TIP3    H169472   0.770   0.982   2.892  0.3429 -0.1817  0.2713
16019TIP3    H269473   0.629   1.023   2.927  0.3352  0.6735 -0.7161
16020TIP3   OH269474   4.143   3.374  11.901 -0.0054 -0.7151 -0.3784
16020TIP3    H169475   4.175   3.393  11.813  1.6178  0.0705  0.3436
16020TIP3    H269476   4.146   3.279  11.908  0.5467 -0.7404 -0.9252
16021TIP3   OH269477   2.994   3.245   0.874  0.0951 -0.1703  0.3681
16021TIP3    H169478   2.973   3.164   0.920  1.0180  0.3316  1.7169
16021TIP3    H269479   3.080   3.229   0.834  1.2400  0.7612  2.3069
16022TIP3   OH269480   5.000   3.333   4.265 -0.0166  0.1498  0.0065
16022TIP3    H169481   4.930   3.291   4.315 -1.1360  0.6620 -1.0890
16022TIP3    H269482   4.993   3.426   4.286 -0.1344  0.2967 -0.6682
16023TIP3   OH269483   6.399   6.401   2.914  0.2330 -0.2440  0.0218
16023TIP3    H169484   6.381   6.431   2.825  0.0624  1.4499  0.5907
16023TIP3    H269485   6.351   6.319   2.923 -0.6556  0.1437 -1.0840
16024TIP3   OH269486   4.946   0.545   6.570  0.3378  0.0857 -0.3318
16024TIP3    H169487   4.960   0.595   6.490  0.2041 -0.1248 -0.4891
16024TIP3    H269488   5.015   0.574   6.629 -0.9007  1.8902  0.2914
16025TIP3   OH269489   5.954   6.184   1.041 -0.4769  0.0334  0.2842
16025TIP3    H169490   6.048   6.172   1.030 -0.6137 -0.2622 -0.6301
16025TIP3    H269491   5.940   6.278   1.037 -0.4173 -0.0104 -1.3577
16026TIP3   OH269492   3.635   1.527   5.301 -0.2791 -0.2761 -0.0968
16026TIP3    H169493   3.620   1.611   5.346 -1.0458 -1.0860  1.2542
16026TIP3    H269494   3.599   1.462   5.361 -0.2163 -1.5356 -1.3781
16027TIP3   OH269495   3.234   0.539   1.620 -0.6375  0.0772  0.1319
16027TIP3    H169496   3.157   0.564   1.671 -1.6011 -1.9749 -0.2251
16027TIP3    H269497   3.255   0.450   1.650  2.0781  0.8151  0.7403
16028TIP3   OH269498   0.173   2.142  11.459 -0.2583 -0.4784  0.9103
16028TIP3    H169499   0.191   2.091  11.380 -0.9889 -1.3374  1.2749
16028TIP3    H269500   0.236   2.109  11.523  1.9182  1.8030  0.1212
16029TIP3   OH269501   2.337   3.430   3.741 -0.1757  0.3987 -0.1143
16029TIP3    H169502   2.401   3.495   3.769  1.1438 -0.6929 -0.4421
16029TIP3    H269503   2.342   3.431   3.646 -1.4924  1.0797 -0.1936
16030TIP3   OH269504   6.657   4.477  11.881  0.0746 -0.8843  0.1991
16030TIP3    H169505   6.704   4.455  11.801 -0.4441  0.3957 -0.4912
16030TIP3    H269506   6.724   4.478  11.950  0.5519 -1.8173 -0.2318
16031TIP3   OH269507   5.762   2.013   2.398 -0.3845  0.0980 -0.3432
16031TIP3    H169508   5.777   1.951   2.326  0.8870  0.5006 -0.4587
16031TIP3    H269509   5.697   2.074   2.365 -0.7851 -0.4997 -0.6607
16032TIP3   OH269510   1.316   4.112   2.439  0.3033 -0.1214 -0.4801
16032TIP3    H169511   1.307   4.078   2.528  0.6217  0.9708 -0.0232
16032TIP3    H269512   1.230   4.095   2.399 -0.3979  0.8374  0.5470
16033TIP3   OH269513   0.137   2.729  15.700 -0.3993  0.0417 -1.0485
16033TIP3    H169514   0.114   2.663  15.766  0.2480  0.7514 -0.0951
16033TIP3    H269515   0.212   2.691  15.654  0.4840  0.4309  0.0292
16034TIP3   OH269516   1.444   3.554  15.395 -0.6179  0.1272 -0.0673
16034TIP3    H169517   1.521   3.534  15.342 -0.6905 -1.7435  0.4760
16034TIP3    H269518   1.479   3.591  15.476 -0.3319 -0.1031 -0.0868
16035TIP3   OH269519   5.145   0.482   3.996 -0.2038 -0.7286  0.2560
16035TIP3    H169520   5.200   0.526   4.060 -1.7465 -0.2254  1.3015
16035TIP3    H269521   5.067   0.537   3.989  0.6063  0.2127 -3.4532
16036TIP3   OH269522   2.414   4.608  11.991 -0.5699  0.6886  0.3246
16036TIP3    H169523   2.456   4.586  11.908 -1.3908  0.1165  0.0473
16036TIP3    H269524   2.422   4.528  12.044 -2.7312 -0.0486 -0.3440
16037TIP3   OH269525   3.486   4.183   0.120 -0.3921  0.1470 -0.4127
16037TIP3    H169526   3.473   4.273   0.152 -0.4298  0.2588 -0.7392
16037TIP3    H269527   3.574   4.160   0.150  0.0322  0.6715 -1.2101
16038TIP3   OH269528   6.087   4.274  16.485  0.3311 -0.9552 -0.0307
16038TIP3    H169529   6.044   4.359  16.499 -0.1151 -1.0705 -0.6622
16038TIP3    H269530   6.062   4.223  16.562  0.1620 -0.6851  0.0968
16039TIP3   OH269531   5.404   0.025  15.134 -0.0142  0.3809  0.3833
16039TIP3    H169532   5.471  -0.041  15.115 -1.9790 -1.2379 -1.3438
16039TIP3    H269533   5.452   0.096  15.176  2.4484 -1.5040  0.9603
16040TIP3   OH269534   3.043   3.044  13.899 -0.0848  0.0027  0.5250
16040TIP3    H169535   3.138   3.040  13.891  0.0153  0.9529  1.0530
16040TIP3    H269536   3.012   2.964  13.856  0.9587 -0.4570  0.5864
16041TIP3   OH269537   2.799   4.590  16.856 -0.8638  0.2615 -0.4447
16041TIP3    H169538   2.803   4.656  16.925 -1.1471  1.0498 -1.1706
16041TIP3    H269539   2.880   4.602  16.807 -2.0678  1.8315 -2.1448
16042TIP3   OH269540   0.588   4.528  15.660 -0.1825 -0.2361 -0.0564
16042TIP3    H169541   0.514   4.535  15.600 -0.0689 -0.3419 -0.2076
16042TIP3    H269542   0.642   4.458  15.624  0.7268  0.7773 -0.7395
16043TIP3   OH269543   2.627   6.211   4.837 -0.1375 -0.0173  0.3344
16043TIP3    H169544   2.704   6.169   4.874 -0.1882  1.0732  1.7992
16043TIP3    H269545   2.608   6.283   4.897 -1.0187  1.0679 -1.1639
16044TIP3   OH269546   0.007   6.287  12.248 -0.3811 -0.4991  0.9252
16044TIP3    H169547  -0.056   6.271  12.318 -1.7598 -1.4393 -0.4636
16044TIP3    H269548  -0.037   6.349  12.190  0.1804 -0.7509  0.2111
16045TIP3   OH269549   6.320   3.510   2.858 -0.7023 -0.1740  0.3009
16045TIP3    H169550   6.254   3.575   2.879 -0.2930  0.0781  0.8296
16045TIP3    H269551   6.334   3.519   2.763  0.7541  1.8691  0.6443
16046TIP3   OH269552   3.596   5.841   0.336 -0.3676  0.0603  0.2678
16046TIP3    H169553   3.509   5.835   0.376  0.2435 -0.4077  1.5814
16046TIP3    H269554   3.616   5.751   0.309  0.3229 -0.1146  1.3379
16047TIP3   OH269555   5.385   3.196  15.593  0.0814  0.4815 -0.7413
16047TIP3    H169556   5.316   3.253  15.559 -0.6125 -1.2637 -2.4150
16047TIP3    H269557   5.355   3.107  15.575  1.7385 -0.4237  0.5680
16048TIP3   OH269558   3.505   1.116  13.307 -0.7683  0.4122  0.3489
16048TIP3    H169559   3.580   1.147  13.256 -0.3151  0.6408  1.1380
16048TIP3    H269560   3.532   1.128  13.398 -1.7878  0.5510  0.6425
16049TIP3   OH269561   1.455   3.895   2.602 -0.4548 -0.2076 -0.5712
16049TIP3    H169562   1.512   3.956   2.556  1.5103 -0.2255  1.6836
16049TIP3    H269563   1.493   3.809   2.586  0.0408 -0.2500  0.7197
16050TIP3   OH269564   0.107   2.010   6.316  0.0884 -0.5444 -0.3053
16050TIP3    H169565   0.029   1.962   6.345 -0.4319 -1.8463 -3.4368
16050TIP3    H269566   0.178   1.947   6.324  0.4047 -0.1267  0.2979
16051TIP3   OH269567   5.117   5.466   3.763 -0.3460 -0.6191  0.2662
16051TIP3    H169568   5.158   5.417   3.834 -0.2040  0.5005  0.9732
16051TIP3    H269569   5.062   5.531   3.806 -0.3601 -0.0001 -0.6459
16052TIP3   OH269570   3.221   1.186   1.693 -0.0464  0.2261 -0.2605
16052TIP3    H169571   3.133   1.179   1.730 -0.2010 -0.1023 -0.6768
16052TIP3    H269572   3.238   1.280   1.689  0.0931  0.2671  0.9069
16053TIP3   OH269573   1.527   2.539  12.537  0.3932 -0.2636 -0.1112
16053TIP3    H169574   1.605   2.513  12.585  0.4574  0.3318  0.1233
16053TIP3    H269575   1.543   2.630  12.512 -1.5460  1.0520  2.8408
16054TIP3   OH269576   4.248   4.540   1.916 -0.2198 -0.4281 -0.1198
16054TIP3    H169577   4.273   4.546   1.824  1.2586 -2.2222  0.1081
16054TIP3    H269578   4.164   4.496   1.915 -0.8584  0.7452 -0.6389
16055TIP3   OH269579   3.351   6.101   4.046 -0.2366 -0.3280  0.2119
16055TIP3    H169580   3.388   6.143   4.124 -0.7751 -0.5598  0.5974
16055TIP3    H269581   3.257   6.101   4.061 -0.3206 -0.6667 -0.2931
16056TIP3   OH269582   0.784   0.626  16.799  0.4407  0.6630 -0.3791
16056TIP3    H169583   0.757   0.717  16.793  0.3252  0.6341 -0.2944
16056TIP3    H269584   0.722   0.578  16.744 -0.4350  0.4376  0.7396
16057TIP3   OH269585   5.828   6.190   2.383 -0.6352 -0.3015  0.3117
16057TIP3    H169586   5.864   6.108   2.350 -0.7086  0.2206 -1.1471
16057TIP3    H269587   5.750   6.164   2.433 -0.4456 -1.1357  0.1884
16058TIP3   OH269588   3.090   3.664   0.203  0.5455  0.1591  0.3252
16058TIP3    H169589   3.042   3.639   0.123 -0.1926  1.8831  0.1862
16058TIP3    H269590   3.182   3.665   0.176  0.5873 -1.8735  0.2333
16059TIP3   OH269591   5.271   4.037  11.769  0.3304  0.3757 -0.1592
16059TIP3    H169592   5.255   4.069  11.858 -0.6934 -0.0793 -0.1624
16059TIP3    H269593   5.343   3.975  11.778 -1.2704 -1.4643  0.7983
16060TIP3   OH269594   4.606   6.646   1.321 -0.4665  0.5913  0.2945
16060TIP3    H169595   4.622   6.738   1.299 -0.1445  1.1584  2.5730
16060TIP3    H269596   4.524   6.624   1.278 -0.6843  2.0409 -0.0709
16061TIP3   OH269597   2.351   4.549  17.140  0.0044  0.1229  0.7332
16061TIP3    H169598   2.307   4.475  17.099  1.1625  0.1485 -0.6327
16061TIP3    H269599   2.443   4.538  17.116  0.0183  2.8309 -0.9150
16062TIP3   OH269600   5.197   6.294   1.899  0.5440 -0.5985  0.1835
16062TIP3    H169601   5.168   6.344   1.975 -1.4073 -0.6365 -0.4868
16062TIP3    H269602   5.126   6.302   1.836  0.5692 -3.4145 -0.3307
16063TIP3   OH269603   3.643   5.710  13.580 -0.3980  0.1109  0.0409
16063TIP3    H169604   3.658   5.802  13.604  3.5516 -0.7341  1.5916
16063TIP3    H269605   3.642   5.663  13.664 -0.2803 -1.4997 -0.8217
16064TIP3   OH269606   6.264   1.433   1.019 -0.3112  0.3496  0.4203
16064TIP3    H169607   6.277   1.522   1.050 -0.0952  1.5693 -2.7692
16064TIP3    H269608   6.183   1.437   0.967  1.0960 -0.5269 -2.0211
16065TIP3   OH269609   1.560   3.750  10.812 -0.0156 -0.1043 -0.0645
16065TIP3    H169610   1.626   3.769  10.744 -1.2893 -0.5543 -1.4888
16065TIP3    H269611   1.476   3.764  10.768 -0.9309  1.7456  2.0839
16066TIP3   OH269612   2.091   2.849  13.285  0.2404 -0.2914 -0.0079
16066TIP3    H169613   2.103   2.938  13.319  0.0758 -0.2866  0.0356
16066TIP3    H269614   2.167   2.835  13.228 -0.0096  0.0726 -0.4282
16067TIP3   OH269615   0.978   5.891   6.054 -0.3228 -0.9643 -0.6740
16067TIP3    H169616   1.034   5.925   5.985  1.2234 -0.1714  0.8835
16067TIP3    H269617   1.031   5.823   6.097 -0.3557  0.0491  1.0562
16068TIP3   OH269618   4.702   5.677   5.462 -0.0826  0.6718  0.3511
16068TIP3    H169619   4.674   5.594   5.500  1.9121 -0.0697  0.2926
16068TIP3    H269620   4.718   5.658   5.370  0.9840  0.9518  0.4678
16069TIP3   OH269621   2.947   0.937   4.826 -0.0846  0.7677 -0.3495
16069TIP3    H169622   2.879   0.876   4.799  0.2354  0.4347 -0.4036
16069TIP3    H269623   3.014   0.931   4.758 -0.3341  1.6547 -0.6992
16070TIP3   OH269624   1.983   4.095  14.429 -0.1953  0.3739 -0.0648
16070TIP3    H169625   1.929   4.164  14.467 -1.8321 -1.3764  0.9863
16070TIP3    H269626   1.926   4.052  14.365  0.7166 -0.1241 -0.5630
16071TIP3   OH269627   0.530   6.339   4.835 -0.1699  0.0781  0.1498
16071TIP3    H169628   0.483   6.364   4.914 -0.6045 -3.1469  1.0472
16071TIP3    H269629   0.463   6.307   4.775  0.3226  0.9921 -0.9294
16072TIP3   OH269630   0.268   5.720  13.322 -0.3198 -0.2421  1.0952
16072TIP3    H169631   0.211   5.712  13.399  0.7595  0.0544  1.9386
16072TIP3    H269632   0.288   5.813  13.318 -0.7512 -0.1829  0.1582
16073TIP3   OH269633   4.736   3.697   5.890 -0.4957 -0.8370 -0.0103
16073TIP3    H169634   4.794   3.767   5.921  0.7460 -2.0829  0.5562
16073TIP3    H269635   4.649   3.726   5.915  0.1566 -0.2637  1.7521
16074TIP3   OH269636   1.875   1.568  15.982 -0.4546 -0.1176  0.3949
16074TIP3    H169637   1.957   1.617  15.985 -0.1014 -0.7113  0.6236
16074TIP3    H269638   1.820   1.616  15.920  0.4877 -0.3667 -0.6585
16075TIP3   OH269639   3.857   3.540   2.169 -0.2368 -0.1258  0.3257
16075TIP3    H169640   3.785   3.599   2.148  0.0499  0.0942 -0.0673
16075TIP3    H269641   3.915   3.591   2.226  0.8765  0.6124 -1.3536
16076TIP3   OH269642   1.946   2.469   4.714 -0.0936  0.1298 -0.5727
16076TIP3    H169643   1.996   2.508   4.643 -0.3806  0.3992 -0.6288
16076TIP3    H269644   1.863   2.442   4.673  0.7245 -2.0511 -0.9184
16077TIP3   OH269645   3.797   4.796  15.257  0.3633  0.2403 -0.3041
16077TIP3    H169646   3.717   4.847  15.248 -0.7244 -0.8882  1.9948
16077TIP3    H269647   3.853   4.824  15.184 -1.2744  2.5764 -0.7492
16078TIP3   OH269648   1.964   3.201   3.322 -0.0442 -0.6209  0.5761
16078TIP3    H169649   1.881   3.178   3.364 -1.0146  0.1368 -0.8684
16078TIP3    H269650   2.010   3.253   3.388 -2.3339  2.1765  0.1452
16079TIP3   OH269651   5.265   1.764  15.412 -0.2700 -0.1526 -0.3037
16079TIP3    H169652   5.193   1.783  15.352  0.0414  0.5926 -0.4444
16079TIP3    H269653   5.316   1.845  15.416 -0.8280  0.1672  1.7253
16080TIP3   OH269654   1.473   0.466   0.321 -0.7227 -0.1852  0.4067
16080TIP3    H169655   1.398   0.480   0.264 -0.8847  0.7203  0.8315
16080TIP3    H269656   1.440   0.406   0.389 -0.8588 -0.3324  0.2120
16081TIP3   OH269657   6.096   1.693   5.296  0.1171  0.2732 -0.0644
16081TIP3    H169658   6.082   1.611   5.343  4.0294 -0.0945  0.8503
16081TIP3    H269659   6.104   1.666   5.204  0.9114 -0.3309  0.1708
16082TIP3   OH269660   5.914   4.506   3.061  0.4430  0.9449 -0.0463
16082TIP3    H169661   5.867   4.441   3.115  0.2105  2.0771  1.1716
16082TIP3    H269662   5.967   4.555   3.124  1.4932  1.2005 -1.1051
16083TIP3   OH269663   4.461   0.737  11.691 -0.0665 -0.0998 -0.4096
16083TIP3    H169664   4.417   0.693  11.619 -1.4711 -0.1912  0.4657
16083TIP3    H269665   4.546   0.763  11.655  0.1099 -1.9486 -1.4769
16084TIP3   OH269666   4.258   5.907   3.183  0.3103  0.0144 -0.5128
16084TIP3    H169667   4.184   5.930   3.239  0.5241  1.3513 -0.7364
16084TIP3    H269668   4.235   5.944   3.097  0.7919 -0.4224 -0.8366
16085TIP3   OH269669   6.715   5.112   5.257  0.0022 -0.2841 -0.5284
16085TIP3    H169670   6.717   5.106   5.162 -2.4412  0.0038 -0.6683
16085TIP3    H269671   6.695   5.204   5.275  0.6152 -0.2984  0.2791
16086TIP3   OH269672   4.913   5.291  16.590  0.4901  0.3519  0.0215
16086TIP3    H169673   4.880   5.372  16.551 -0.3610 -0.2580 -0.5680
16086TIP3    H269674   4.835   5.247  16.623  1.0186  0.0820  0.9406
16087TIP3   OH269675   3.770   0.117  10.571  0.4243  0.3742 -0.1001
16087TIP3    H169676   3.784   0.206  10.540  0.9166  0.6720  0.9538
16087TIP3    H269677   3.708   0.126  10.643  0.5248 -0.1333  0.0516
16088TIP3   OH269678   2.184   0.192   3.321 -0.0975 -0.0467  0.2254
16088TIP3    H169679   2.197   0.123   3.257  0.1599 -0.5575  0.8199
16088TIP3    H269680   2.163   0.146   3.402 -1.8045  0.6167  0.2108
16089TIP3   OH269681   1.642   5.136  17.204 -0.0449 -0.0649  0.2762
16089TIP3    H169682   1.698   5.212  17.192  0.7869 -0.3904  1.7745
16089TIP3    H269683   1.615   5.140  17.296 -1.4152 -0.6339 -0.0755
16090TIP3   OH269684   5.036   1.166  12.752  0.1927  0.1521 -0.6798
16090TIP3    H169685   5.096   1.101  12.790  0.2292  0.5226 -0.0895
16090TIP3    H269686   5.085   1.249  12.757 -0.7614  0.6661  0.8203
16091TIP3   OH269687   4.098   4.610  14.248  0.0254  0.0123  0.2280
16091TIP3    H169688   4.009   4.578  14.263 -0.0323  0.4186  0.8035
16091TIP3    H269689   4.148   4.575  14.323  0.1245  0.6312  0.4533
16092TIP3   OH269690   4.928   3.569   6.574  0.0109  0.3410 -0.8970
16092TIP3    H169691   4.868   3.547   6.646  1.1601  0.9160  0.2947
16092TIP3    H269692   4.917   3.663   6.562  0.0012  0.2870 -1.2997
16093TIP3   OH269693   4.965   4.436   1.347  0.7777  0.1269  0.2868
16093TIP3    H169694   4.877   4.475   1.341  1.4725  1.5438 -1.4895
16093TIP3    H269695   5.022   4.499   1.304  2.1437 -2.3302 -1.7695
16094TIP3   OH269696   3.234   3.530   1.891  0.0437  0.0637  0.5394
16094TIP3    H169697   3.315   3.510   1.843 -0.1245  1.6791 -0.4932
16094TIP3    H269698   3.182   3.583   1.830 -0.4888  1.6273  2.2369
16095TIP3   OH269699   3.153   0.615   4.806  0.4231  0.4094 -0.4271
16095TIP3    H169700   3.123   0.524   4.801 -0.4058  0.6160  0.5148
16095TIP3    H269701   3.146   0.648   4.717 -0.1262 -0.1932 -0.6113
16096TIP3   OH269702   0.193   3.896  11.978  0.2070  0.0195  0.1913
16096TIP3    H169703   0.139   3.823  11.950  0.6424 -0.6788  1.1308
16096TIP3    H269704   0.280   3.859  11.991  1.0528  1.1955 -1.6671
16097TIP3   OH269705   5.658   6.563   4.058 -0.0526 -0.2825 -0.2073
16097TIP3    H169706   5.567   6.553   4.030 -0.6533 -0.3305  1.6280
16097TIP3    H269707   5.652   6.596   4.147  1.7514  0.0715 -0.1819
16098TIP3   OH269708   6.734   1.694  16.956  0.3820  0.2669  0.5273
16098TIP3    H169709   6.757   1.734  17.040 -0.2830  0.1463  0.7690
16098TIP3    H269710   6.806   1.633  16.939  0.4559  0.1937  1.0752
16099TIP3   OH269711   5.945   2.330   4.218 -0.1233 -0.1804 -0.3568
16099TIP3    H169712   5.901   2.250   4.188 -0.7038 -0.3066  0.7770
16099TIP3    H269713   5.897   2.355   4.297 -0.3700  1.6518 -1.0429
16100TIP3   OH269714   1.225   4.598   4.467 -0.2827 -0.2523 -0.1225
16100TIP3    H169715   1.155   4.605   4.402 -1.4264  0.5129  1.1628
16100TIP3    H269716   1.265   4.685   4.469 -1.1773  0.1527  1.1861
16101TIP3   OH269717   1.111   5.242   3.286  0.1031 -0.2031 -0.2479
16101TIP3    H169718   1.129   5.148   3.288 -0.1070 -0.3210 -2.3411
16101TIP3    H269719   1.159   5.277   3.362  2.0900 -1.6841 -0.7315
16102TIP3   OH269720   4.334   5.416   0.957 -0.6803  0.3483  0.2482
16102TIP3    H169721   4.329   5.343   1.019  2.2756 -0.3568 -0.2232
16102TIP3    H269722   4.291   5.383   0.878 -3.4137  0.8390  1.3952
16103TIP3   OH269723   0.906   6.665  12.280 -0.3963  0.1545 -0.5013
16103TIP3    H169724   0.859   6.749  12.280 -0.3630  0.1728 -0.2649
16103TIP3    H269725   0.977   6.677  12.343  0.8204  0.6238 -1.8985
16104TIP3   OH269726   0.406   3.985   2.456  0.3844 -0.4405 -0.0098
16104TIP3    H169727   0.493   3.948   2.451  0.4156 -0.3477 -0.1893
16104TIP3    H269728   0.399   4.040   2.377  1.0765  1.5229  1.2243
16105TIP3   OH269729   1.513   1.679  13.833  0.6942  0.0083  0.0358
16105TIP3    H169730   1.511   1.724  13.748  0.0953  0.1529  0.1213
16105TIP3    H269731   1.472   1.594  13.817 -0.6546  0.5601  0.4676
16106TIP3   OH269732   3.404   4.243   2.970 -0.7378 -0.7744  0.0588
16106TIP3    H169733   3.430   4.151   2.968 -0.4310 -0.6940  0.2356
16106TIP3    H269734   3.365   4.256   3.056  0.3647 -0.4421  0.5360
16107TIP3   OH269735   1.829   0.886   2.131  0.3176  0.3439  0.2258
16107TIP3    H169736   1.848   0.979   2.119 -0.0694  0.3896 -0.0224
16107TIP3    H269737   1.768   0.864   2.061  0.1225 -0.0107  0.5025
16108TIP3   OH269738   2.435   2.420  17.059  0.0572  0.4489  0.0276
16108TIP3    H169739   2.342   2.398  17.068 -0.3079  1.5234 -0.8819
16108TIP3    H269740   2.473   2.344  17.015 -0.2981 -0.1738  0.7692
16109TIP3   OH269741   1.495   4.200   4.426  0.4988 -0.2006  0.0442
16109TIP3    H169742   1.454   4.281   4.397  0.7941  0.4567  1.3848
16109TIP3    H269743   1.572   4.228   4.475 -1.2410 -1.0686  3.5467
16110TIP3   OH269744   6.759   5.088  16.866 -0.1719  0.4664 -0.2429
16110TIP3    H169745   6.768   5.003  16.823  0.4199  0.8285 -0.8460
16110TIP3    H269746   6.818   5.084  16.941  0.6755  0.7298 -0.8863
16111TIP3   OH269747   1.845   5.638   3.619 -0.1930  0.8113  0.2667
16111TIP3    H169748   1.922   5.605   3.573  0.1829  0.7901  0.9061
16111TIP3    H269749   1.773   5.624   3.557  0.3623  1.1297 -0.4621
16112TIP3   OH269750   4.018   2.141  14.311  0.0351  0.1380 -0.4278
16112TIP3    H169751   4.092   2.170  14.364  0.9021 -2.4966 -0.1000
16112TIP3    H269752   3.947   2.200  14.336  0.8709  0.0681  2.4238
16113TIP3   OH269753   0.763   5.213  16.177  0.3967 -0.2639 -0.0935
16113TIP3    H169754   0.815   5.291  16.158 -0.5315  0.1511 -0.9947
16113TIP3    H269755   0.828   5.145  16.194  1.2237  0.8208  1.2703
16114TIP3   OH269756   5.070   0.466   0.661 -0.4296  0.4685 -0.2807
16114TIP3    H169757   5.034   0.547   0.697 -1.0248 -0.2512  0.8193
16114TIP3    H269758   5.148   0.494   0.613 -1.2960  1.8202 -0.9698
16115TIP3   OH269759   4.334   5.812  11.804 -0.0442  0.2194 -0.1595
16115TIP3    H169760   4.335   5.716  11.808  1.1255  0.2629  1.6567
16115TIP3    H269761   4.244   5.836  11.826  0.5463 -0.4436  3.7919
16116TIP3   OH269762   1.554   2.918  15.736  0.7547 -0.5566 -0.1728
16116TIP3    H169763   1.483   2.861  15.704 -0.4459  1.4282 -1.2334
16116TIP3    H269764   1.625   2.905  15.674  1.0727 -2.0147  0.4691
16117TIP3   OH269765   1.556   0.539   2.258  0.3770 -0.1371 -0.1013
16117TIP3    H169766   1.539   0.618   2.206  0.0232 -0.1236  0.0309
16117TIP3    H269767   1.502   0.471   2.217  0.3179 -0.1951  0.0698
16118TIP3   OH269768   0.379   3.651   2.055  0.8515  0.1463 -0.0034
16118TIP3    H169769   0.439   3.607   2.115  0.6675  0.1349  0.1693
16118TIP3    H269770   0.323   3.582   2.022 -0.4876  0.4827  1.4751
16119TIP3   OH269771   3.986   1.019   1.907 -0.0545  0.0111 -0.3168
16119TIP3    H169772   4.067   1.046   1.952 -0.4773  0.8056 -0.0144
16119TIP3    H269773   3.938   1.101   1.893 -0.4263 -0.3592 -1.2548
16120TIP3   OH269774   3.080   1.496   0.337 -0.3617  0.1098 -0.5741
16120TIP3    H169775   3.141   1.511   0.265 -1.2807  2.4257 -0.9499
16120TIP3    H269776   3.083   1.576   0.388 -1.6986 -0.4669  0.4789
16121TIP3   OH269777   3.928   5.751   6.036  0.4145  0.6688 -0.6581
16121TIP3    H169778   3.871   5.804   6.092 -1.3742 -1.3380 -0.4259
16121TIP3    H269779   4.015   5.760   6.074 -0.5362  0.3627  1.7557
16122TIP3   OH269780   1.251   1.296   1.771 -0.3052 -0.4647  0.0721
16122TIP3    H169781   1.191   1.347   1.825  0.3629  0.4786 -0.0470
16122TIP3    H269782   1.243   1.334   1.683  1.4516  0.6279  0.3299
16123TIP3   OH269783   0.778   0.492  12.766 -0.0532  0.6444 -0.4666
16123TIP3    H169784   0.745   0.497  12.677 -0.5283  0.4782 -0.3057
16123TIP3    H269785   0.700   0.479  12.820  0.3641 -0.8414 -0.1747
16124TIP3   OH269786   0.420   5.830   4.031 -0.3351  0.2115 -0.2474
16124TIP3    H169787   0.390   5.878   3.953 -1.1010  0.3955  0.1458
16124TIP3    H269788   0.508   5.864   4.047  0.4231 -0.8656 -1.8623
16125TIP3   OH269789   1.146   0.500  17.038  0.3669  0.3595 -0.2602
16125TIP3    H169790   1.141   0.425  17.098 -0.4519 -0.0447 -0.8140
16125TIP3    H269791   1.169   0.461  16.954  0.4587  0.7945 -0.4379
16126TIP3   OH269792   3.682   1.343   3.832  0.4557 -0.0822 -0.1748
16126TIP3    H169793   3.745   1.377   3.768  0.1554  1.2122  0.1970
16126TIP3    H269794   3.659   1.256   3.798 -0.5322  0.9721 -2.4678
16127TIP3   OH269795   4.122   6.449   4.150  0.1927 -0.5277  0.7730
16127TIP3    H169796   4.066   6.497   4.211  0.7700  0.3092  0.6652
16127TIP3    H269797   4.116   6.358   4.178 -2.7069 -0.7914 -0.4014
16128TIP3   OH269798   2.431   6.159  11.144  0.1170  0.6716  0.0417
16128TIP3    H169799   2.494   6.209  11.093 -0.8463 -1.4391 -3.5758
16128TIP3    H269800   2.484   6.090  11.186  0.5983  0.7252 -0.4636
16129TIP3   OH269801   1.988   5.789   3.185 -0.3431  0.5176  0.3754
16129TIP3    H169802   1.910   5.844   3.174 -0.4448  0.0179 -1.9527
16129TIP3    H269803   2.041   5.807   3.107  0.2199 -1.7345  0.1707
16130TIP3   OH269804   2.370   4.377   5.185 -0.0157 -0.0593  0.2784
16130TIP3    H169805   2.371   4.443   5.254  2.3092 -1.1134  1.3897
16130TIP3    H269806   2.296   4.400   5.130 -1.1076  1.6734  2.3214
16131TIP3   OH269807   3.788   2.856  15.793 -0.1143  0.0129 -0.2106
16131TIP3    H169808   3.817   2.899  15.713  0.5932  0.8123  0.4615
16131TIP3    H269809   3.754   2.771  15.763 -0.3472  0.5011 -1.4078
16132TIP3   OH269810   1.079   2.133  13.862 -0.5002  0.3685  0.8127
16132TIP3    H169811   1.000   2.127  13.915 -0.7852 -0.6539  0.3066
16132TIP3    H269812   1.084   2.048  13.817  0.2937  0.8251  0.0078
16133TIP3   OH269813   0.564   3.277  12.862 -0.3220  0.5152 -0.2389
16133TIP3    H169814   0.644   3.239  12.825 -0.1217  1.5982 -0.9619
16133TIP3    H269815   0.595   3.344  12.923 -0.6731  0.4118  0.0557
16134TIP3   OH269816   4.250   2.886   4.032 -0.1990  0.2926  0.0524
16134TIP3    H169817   4.159   2.916   4.033 -0.6360 -1.0019  0.9368
16134TIP3    H269818   4.267   2.855   4.121  0.8785 -0.1504 -0.2894
16135TIP3   OH269819   5.167   1.851  14.428 -0.1064 -0.7657  0.1554
16135TIP3    H169820   5.103   1.922  14.431  0.4415  0.0324 -3.1993
16135TIP3    H269821   5.142   1.799  14.351  2.8333 -0.8007 -0.8861
16136TIP3   OH269822   1.054   0.638  15.345 -0.2247  0.5195  0.2933
16136TIP3    H169823   1.094   0.583  15.277 -0.4660  1.2734 -0.4763
16136TIP3    H269824   0.991   0.581  15.389  0.3541 -0.1418  0.2718
16137TIP3   OH269825   1.612   1.519  14.278 -0.0014 -0.4411  0.5225
16137TIP3    H169826   1.682   1.453  14.278  0.7679  0.3552  0.9680
16137TIP3    H269827   1.542   1.479  14.330  0.0395 -1.3261 -0.0831
16138TIP3   OH269828   2.512   0.812  12.534 -0.3346 -0.9604 -0.3877
16138TIP3    H169829   2.445   0.750  12.565 -0.4144 -0.9099 -0.4564
16138TIP3    H269830   2.568   0.826  12.610  0.9724 -2.7687 -0.9462
16139TIP3   OH269831   3.328   2.779  11.968 -0.0292  0.0756  0.0856
16139TIP3    H169832   3.255   2.759  12.027 -0.3891  0.6054 -0.1591
16139TIP3    H269833   3.320   2.716  11.897  0.5950 -0.7673  0.7536
16140TIP3   OH269834   4.394   3.688  15.921  0.5450 -0.0886 -0.0631
16140TIP3    H169835   4.402   3.782  15.907 -1.5695  0.1505  0.0507
16140TIP3    H269836   4.324   3.660  15.861  1.9261 -1.8329 -0.9670
16141TIP3   OH269837   5.094   2.237  15.759 -0.0276 -0.4774 -0.7491
16141TIP3    H169838   5.074   2.328  15.784 -0.8650 -0.5793 -0.9951
16141TIP3    H269839   5.160   2.209  15.821 -0.1996  0.1158 -0.2867
16142TIP3   OH269840   5.458   5.801  15.278 -0.2283 -0.2495 -0.1436
16142TIP3    H169841   5.548   5.777  15.258 -0.5876 -0.3390 -1.7859
16142TIP3    H269842   5.422   5.725  15.323 -0.1462 -1.1909 -1.6028
16143TIP3   OH269843   6.692   4.702   1.986 -0.4763 -0.1798  0.0946
16143TIP3    H169844   6.724   4.681   1.898 -1.5931  0.1722 -0.4247
16143TIP3    H269845   6.671   4.618   2.025 -1.5482 -0.2720 -0.6243
16144TIP3   OH269846   6.057   5.556  15.659  0.7995  0.0275  0.1937
16144TIP3    H169847   6.122   5.552  15.729 -0.3990  1.6366  1.4863
16144TIP3    H269848   6.079   5.484  15.601  2.4939 -0.7035  1.6665
16145TIP3   OH269849   3.468   0.482   3.991  0.0898 -0.0469 -0.8685
16145TIP3    H169850   3.395   0.420   3.995 -0.4604  0.6487  0.7617
16145TIP3    H269851   3.546   0.427   4.000 -0.2390 -0.7519 -2.1678
16146TIP3   OH269852   6.411   1.707   5.663  0.0921  0.2558 -0.7646
16146TIP3    H169853   6.353   1.632   5.675 -0.9932  0.9088 -1.6589
16146TIP3    H269854   6.491   1.685   5.712 -0.9601 -0.6095  0.6451
16147TIP3   OH269855   0.155   5.343   3.721  0.3902 -0.0823  0.3174
16147TIP3    H169856   0.215   5.285   3.767 -1.0483 -0.7251  1.4661
16147TIP3    H269857   0.084   5.358   3.784 -1.3933 -0.5567 -1.4925
16148TIP3   OH269858   0.526   4.309  14.145  0.0010  0.2615 -0.2901
16148TIP3    H169859   0.511   4.230  14.197 -1.6364 -0.4179 -1.7157
16148TIP3    H269860   0.506   4.381  14.205  0.9636 -0.3933  0.8598
16149TIP3   OH269861   4.887   6.779  16.512  0.2538  0.1837  0.0051
16149TIP3    H169862   4.875   6.730  16.431 -1.0921  2.3738 -1.2222
16149TIP3    H269863   4.888   6.871  16.485 -0.0667  0.9816  2.4461
16150TIP3   OH269864   0.197   5.346   2.942  0.2262  0.2655 -0.7505
16150TIP3    H169865   0.246   5.334   3.024 -0.1684 -2.2974 -0.8224
16150TIP3    H269866   0.227   5.431   2.909  1.7783  0.5098  1.1115
16151TIP3   OH269867   1.957   6.033   4.820 -0.2006 -0.0656  0.4942
16151TIP3    H169868   1.989   6.122   4.804 -0.0682  0.2385  2.2116
16151TIP3    H269869   1.870   6.046   4.859 -0.8885 -0.7620 -0.7583
16152TIP3   OH269870   1.392   4.810  16.249 -0.1753 -0.4695  0.3074
16152TIP3    H169871   1.398   4.729  16.301 -0.8528  0.4511  1.9020
16152TIP3    H269872   1.480   4.822  16.214  0.5830 -0.6433  2.0532
16153TIP3   OH269873   0.270   5.661  14.966  0.0080 -0.2409 -0.6082
16153TIP3    H169874   0.339   5.595  14.976  0.4036  0.0877 -1.1564
16153TIP3    H269875   0.209   5.623  14.903 -2.2338 -2.0986  2.3464
16154TIP3   OH269876   5.587   0.458   4.854  0.3595 -0.0409 -0.2898
16154TIP3    H169877   5.550   0.541   4.825 -1.7204 -0.3011  1.4578
16154TIP3    H269878   5.516   0.395   4.845  1.0224 -1.0382  1.0922
16155TIP3   OH269879   2.149   3.891  14.196  0.2852  0.3686 -0.3568
16155TIP3    H169880   2.186   3.821  14.143  0.1985  0.7687 -0.9638
16155TIP3    H269881   2.216   3.909  14.262 -0.6906 -1.9320  1.3781
16156TIP3   OH269882   1.665   1.897   2.370 -0.6135  0.2008  0.1165
16156TIP3    H169883   1.720   1.896   2.291 -0.1375 -1.1043  0.4279
16156TIP3    H269884   1.622   1.982   2.368  0.4268  0.7425 -0.8373
16157TIP3   OH269885   2.150   3.901   5.979 -0.3746 -0.5539 -0.1126
16157TIP3    H169886   2.116   3.988   5.999  0.8929 -0.4266  1.6529
16157TIP3    H269887   2.110   3.843   6.045  1.1124 -0.7644  0.6331
16158TIP3   OH269888   5.092   2.609   4.119  0.4009 -0.4257  0.6328
16158TIP3    H169889   5.047   2.683   4.078 -0.0893 -0.4758  1.0707
16158TIP3    H269890   5.073   2.535   4.061  1.0803 -0.1702  0.0726
16159TIP3   OH269891   6.250   2.544   1.159 -0.2410 -0.1716  0.3869
16159TIP3    H169892   6.206   2.627   1.141 -0.2039 -0.1098  0.5768
16159TIP3    H269893   6.210   2.482   1.097  0.0955  0.0979 -0.1064
16160TIP3   OH269894   2.450   5.955  13.592  0.3961  0.2001 -0.7229
16160TIP3    H169895   2.482   5.872  13.630 -1.1142 -0.5068 -0.9297
16160TIP3    H269896   2.440   6.013  13.668 -1.8883 -0.9612 -0.0422
16161TIP3   OH269897   3.676   1.508  11.686 -0.2346  0.7098 -0.8796
16161TIP3    H169898   3.622   1.486  11.610 -1.8230  2.1243 -0.2381
16161TIP3    H269899   3.700   1.599  11.672  2.6149 -0.0199 -1.4284
16162TIP3   OH269900   5.000   1.127  12.274 -0.6427 -0.6204 -0.1319
16162TIP3    H169901   4.906   1.141  12.268 -0.2490  2.1421 -1.6909
16162TIP3    H269902   5.017   1.051  12.217 -1.8862 -1.1369  0.1633
16163TIP3   OH269903   0.615   0.258  15.090 -0.1073  0.8862  0.5459
16163TIP3    H169904   0.691   0.305  15.056 -0.4369  1.6425  0.8261
16163TIP3    H269905   0.629   0.254  15.185 -1.0012  2.1515  0.7612
16164TIP3   OH269906   3.376   2.144  13.579  0.2301  0.4579 -0.0657
16164TIP3    H169907   3.297   2.130  13.527  1.6428 -1.5183 -1.8426
16164TIP3    H269908   3.344   2.156  13.669 -2.0737 -0.0677 -0.7620
16165TIP3   OH269909   1.609   2.756  12.770 -0.5676  0.2421 -0.2143
16165TIP3    H169910   1.623   2.842  12.808  1.5218  0.7557 -1.9341
16165TIP3    H269911   1.694   2.732  12.734 -1.1488 -2.4630 -0.0037
16166TIP3   OH269912   3.121   1.076   1.455  0.0759  0.2227  0.0488
16166TIP3    H169913   3.162   1.104   1.537  0.1170  0.1278  0.0602
16166TIP3    H269914   3.132   0.981   1.453  0.0791  0.2251 -0.0688
16167TIP3   OH269915   4.558   0.294   3.894 -0.4235  0.0519 -0.0434
16167TIP3    H169916   4.592   0.207   3.873  2.9539  1.4979 -1.2212
16167TIP3    H269917   4.600   0.352   3.831 -2.4647  2.6018  0.7910
16168TIP3   OH269918   2.129   3.769  13.049 -0.6736  0.1631 -0.3857
16168TIP3    H169919   2.080   3.748  13.129 -1.0962  0.5038 -0.5541
16168TIP3    H269920   2.148   3.684  13.010 -2.1129  0.0432 -0.9012
16169TIP3   OH269921   5.973   1.143   6.631 -0.0153 -0.5581 -0.4154
16169TIP3    H169922   5.924   1.181   6.703  0.7405  1.6401 -0.9834
16169TIP3    H269923   5.954   1.049   6.635 -1.5580 -0.2124  1.3869
16170TIP3   OH269924   0.167   1.118   0.560  0.4946 -0.2070 -0.1261
16170TIP3    H169925   0.253   1.082   0.539  0.1515 -1.6952  0.9101
16170TIP3    H269926   0.183   1.212   0.572  1.2023  0.3806 -4.0606
16171TIP3   OH269927   5.466   0.416   5.154  0.1986  0.6143  0.0412
16171TIP3    H169928   5.406   0.354   5.114 -0.9247  0.5991  1.6388
16171TIP3    H269929   5.542   0.418   5.096 -0.6209 -0.6680 -1.1206
16172TIP3   OH269930   1.406   1.235  11.166 -0.1462 -0.1168 -0.1926
16172TIP3    H169931   1.430   1.298  11.097  1.4375 -0.3310  0.1427
16172TIP3    H269932   1.311   1.243  11.172 -0.4505 -0.5567 -2.8654
16173TIP3   OH269933   6.201   3.898   2.613 -0.2149  0.0879  0.3333
16173TIP3    H169934   6.249   3.916   2.694  0.3619 -0.4871  0.1243
16173TIP3    H269935   6.269   3.887   2.547 -0.6678  0.0470 -0.1290
16174TIP3   OH269936   2.743   3.928   4.576 -0.2643 -0.0414  0.4441
16174TIP3    H169937   2.790   3.945   4.495  1.1356  0.8603  1.3906
16174TIP3    H269938   2.654   3.906   4.549  0.4430 -0.8004 -1.3634
16175TIP3   OH269939   4.239   3.378  11.611  0.2473 -0.4051  0.2376
16175TIP3    H169940   4.302   3.417  11.550  0.2249 -1.3314 -0.4111
16175TIP3    H269941   4.288   3.310  11.656 -0.4437 -1.6752 -0.8391
16176TIP3   OH269942   4.527   6.454  13.399 -0.2245  0.1015  0.3201
16176TIP3    H169943   4.610   6.476  13.356 -0.3123  0.0036  0.1012
16176TIP3    H269944   4.542   6.367  13.437 -0.3810 -0.1294 -0.1317
16177TIP3   OH269945   1.939   4.370   0.226 -0.3397  0.6382 -0.2880
16177TIP3    H169946   1.879   4.363   0.152  1.1587  2.1157 -1.7176
16177TIP3    H269947   2.023   4.338   0.191  0.2240  0.6664  0.9963
16178TIP3   OH269948   2.808   3.502  16.935  0.3456  0.7925  0.1597
16178TIP3    H169949   2.767   3.423  16.900  0.6725  0.6093  0.1898
16178TIP3    H269950   2.817   3.560  16.859 -0.7352  1.1763  0.3005
16179TIP3   OH269951   3.075   1.017   2.830  0.8313 -0.0723 -0.2509
16179TIP3    H169952   3.059   1.103   2.791  1.4612  0.0728 -0.1961
16179TIP3    H269953   2.990   0.972   2.826  0.7247  0.2043 -1.1319
16180TIP3   OH269954   3.857   6.295   4.000  0.5377 -0.7140  0.0013
16180TIP3    H169955   3.902   6.223   3.955 -1.7315 -0.7946 -2.3441
16180TIP3    H269956   3.772   6.302   3.957  0.5197  3.2131  0.2485
16181TIP3   OH269957   5.554   5.413  13.062 -0.2059  0.3227 -0.2653
16181TIP3    H169958   5.601   5.369  12.992  0.5793  1.4275 -0.4551
16181TIP3    H269959   5.468   5.371  13.063 -0.3542  0.5046 -2.1238
16182TIP3   OH269960   6.011   1.907   5.436  0.1170 -0.3155 -0.3792
16182TIP3    H169961   6.032   1.834   5.378  1.0675 -0.4950  0.1742
16182TIP3    H269962   6.055   1.886   5.518 -0.8019  0.1791  0.2619
16183TIP3   OH269963   0.856   4.289  14.279 -0.3831 -0.1120 -0.6656
16183TIP3    H169964   0.878   4.365  14.225 -0.1971  0.5117  0.2754
16183TIP3    H269965   0.932   4.232  14.271 -0.6565 -0.3643 -1.6373
16184TIP3   OH269966   5.689   2.197   0.160  0.3365 -0.4003 -0.1883
16184TIP3    H169967   5.728   2.221   0.076  1.2307 -0.3784  0.2148
16184TIP3    H269968   5.597   2.222   0.152  0.2513 -1.0022 -1.3880
16185TIP3   OH269969   2.218   2.496   0.327  0.3710  0.3705  0.3140
16185TIP3    H169970   2.145   2.533   0.376 -1.1293 -1.1241 -0.6827
16185TIP3    H269971   2.226   2.406   0.361  0.9800  0.1449 -0.4068
16186TIP3   OH269972   3.735   3.395  16.835  0.4770 -0.7560 -0.6935
16186TIP3    H169973   3.764   3.368  16.748  2.2107  0.0368 -0.3921
16186TIP3    H269974   3.809   3.377  16.892 -0.4025 -0.6389  0.5136
16187TIP3   OH269975   0.459   4.329   3.820  0.3963 -0.7346 -0.4852
16187TIP3    H169976   0.402   4.360   3.750  1.0608 -0.5132 -0.9358
16187TIP3    H269977   0.412   4.350   3.901  0.0379 -0.1787 -0.8352
16188TIP3   OH269978   3.342   5.966  17.226  0.1389 -0.5721 -0.2470
16188TIP3    H169979   3.411   5.946  17.290 -0.8766 -1.9962  0.4585
16188TIP3    H269980   3.389   6.005  17.152  2.1056 -3.6267 -0.8115
16189TIP3   OH269981   5.563   3.636  10.370 -0.5061 -0.5174  0.6855
16189TIP3    H169982   5.516   3.591  10.300  1.7812 -0.7247 -0.8170
16189TIP3    H269983   5.501   3.702  10.402 -0.9452  1.0813 -3.0114
16190TIP3   OH269984   4.318   0.150   5.392 -0.2523 -0.1075 -0.1134
16190TIP3    H169985   4.295   0.126   5.302  1.9394 -1.5347 -0.3821
16190TIP3    H269986   4.390   0.091   5.415 -1.9358 -1.1060  3.3184
16191TIP3   OH269987   5.412   1.681  13.490  0.8512 -0.3978 -0.4182
16191TIP3    H169988   5.504   1.662  13.476  1.0587 -2.6979  2.7437
16191TIP3    H269989   5.411   1.737  13.568 -0.4252  1.4198 -1.6545
16192TIP3   OH269990   3.823   3.392  14.140 -0.1796  0.6896 -0.1452
16192TIP3    H169991   3.829   3.409  14.234 -2.4881 -0.2385  0.2358
16192TIP3    H269992   3.913   3.403  14.108  0.7733  0.4972  2.2494
16193TIP3   OH269993   2.282   5.182  14.246  0.8967  0.2853 -0.1927
16193TIP3    H169994   2.281   5.153  14.337  1.5550  0.6578 -0.0550
16193TIP3    H269995   2.321   5.109  14.198  2.9624  1.0423  0.2154
16194TIP3   OH269996   2.748   1.562   2.926  0.9266  0.5232 -0.4380
16194TIP3    H169997   2.713   1.513   3.000 -1.2318 -0.7802 -2.1667
16194TIP3    H269998   2.834   1.523   2.910 -0.0555 -1.6770 -0.7422
16195TIP3   OH269999   2.516   0.836   5.677 -0.2423 -0.0971  0.1432
16195TIP3    H170000   2.605   0.814   5.704  0.3628  1.7101 -0.2448
16195TIP3    H270001   2.489   0.906   5.737 -0.3212  1.3107 -1.4675
16196TIP3   OH270002   1.656   0.689   2.678  0.3410 -0.4667 -0.3863
16196TIP3    H170003   1.625   0.779   2.681 -1.4217 -0.9983  3.5959
16196TIP3    H270004   1.751   0.696   2.681  0.3230  1.2025 -2.2493
16197TIP3   OH270005   5.885   5.756   0.009 -0.0494  0.2197  0.2377
16197TIP3    H170006   5.805   5.767   0.059  0.2831  0.7801  0.6626
16197TIP3    H270007   5.859   5.774  -0.082 -0.7128 -1.0811  0.1496
16198TIP3   OH270008   1.175   4.526  10.774  0.3388  0.7912 -0.6258
16198TIP3    H170009   1.200   4.440  10.740 -1.3846  0.0668 -0.2114
16198TIP3    H270010   1.094   4.548  10.727  0.3898  1.8747 -0.2419
16199TIP3   OH270011   6.151   2.318  15.623 -0.0068  0.2321 -0.2594
16199TIP3    H170012   6.074   2.333  15.677 -0.6478 -1.2082 -0.7246
16199TIP3    H270013   6.158   2.223  15.617  2.6947  0.2424  1.0243
16200TIP3   OH270014   4.915   0.715  11.931  0.2942  0.1198 -0.3951
16200TIP3    H170015   5.000   0.677  11.953  0.6588  0.9199 -0.4147
16200TIP3    H270016   4.891   0.674  11.848  0.9069  0.2801 -0.6578
16201TIP3   OH270017   2.720   0.144   2.843 -0.1266 -0.1010 -0.7229
16201TIP3    H170018   2.793   0.138   2.782  0.2219 -0.8758 -0.2426
16201TIP3    H270019   2.722   0.062   2.892 -2.1929 -0.7756 -1.6536
16202TIP3   OH270020   3.052   5.072  12.063  0.4322 -0.2665 -0.1226
16202TIP3    H170021   3.047   5.145  12.124  1.3238 -0.4632  0.2052
16202TIP3    H270022   3.145   5.049  12.060 -0.0680 -2.9783  1.6946
16203TIP3   OH270023   3.391   3.958   5.681 -0.2492  0.1019  0.2765
16203TIP3    H170024   3.368   4.028   5.620 -1.3594 -0.0875  0.4670
16203TIP3    H270025   3.320   3.895   5.674  0.4134 -0.7101  0.5856
16204TIP3   OH270026   4.663   1.697  12.047  0.7129 -0.4464 -0.2592
16204TIP3    H170027   4.625   1.737  12.126 -0.2722 -1.4559 -0.1970
16204TIP3    H270028   4.699   1.614  12.078 -0.0386 -1.0310 -0.9428
16205TIP3   OH270029   0.901   0.891  16.413 -0.4188  0.5252 -0.9469
16205TIP3    H170030   0.866   0.844  16.338 -1.1965 -0.2176 -0.1439
16205TIP3    H270031   0.827   0.944  16.444  0.0782  1.3025 -1.0726
16206TIP3   OH270032   6.775   5.225  13.195  0.0906 -0.2358 -0.0694
16206TIP3    H170033   6.820   5.268  13.267  0.2350  0.7013 -0.7010
16206TIP3    H270034   6.836   5.158  13.165  0.1278 -0.4654  0.5128
16207TIP3   OH270035   3.193   0.796  14.982 -0.2820  0.4009 -0.6922
16207TIP3    H170036   3.262   0.781  14.917 -0.6997 -0.3561 -0.9688
16207TIP3    H270037   3.194   0.717  15.036  0.0046  0.9862  0.1827
16208TIP3   OH270038   2.094   4.520   2.180  0.2744 -0.2272 -0.3111
16208TIP3    H170039   2.115   4.583   2.112 -0.1300 -0.3840 -0.5871
16208TIP3    H270040   2.062   4.443   2.133 -1.6760  0.2789  0.0999
16209TIP3   OH270041   6.497   2.580  12.025  0.5664  0.1758  0.3159
16209TIP3    H170042   6.552   2.645  12.069 -0.8427  2.2002 -0.7093
16209TIP3    H270043   6.498   2.607  11.933 -1.3018 -0.2947  0.1214
16210TIP3   OH270044   1.198   2.568  16.999  0.1917 -0.3411 -0.1550
16210TIP3    H170045   1.189   2.640  16.937  1.1414 -0.2892 -0.2447
16210TIP3    H270046   1.284   2.580  17.038  0.8281 -2.0371 -0.9316
16211TIP3   OH270047   4.310   6.717   1.788  0.5434 -0.6664 -0.1849
16211TIP3    H170048   4.247   6.787   1.804 -0.3140 -1.8646  2.3066
16211TIP3    H270049   4.394   6.752   1.816  0.3261 -0.2503 -0.0519
16212TIP3   OH270050   3.265   1.971   4.971 -0.3115 -0.2670  0.1306
16212TIP3    H170051   3.352   1.983   5.008 -0.0031 -1.5438 -0.1353
16212TIP3    H270052   3.238   1.885   5.001 -1.3428 -0.0325 -0.0896
16213TIP3   OH270053   2.533   4.104   2.889 -0.0473  0.4433 -0.1500
16213TIP3    H170054   2.579   4.061   2.817 -0.5699  0.5205 -0.5353
16213TIP3    H270055   2.487   4.033   2.934  1.3669  0.1768  0.9650
16214TIP3   OH270056   6.733   2.162  11.675 -0.9211 -0.3544  0.2102
16214TIP3    H170057   6.746   2.110  11.595  0.5549  2.2049 -1.3583
16214TIP3    H270058   6.792   2.123  11.739 -0.4628 -1.1249 -0.6508
16215TIP3   OH270059   6.161   3.815  11.324 -0.1744 -0.1775 -0.1376
16215TIP3    H170060   6.094   3.747  11.328 -1.0477  0.6785  0.0232
16215TIP3    H270061   6.131   3.875  11.256 -0.0033  0.6478  0.4979
16216TIP3   OH270062   1.554   1.344   3.096 -0.3373  0.1619 -0.0292
16216TIP3    H170063   1.554   1.434   3.127 -0.1761  0.3597 -0.5955
16216TIP3    H270064   1.512   1.294   3.166 -2.7301  1.0261 -0.7401
16217TIP3   OH270065   5.277   4.051  12.638  0.3624 -0.6103  0.1912
16217TIP3    H170066   5.259   4.108  12.563  0.7883  0.5296  0.9326
16217TIP3    H270067   5.214   3.979  12.628  0.0442 -0.2049 -0.9557
16218TIP3   OH270068   1.210   1.031  12.409 -1.2813  0.0220  0.1640
16218TIP3    H170069   1.247   0.994  12.489 -2.6933  0.8114  1.2202
16218TIP3    H270070   1.137   1.086  12.439 -1.5567  0.7055 -1.6283
16219TIP3   OH270071   3.668   5.634   0.686  0.0815  0.1534 -0.1515
16219TIP3    H170072   3.733   5.599   0.748  1.4009 -1.2940 -2.2453
16219TIP3    H270073   3.715   5.705   0.641 -0.4991  0.4624 -0.2801
16220TIP3   OH270074   3.312   5.327  16.964  0.2195 -1.0323  0.1162
16220TIP3    H170075   3.378   5.286  17.021  0.2385  0.5026  1.2548
16220TIP3    H270076   3.253   5.372  17.025  0.5685  1.1594 -1.0834
16221TIP3   OH270077   6.578   2.300  12.056 -0.2330 -0.0523 -0.5336
16221TIP3    H170078   6.551   2.387  12.026  0.8839  0.7219  0.6598
16221TIP3    H270079   6.566   2.302  12.151  0.4608 -0.9731 -0.4152
16222TIP3   OH270080   3.452   5.230  13.124 -0.0666 -0.0667  0.8231
16222TIP3    H170081   3.501   5.219  13.043 -0.0117 -0.3091  0.8881
16222TIP3    H270082   3.363   5.200  13.103 -0.5412  1.5621  0.3424
16223TIP3   OH270083   6.181   3.359  13.568  0.2764  0.3732  0.8313
16223TIP3    H170084   6.142   3.404  13.494  0.3239 -1.2546 -0.2263
16223TIP3    H270085   6.240   3.294  13.529 -0.9777 -1.7107  2.1796
16224TIP3   OH270086   3.527   2.910  12.956 -0.5747  0.4515  0.3944
16224TIP3    H170087   3.447   2.939  12.913 -0.1497 -1.7373 -2.0821
16224TIP3    H270088   3.516   2.816  12.968  0.7731  0.4442  2.0345
16225TIP3   OH270089   4.685   0.464  13.041 -0.2333  0.6292  0.1725
16225TIP3    H170090   4.761   0.423  13.001 -1.0833 -0.3601 -0.4879
16225TIP3    H270091   4.671   0.415  13.122  0.8965  1.9898  1.2212
16226TIP3   OH270092   0.021   2.408   4.516 -0.0948  0.1025 -0.0994
16226TIP3    H170093  -0.013   2.494   4.541  0.7809  0.6284 -0.6547
16226TIP3    H270094   0.110   2.426   4.486  0.3381 -1.1082  0.4316
16227TIP3   OH270095   0.525   1.553   5.901 -0.3905  0.0082 -0.0919
16227TIP3    H170096   0.515   1.463   5.931  0.3408  0.1296  0.5412
16227TIP3    H270097   0.502   1.550   5.808 -1.3280 -0.6398  0.1428
16228TIP3   OH270098   5.627   2.536  15.341  0.6844 -0.4675 -0.7180
16228TIP3    H170099   5.670   2.551  15.425  1.6187 -0.9702 -1.0869
16228TIP3    H270100   5.689   2.569  15.276 -0.5831  1.1309 -1.1841
16229TIP3   OH270101   6.245   3.053   3.321  0.4581 -0.8430  0.1514
16229TIP3    H170102   6.241   3.108   3.243 -0.0106 -0.7807  0.2176
16229TIP3    H270103   6.184   3.093   3.382  1.4950 -0.3671  0.9019
16230TIP3   OH270104   2.775   0.375   3.320  0.1836  0.2124  0.4125
16230TIP3    H170105   2.824   0.314   3.375  1.0195 -0.2861 -0.8318
16230TIP3    H270106   2.695   0.393   3.369  0.4793 -0.9320  1.3602
16231TIP3   OH270107   3.944   6.090   0.533  0.3739 -0.2770 -0.6261
16231TIP3    H170108   3.964   6.009   0.486  2.3025  0.5912 -1.4080
16231TIP3    H270109   3.997   6.085   0.613  2.8428  1.4066 -2.0279
16232TIP3   OH270110   5.146   0.042  12.761 -0.2015  0.1334  0.5241
16232TIP3    H170111   5.131   0.092  12.841 -0.9631  1.1891 -0.2465
16232TIP3    H270112   5.060   0.006  12.739 -0.2655  0.8535 -0.4547
16233TIP3   OH270113   2.976   3.678   2.044 -0.6166 -0.0893  0.0156
16233TIP3    H170114   2.949   3.587   2.039 -1.6235  0.1726  0.3035
16233TIP3    H270115   3.005   3.699   1.955 -0.2597 -0.7187 -0.0214
16234TIP3   OH270116   4.087   1.446   5.337 -0.4442 -0.3237 -0.2284
16234TIP3    H170117   4.157   1.494   5.380 -1.0236 -1.0831  1.6590
16234TIP3    H270118   4.007   1.479   5.377 -1.0036 -1.1300 -0.6567
16235TIP3   OH270119   1.899   2.207  11.227  0.6670  0.1661  0.1436
16235TIP3    H170120   1.954   2.264  11.281  1.5268 -0.9587  0.5017
16235TIP3    H270121   1.910   2.241  11.138  1.5860  0.2595  0.2756
16236TIP3   OH270122   0.518   2.584   3.027 -0.1162 -0.0299 -0.5254
16236TIP3    H170123   0.497   2.654   3.089 -0.6195  0.2331 -0.9770
16236TIP3    H270124   0.598   2.615   2.983  0.9407 -0.7776  0.8154
16237TIP3   OH270125   0.106   3.899   0.144 -0.4454  0.5005 -0.1592
16237TIP3    H170126   0.067   3.888   0.231 -0.3528 -0.4210 -0.2226
16237TIP3    H270127   0.088   3.817   0.099  0.5620  0.4954 -0.5891
16238TIP3   OH270128   1.368   0.941  17.226 -0.1511  0.4546  0.1822
16238TIP3    H170129   1.382   0.854  17.189 -2.7293 -0.5880  1.4276
16238TIP3    H270130   1.343   0.995  17.151 -0.0810 -0.2806 -0.3826
16239TIP3   OH270131   4.651   0.196   5.276  0.0731 -0.2236  0.3017
16239TIP3    H170132   4.614   0.131   5.335  0.5454  1.2091  2.2647
16239TIP3    H270133   4.714   0.245   5.330 -2.7124  4.1435  0.0434
16240TIP3   OH270134   1.822   4.026  11.744  0.0803  0.0524  0.0119
16240TIP3    H170135   1.876   4.049  11.820 -0.3534  0.6174  0.1542
16240TIP3    H270136   1.807   3.932  11.752  1.2337 -0.1571 -0.1515
16241TIP3   OH270137   0.898   1.242   4.837 -0.6083  0.7053 -0.3397
16241TIP3    H170138   0.943   1.292   4.905  0.2782 -3.2184  2.3615
16241TIP3    H270139   0.805   1.263   4.849 -0.3605  1.0101  1.4035
16242TIP3   OH270140   1.895   5.281   4.030  0.2186  0.8432  0.1384
16242TIP3    H170141   1.881   5.345   4.100  1.3057  0.9189  0.3089
16242TIP3    H270142   1.861   5.323   3.952 -1.2913  0.6394  0.6614
16243TIP3   OH270143   6.433   2.199   0.669 -0.1012  0.4089  0.0538
16243TIP3    H170144   6.434   2.152   0.752 -0.0024 -1.2016 -0.8018
16243TIP3    H270145   6.340   2.206   0.646 -0.0650 -0.8629 -0.5777
16244TIP3   OH270146   4.043   4.209  14.643  0.4603  0.2131 -0.2410
16244TIP3    H170147   4.041   4.303  14.660  1.3997  0.7908 -2.8439
16244TIP3    H270148   3.960   4.191  14.599 -0.0575 -0.3840  0.9214
16245TIP3   OH270149   4.663   0.323  13.293  0.3835  0.1558  0.2951
16245TIP3    H170150   4.688   0.317  13.385  0.0735 -0.1257  0.3625
16245TIP3    H270151   4.657   0.233  13.263 -0.9794  0.1832  0.4079
16246TIP3   OH270152   5.086   2.685   3.540  0.2253  0.4562  0.2082
16246TIP3    H170153   5.114   2.764   3.493  0.7147  1.2378  1.7537
16246TIP3    H270154   4.999   2.666   3.505  0.7751  0.6782 -1.3857
16247TIP3   OH270155   2.656   2.467   5.982  0.0623 -0.0531 -0.1151
16247TIP3    H170156   2.643   2.478   6.076 -1.2066 -1.9283 -0.0129
16247TIP3    H270157   2.729   2.525   5.960  0.1389  0.6871  1.9427
16248TIP3   OH270158   3.549   1.194  16.306  0.5195  0.1680 -0.0437
16248TIP3    H170159   3.625   1.164  16.355  1.1781 -0.7292 -1.5185
16248TIP3    H270160   3.582   1.264  16.250 -0.1881  1.1022  0.6935
16249TIP3   OH270161   0.490   2.953  14.243 -0.0228  0.3521 -0.6438
16249TIP3    H170162   0.509   2.956  14.337  0.6350  0.8032 -0.7868
16249TIP3    H270163   0.404   2.994  14.234  0.3657  1.2530 -0.3549
16250TIP3   OH270164   2.214   0.300  13.457  0.0620  0.6726 -0.5412
16250TIP3    H170165   2.206   0.257  13.372  2.4010 -1.0924  0.0352
16250TIP3    H270166   2.253   0.234  13.514 -2.2413  1.4859  2.2167
16251TIP3   OH270167   2.527   0.704   1.729  0.3410 -0.7841  0.8161
16251TIP3    H170168   2.594   0.676   1.666  0.0472 -0.2532  0.2514
16251TIP3    H270169   2.470   0.628   1.739  0.7558 -1.0805  0.9244
16252TIP3   OH270170   3.788   2.127   0.887 -0.0196 -0.2445 -0.3995
16252TIP3    H170171   3.813   2.219   0.883 -1.2980  0.1501  0.3708
16252TIP3    H270172   3.695   2.127   0.910  0.0331 -1.7316 -0.0330
16253TIP3   OH270173   3.408   2.605   4.675  0.5513 -0.1500  1.2476
16253TIP3    H170174   3.380   2.696   4.670  1.1446  0.1453  2.7605
16253TIP3    H270175   3.427   2.581   4.585  3.8273  2.3503  1.0972
16254TIP3   OH270176   0.801   1.225  14.609 -0.2492  0.1946  0.6893
16254TIP3    H170177   0.833   1.144  14.650 -0.1639 -0.2217 -0.1709
16254TIP3    H270178   0.874   1.286  14.617 -0.2135  0.1028  1.1013
16255TIP3   OH270179   4.270   3.580   2.045  0.5467 -0.4217  0.1809
16255TIP3    H170180   4.290   3.493   2.011  3.6038  0.3462 -0.2458
16255TIP3    H270181   4.349   3.631   2.030 -1.4592  2.7879 -0.5411
16256TIP3   OH270182   4.122   5.193   3.168  0.2924 -1.3146  0.2997
16256TIP3    H170183   4.142   5.170   3.077  1.0174 -0.4665  0.2347
16256TIP3    H270184   4.041   5.245   3.161  1.2747  0.2355 -0.0732
16257TIP3   OH270185   6.548   0.111   3.753  0.4316  0.8257  0.1086
16257TIP3    H170186   6.483   0.181   3.746  0.2967  1.1172  2.9338
16257TIP3    H270187   6.499   0.036   3.787  0.9170 -0.1106 -1.1892
16258TIP3   OH270188   1.888   0.193   2.047 -0.0410 -0.0191  0.4561
16258TIP3    H170189   1.905   0.286   2.062 -3.1462  0.6917  0.2902
16258TIP3    H270190   1.841   0.190   1.963 -1.6034 -1.4804  1.3146
16259TIP3   OH270191   3.135   2.009  16.809  0.1915  0.6046  0.3185
16259TIP3    H170192   3.065   2.038  16.867  0.8049  1.5399  0.6108
16259TIP3    H270193   3.090   1.979  16.730 -0.4819  2.4462 -0.0419
16260TIP3   OH270194   4.621   6.485   5.702  0.0609 -0.0170  0.1334
16260TIP3    H170195   4.690   6.425   5.674  1.8884  2.3386 -0.7907
16260TIP3    H270196   4.548   6.467   5.643  1.2040 -0.2048 -1.2932
16261TIP3   OH270197   3.804   0.943  14.185 -0.5242 -0.0406  0.2079
16261TIP3    H170198   3.802   0.934  14.090 -0.2017 -1.4047  0.3141
16261TIP3    H270199   3.779   1.035  14.201 -1.3927 -0.0124 -1.1437
16262TIP3   OH270200   5.794   0.302  13.128 -0.4944  0.2698 -0.2837
16262TIP3    H170201   5.739   0.318  13.204  1.7919 -0.0466  1.5629
16262TIP3    H270202   5.871   0.358  13.142 -0.1278  0.4068 -2.5232
16263TIP3   OH270203   0.272   5.794   3.101 -0.2263  0.4292 -0.2134
16263TIP3    H170204   0.219   5.828   3.173 -0.9083  0.2868 -0.6449
16263TIP3    H270205   0.304   5.709   3.132 -1.6072 -0.2435 -0.5755
16264TIP3   OH270206   2.477   2.892   0.683 -0.4309 -0.2066 -0.6067
16264TIP3    H170207   2.443   2.973   0.645 -0.1112 -0.2424 -0.9767
16264TIP3    H270208   2.531   2.921   0.756 -3.7327 -0.2451  2.1149
16265TIP3   OH270209   0.361   3.321  15.162 -0.3138  0.0859  0.0558
16265TIP3    H170210   0.288   3.272  15.124 -0.6290 -0.5264  1.3760
16265TIP3    H270211   0.434   3.306  15.103 -1.7649  2.6516 -2.6620
16266TIP3   OH270212   2.394   0.287   1.572  0.2077 -0.1450  0.1527
16266TIP3    H170213   2.445   0.206   1.568 -0.4038 -0.5227 -0.1181
16266TIP3    H270214   2.381   0.312   1.481  1.1420  0.7498  0.2459
16267TIP3   OH270215   1.604   6.608  15.540  0.3690  0.3472 -0.5706
16267TIP3    H170216   1.539   6.622  15.609 -1.3559 -2.7806 -1.3969
16267TIP3    H270217   1.688   6.607  15.586 -0.7446 -2.0500  1.6547
16268TIP3   OH270218   2.637   1.319   1.795 -0.3836 -0.1316  0.5076
16268TIP3    H170219   2.552   1.343   1.833 -1.0282  0.3132 -1.0988
16268TIP3    H270220   2.624   1.229   1.765  0.8301 -1.3125  3.1766
16269TIP3   OH270221   0.808   6.509  11.787  0.1027 -0.0131 -0.1381
16269TIP3    H170222   0.903   6.522  11.794 -0.0996  1.4825  0.1209
16269TIP3    H270223   0.789   6.438  11.848  0.8568  0.6416  0.8880
16270TIP3   OH270224   0.133   4.755  11.126  0.2300  0.0121  0.3250
16270TIP3    H170225   0.118   4.790  11.038 -1.3368 -1.3508  0.0092
16270TIP3    H270226   0.223   4.721  11.123 -0.0830 -0.7675 -1.0343
16271TIP3   OH270227   3.824   2.444   0.489 -0.2267 -0.3632  0.1516
16271TIP3    H170228   3.775   2.432   0.407 -2.4080  0.6188  1.2152
16271TIP3    H270229   3.872   2.526   0.476 -1.1831  0.2099  0.0996
16272TIP3   OH270230   4.942   2.380  13.455  0.5154 -0.1219 -0.1457
16272TIP3    H170231   4.911   2.470  13.470  0.0318 -0.3338  0.1627
16272TIP3    H270232   4.995   2.361  13.532  2.4200  0.6503 -1.2059
16273TIP3   OH270233   5.276   2.790  14.242 -0.4641  0.0738 -0.6483
16273TIP3    H170234   5.336   2.860  14.266  1.8261 -1.7703 -0.6953
16273TIP3    H270235   5.198   2.835  14.208  1.1185  2.5533 -1.1788
16274TIP3   OH270236   0.980   0.248  14.367  0.0266 -0.4810  0.0890
16274TIP3    H170237   1.075   0.248  14.365  0.0667 -0.8479  1.1929
16274TIP3    H270238   0.954   0.225  14.278  0.9274  1.1712 -0.6360
16275TIP3   OH270239   4.993   2.136  11.501 -0.0100 -0.0233  0.1342
16275TIP3    H170240   4.979   2.148  11.594  1.3515  0.9360  0.2576
16275TIP3    H270241   5.059   2.202  11.478 -2.3920  1.7834 -2.1022
16276TIP3   OH270242   2.045   3.296  14.034 -0.3773  0.5790 -0.1941
16276TIP3    H170243   2.031   3.327  14.124  1.1814  0.5573  0.0813
16276TIP3    H270244   2.020   3.370  13.979 -0.2512  1.0015  0.3087
16277TIP3   OH270245   3.795   5.786  14.004  0.4811  0.8430 -0.5653
16277TIP3    H170246   3.782   5.703  13.958  1.7269  0.7733 -0.8318
16277TIP3    H270247   3.709   5.828  14.004 -0.0735 -0.2666 -0.7827
16278TIP3   OH270248   3.543   3.612   4.316  0.0230  0.0500  0.4733
16278TIP3    H170249   3.562   3.545   4.250  1.1323  0.7538  0.0459
16278TIP3    H270250   3.627   3.628   4.359  0.3923  2.7188 -0.9632
16279TIP3   OH270251   3.246   2.309   0.711 -0.1254 -0.0694  0.1769
16279TIP3    H170252   3.196   2.355   0.779  1.8878 -1.5732  2.8845
16279TIP3    H270253   3.233   2.216   0.732 -0.4190 -0.6516 -2.3456
16280TIP3   OH270254   3.938   5.099  12.343 -0.2871  0.5915 -0.6882
16280TIP3    H170255   3.977   5.175  12.387  0.3657 -0.4442  0.5900
16280TIP3    H270256   3.989   5.088  12.263  1.8412 -0.4615  0.7251
16281TIP3   OH270257   2.248   0.376   4.339 -0.8536  0.0514 -0.3214
16281TIP3    H170258   2.269   0.439   4.270 -0.9922  1.3994  0.8506
16281TIP3    H270259   2.276   0.292   4.302 -2.1193  0.5222 -2.5529
16282TIP3   OH270260   1.233   6.473  14.615 -0.1272  0.4525  0.1477
16282TIP3    H170261   1.209   6.381  14.619 -0.0474  0.4476  0.6918
16282TIP3    H270262   1.157   6.520  14.649 -0.3899  0.6349 -0.6679
16283TIP3   OH270263   1.997   5.506   3.221 -0.7276  0.0569 -0.5582
16283TIP3    H170264   2.051   5.475   3.294 -2.8353 -1.6736  0.3808
16283TIP3    H270265   2.019   5.598   3.213  1.1186 -0.1836  0.8487
16284TIP3   OH270266   4.945   4.673  12.527  0.0233  0.2603  0.1400
16284TIP3    H170267   4.937   4.672  12.623 -0.9365 -1.8983  0.1100
16284TIP3    H270268   4.894   4.596  12.499  1.1988  0.2170 -2.0308
16285TIP3   OH270269   1.064   2.740   0.935 -0.1012 -0.2653 -0.2786
16285TIP3    H170270   1.016   2.672   0.889  0.1039 -0.4522 -0.2169
16285TIP3    H270271   1.085   2.702   1.020 -0.2623 -0.0105 -0.1185
16286TIP3   OH270272   0.068   3.377   3.791 -0.3728 -0.3940  0.3219
16286TIP3    H170273   0.018   3.295   3.788 -0.4459 -0.4161  1.5492
16286TIP3    H270274   0.081   3.400   3.699  0.5169 -2.2884 -0.0783
16287TIP3   OH270275   1.159   1.896   4.414  0.3137  0.5773 -0.3173
16287TIP3    H170276   1.188   1.931   4.498 -1.9314  0.4121  0.5801
16287TIP3    H270277   1.192   1.960   4.350  2.6630  0.3497  0.5444
16288TIP3   OH270278   6.223   1.054  14.847 -0.1588 -0.3543 -0.2065
16288TIP3    H170279   6.279   0.992  14.801 -0.8748 -1.0583 -0.1407
16288TIP3    H270280   6.200   1.010  14.929  0.4236  0.5496  0.4598
16289TIP3   OH270281   6.400   4.461  11.640  0.1449 -0.7907  0.5043
16289TIP3    H170282   6.460   4.401  11.596  1.6515 -0.2208  1.6985
16289TIP3    H270283   6.363   4.410  11.712 -1.7706 -1.4991 -0.8871
16290TIP3   OH270284   6.133   3.677  16.591 -0.1289  0.1170  0.3583
16290TIP3    H170285   6.139   3.615  16.518  0.9249 -1.2839  1.5693
16290TIP3    H270286   6.178   3.633  16.663 -0.6548  1.6933  1.7024
16291TIP3   OH270287   5.472   5.307  13.640 -0.2335  0.1725 -0.2911
16291TIP3    H170288   5.405   5.271  13.582 -0.8035  1.0537 -0.1916
16291TIP3    H270289   5.542   5.336  13.581 -0.1774 -0.2379 -0.4300
16292TIP3   OH270290   6.001   5.442   3.064 -0.3221  0.4249 -0.4571
16292TIP3    H170291   5.978   5.400   2.982 -1.5981 -0.3476  0.2623
16292TIP3    H270292   5.962   5.387   3.132  0.8833  0.9056  0.6981
16293TIP3   OH270293   6.146   2.460   0.915 -0.1971  0.0311 -0.2388
16293TIP3    H170294   6.100   2.390   0.868 -0.4221 -0.9750  1.3821
16293TIP3    H270295   6.085   2.533   0.915 -0.7911 -0.4513 -0.2773
16294TIP3   OH270296   5.462   0.652  14.663 -0.3099  0.4991 -0.8408
16294TIP3    H170297   5.442   0.623  14.574  0.0159  0.3903 -0.8794
16294TIP3    H270298   5.453   0.573  14.716 -0.7468  0.6151 -0.7354
16295TIP3   OH270299   5.079   5.476  12.041 -0.0134 -0.2274 -0.2000
16295TIP3    H170300   5.118   5.543  12.098 -0.6677  0.1696 -0.2088
16295TIP3    H270301   5.132   5.479  11.961  2.3236 -2.2828  1.1069
16296TIP3   OH270302   6.278   0.946  13.854  0.0232  0.1180  0.3173
16296TIP3    H170303   6.192   0.923  13.819  0.1942 -0.5499  0.3368
16296TIP3    H270304   6.258   0.990  13.937 -0.4219  2.3136 -0.8716
16297TIP3   OH270305   3.495   0.364  13.534 -0.1476  0.2516 -0.3052
16297TIP3    H170306   3.446   0.371  13.616 -1.9485 -0.6478 -1.2404
16297TIP3    H270307   3.469   0.441  13.484 -0.5509 -0.1779 -0.7683
16298TIP3   OH270308   0.519   1.704   2.178 -0.0742 -0.1170  0.1451
16298TIP3    H170309   0.525   1.664   2.092 -0.1659 -1.7104  0.8473
16298TIP3    H270310   0.432   1.745   2.179 -0.7299 -1.4496  0.0211
16299TIP3   OH270311   5.908   0.811   5.068  0.1997 -0.3918 -0.3757
16299TIP3    H170312   5.849   0.736   5.076 -0.2853  0.0503  0.4334
16299TIP3    H270313   5.899   0.839   4.977 -1.1955 -0.0703 -0.1712
16300TIP3   OH270314   6.532   4.832   6.709  0.0551 -0.1360  0.1139
16300TIP3    H170315   6.598   4.882   6.660  0.7751 -0.2265  0.9688
16300TIP3    H270316   6.523   4.879   6.792 -1.1296 -0.0019 -0.0659
16301TIP3   OH270317   5.324   0.250   1.109  0.3276  0.0810  0.2847
16301TIP3    H170318   5.316   0.318   1.176  0.3423  0.3725 -0.0044
16301TIP3    H270319   5.281   0.287   1.032  2.6811  0.9261 -0.7322
16302TIP3   OH270320   3.560   3.976  13.484  0.5830  0.3190 -0.0047
16302TIP3    H170321   3.504   4.031  13.540 -1.8014 -1.9036 -0.0214
16302TIP3    H270322   3.553   3.888  13.522  2.1567 -0.4920 -1.4695
16303TIP3   OH270323   1.289   1.020  15.485 -0.9305  0.1007  0.6538
16303TIP3    H170324   1.371   1.033  15.533 -1.1639  0.4506  0.9611
16303TIP3    H270325   1.249   0.943  15.526  0.0684 -1.1839 -0.6438
16304TIP3   OH270326   2.029   1.254  13.239  0.0956 -0.1356  0.7423
16304TIP3    H170327   1.972   1.289  13.171  1.1330 -0.2002 -0.1860
16304TIP3    H270328   2.118   1.272  13.208  0.6434 -2.2063  0.9332
16305TIP3   OH270329   3.537   0.328   3.694  0.8431  0.1077  0.1055
16305TIP3    H170330   3.612   0.387   3.685  1.7102 -0.5288  2.4810
16305TIP3    H270331   3.553   0.280   3.775 -1.1202 -1.5694 -0.4054
16306TIP3   OH270332   4.521   4.038   0.873 -0.2787  0.2016  0.1648
16306TIP3    H170333   4.548   3.946   0.879 -2.1578 -0.3035  2.1080
16306TIP3    H270334   4.594   4.087   0.911  0.6221 -0.4776 -0.6186
16307TIP3   OH270335   1.863   3.015  12.391 -0.3508  0.2158 -0.2705
16307TIP3    H170336   1.878   2.970  12.474  1.1605 -3.5034 -2.2984
16307TIP3    H270337   1.770   2.999  12.372 -0.6322  0.8408  0.5371
16308TIP3   OH270338   4.892   4.513  14.370  0.1529  0.2569 -0.2626
16308TIP3    H170339   4.958   4.561  14.322  0.3642 -1.3338 -1.6655
16308TIP3    H270340   4.937   4.434  14.401 -0.8117 -0.3525 -0.3627
16309TIP3   OH270341   4.358   4.940   5.314 -0.6106 -0.0956 -0.1988
16309TIP3    H170342   4.313   4.857   5.294 -0.4633  0.2472 -2.1176
16309TIP3    H270343   4.317   5.004   5.256 -0.4811  1.1178  1.0208
16310TIP3   OH270344   5.003   5.793   1.521  0.1728  0.2870  0.1413
16310TIP3    H170345   5.020   5.864   1.584  2.4348  0.4268 -0.5206
16310TIP3    H270346   5.003   5.836   1.436 -0.2687 -0.2707 -0.1447
16311TIP3   OH270347   0.762   5.902   5.327 -0.4653 -0.2953  0.7376
16311TIP3    H170348   0.827   5.883   5.394  0.4006  3.9674  1.3832
16311TIP3    H270349   0.791   5.853   5.250  0.8626 -2.0588  2.2776
16312TIP3   OH270350   2.442   5.302   1.031 -0.1275  0.1837  0.9604
16312TIP3    H170351   2.463   5.209   1.039 -3.4496 -0.6895  0.8176
16312TIP3    H270352   2.480   5.328   0.948 -1.9955 -2.0318 -0.7284
16313TIP3   OH270353   2.088   5.580   2.376  0.2446  0.1626  0.1495
16313TIP3    H170354   2.066   5.487   2.382  1.2503 -0.1449 -0.6379
16313TIP3    H270355   2.037   5.621   2.445 -2.1339 -0.6084 -1.0293
16314TIP3   OH270356   5.229   4.684   0.704 -0.3658 -0.3705  0.3273
16314TIP3    H170357   5.134   4.682   0.714 -0.5669  1.9798 -0.5037
16314TIP3    H270358   5.244   4.750   0.636  1.9181  0.2273  1.3454
16315TIP3   OH270359   5.110   4.945   1.977 -0.6677 -0.4765  0.0354
16315TIP3    H170360   5.100   4.875   2.042 -0.5684  0.3484  0.9631
16315TIP3    H270361   5.169   5.008   2.018 -2.1857  1.0420 -0.0185
16316TIP3   OH270362   2.601   6.036   0.221 -0.1507 -0.1189 -0.2138
16316TIP3    H170363   2.667   5.988   0.171 -1.3991 -1.8017 -0.3326
16316TIP3    H270364   2.573   5.974   0.289 -1.3580  0.6771  0.0373
16317TIP3   OH270365   2.704   0.989  15.993  0.0249 -0.1903  0.0935
16317TIP3    H170366   2.707   0.895  15.972  1.2086 -0.2315  0.3994
16317TIP3    H270367   2.612   1.006  16.011 -0.5020 -0.9285 -1.6134
16318TIP3   OH270368   3.198   5.581  14.958  0.6441 -0.0569  0.4450
16318TIP3    H170369   3.145   5.594  14.880  0.3842 -1.0584  0.4347
16318TIP3    H270370   3.277   5.633  14.943 -0.1814  1.1871  0.3150
16319TIP3   OH270371   4.720   2.777  13.100  0.0228 -0.2422  0.3872
16319TIP3    H170372   4.803   2.733  13.120  0.5637 -0.0669 -1.2887
16319TIP3    H270373   4.726   2.796  13.006 -0.9681  1.8035  0.6942
16320TIP3   OH270374   1.644   4.113   2.537 -0.3772  0.0617 -0.9163
16320TIP3    H170375   1.575   4.179   2.549  0.3383  0.9648 -1.6368
16320TIP3    H270376   1.688   4.139   2.457  3.4032  1.9785  1.4699
16321TIP3   OH270377   4.960   2.402  15.147  0.6392  0.0356 -0.4137
16321TIP3    H170378   4.964   2.487  15.104  0.8331 -0.2725 -1.0139
16321TIP3    H270379   4.984   2.339  15.079 -1.3570 -0.6900 -0.5298
16322TIP3   OH270380   5.478   0.366  11.794 -0.4181 -0.3360 -0.3021
16322TIP3    H170381   5.451   0.392  11.882 -0.6148  0.0076 -0.4602
16322TIP3    H270382   5.552   0.307  11.808 -0.7784 -0.6996  0.1101
16323TIP3   OH270383   2.046   1.849   3.193  0.4110 -0.2634  0.2978
16323TIP3    H170384   2.004   1.933   3.213  1.5397  0.7828 -1.4856
16323TIP3    H270385   2.138   1.870   3.176  1.2104 -2.1739  1.8248
16324TIP3   OH270386   5.195   3.892  11.274 -0.2883 -0.9312  0.0285
16324TIP3    H170387   5.283   3.900  11.313  0.0355  2.2234 -1.0100
16324TIP3    H270388   5.204   3.823  11.209  1.5142 -0.5860 -0.1532
16325TIP3   OH270389   4.686   2.731   5.760 -0.3817  0.2927  0.5000
16325TIP3    H170390   4.661   2.643   5.785  0.0507 -1.0069 -3.0783
16325TIP3    H270391   4.610   2.766   5.714  0.1227  1.0330  0.2058
16326TIP3   OH270392   2.208   5.701   0.456 -0.0001  0.3514  0.1737
16326TIP3    H170393   2.271   5.674   0.389 -0.0143  0.4546  0.1184
16326TIP3    H270394   2.190   5.793   0.436 -0.2264  0.3007  0.1441
16327TIP3   OH270395   4.456   5.938   0.030 -0.5525  0.6390  0.5218
16327TIP3    H170396   4.435   5.883  -0.046  0.0327  0.2417  0.6321
16327TIP3    H270397   4.495   6.017  -0.007  0.3294  0.1748  0.4086
16328TIP3   OH270398   3.032   3.448  15.894  0.2344  0.2148  0.3501
16328TIP3    H170399   2.997   3.534  15.872  0.2552  0.3776  0.9586
16328TIP3    H270400   3.051   3.408  15.809  0.1481  0.7760  0.0633
16329TIP3   OH270401   0.932   4.581  13.005 -0.0845  0.5273  0.0971
16329TIP3    H170402   1.016   4.554  12.969  0.0177  3.6040 -2.4154
16329TIP3    H270403   0.867   4.528  12.957  0.2846 -0.6213  0.8165
16330TIP3   OH270404   5.634   2.423   5.954 -0.0884  0.0513  0.3550
16330TIP3    H170405   5.728   2.429   5.940  0.4574 -1.0889  2.8969
16330TIP3    H270406   5.614   2.494   6.015 -1.1450  1.0144 -1.0354
16331TIP3   OH270407   2.394   2.733  13.532  0.5960 -0.0119  0.1919
16331TIP3    H170408   2.339   2.774  13.598 -0.9138  0.7992 -1.4714
16331TIP3    H270409   2.333   2.711  13.461  2.0346 -1.4563 -0.6594
16332TIP3   OH270410   5.138   0.075  14.167 -0.3473  0.7981 -0.8529
16332TIP3    H170411   5.203   0.084  14.098  0.6154 -1.2104 -0.2657
16332TIP3    H270412   5.059   0.045  14.121  0.5255 -1.3795 -1.0810
16333TIP3   OH270413   0.114   4.838  16.816  0.1640  0.3757 -0.3695
16333TIP3    H170414   0.093   4.775  16.885 -0.3847  0.6523 -0.2787
16333TIP3    H270415   0.095   4.791  16.735  1.1106 -0.0601 -0.3557
16334TIP3   OH270416   1.138   6.083  13.687 -0.3635  0.0798 -0.1102
16334TIP3    H170417   1.184   6.053  13.765  0.6855  0.3910 -0.5933
16334TIP3    H270418   1.105   6.003  13.647  0.6602 -0.2643 -0.3029
16335TIP3   OH270419   6.180   6.020  12.577 -0.5716  0.7584  0.3569
16335TIP3    H170420   6.100   5.981  12.613 -0.8406 -0.2415 -1.2437
16335TIP3    H270421   6.198   6.094  12.635 -2.6250  0.9706  0.8038
16336TIP3   OH270422   4.897   1.045  14.203  0.0165  0.1547 -0.1899
16336TIP3    H170423   4.812   1.045  14.249 -0.2535 -1.1840 -0.6529
16336TIP3    H270424   4.961   1.060  14.272 -0.4379 -1.1421  0.5479
16337TIP3   OH270425   2.068   3.475   0.291 -0.4220 -0.2480  0.5794
16337TIP3    H170426   1.990   3.530   0.293  0.4442  1.1101 -0.6036
16337TIP3    H270427   2.114   3.501   0.211  1.4846 -0.6653  1.4717
16338TIP3   OH270428   1.308   2.962   5.405 -0.0728  0.0069  0.1457
16338TIP3    H170429   1.403   2.974   5.405  0.1416 -1.4301  0.6193
16338TIP3    H270430   1.275   3.026   5.342  1.1725  0.7355  0.2057
16339TIP3   OH270431   2.873   5.773   0.864  0.2868  0.5656  0.1268
16339TIP3    H170432   2.862   5.740   0.775  0.4931  0.2721  0.2079
16339TIP3    H270433   2.790   5.815   0.885 -1.4204 -3.0509  1.3624
16340TIP3   OH270434   4.058   1.687   0.323  0.2994  0.2829  0.6264
16340TIP3    H170435   4.144   1.680   0.283  1.0832  1.0258  2.0978
16340TIP3    H270436   4.014   1.756   0.274 -0.8009 -2.2741 -2.3207
16341TIP3   OH270437   3.637   0.965  10.680  0.1639 -0.2138  0.5450
16341TIP3    H170438   3.577   0.981  10.753  1.5519 -2.6767  2.3723
16341TIP3    H270439   3.580   0.952  10.604 -1.4977 -0.4332  1.7847
16342TIP3   OH270440   3.325   1.552  14.533 -0.3460 -0.5453 -0.0555
16342TIP3    H170441   3.260   1.486  14.511 -2.7337  1.1043  1.5183
16342TIP3    H270442   3.333   1.606  14.454  1.3379 -2.3529 -1.2137
16343TIP3   OH270443   5.106   0.269  13.592  0.5755  0.1162  0.0337
16343TIP3    H170444   5.106   0.351  13.543 -3.5793  0.2361 -0.1165
16343TIP3    H270445   5.066   0.206  13.532 -2.2845 -0.3505  2.2544
16344TIP3   OH270446   6.197   2.307  14.671 -0.4098 -0.2617  0.4413
16344TIP3    H170447   6.257   2.275  14.602  0.2889  0.3235  0.7665
16344TIP3    H270448   6.180   2.398  14.647 -0.3706 -0.1332  0.8979
16345TIP3   OH270449   4.683   1.896   2.746 -0.0473 -0.6703 -0.1162
16345TIP3    H170450   4.665   1.969   2.688 -0.9503 -1.6322 -1.0874
16345TIP3    H270451   4.770   1.914   2.782  0.1267  0.4019 -1.0447
16346TIP3   OH270452   6.072   1.004   0.185  0.8869  0.3565 -0.5304
16346TIP3    H170453   6.159   0.965   0.189  0.8697  0.0740 -2.0659
16346TIP3    H270454   6.045   0.992   0.094 -0.7818  0.4105 -0.0713
16347TIP3   OH270455   2.479   6.003  13.329  0.4716  0.1363 -0.5071
16347TIP3    H170456   2.469   6.004  13.424  0.9576  0.0468 -0.4503
16347TIP3    H270457   2.399   5.963  13.296  0.2230  0.3392 -0.1450
16348TIP3   OH270458   2.437   2.848   2.633  0.1479  0.6305  0.8356
16348TIP3    H170459   2.463   2.891   2.714  1.2067  1.7488 -0.0538
16348TIP3    H270460   2.519   2.820   2.593 -0.4835 -1.8570  1.1423
16349TIP3   OH270461   4.990   1.112   5.851  0.6243 -0.4292  0.3229
16349TIP3    H170462   5.075   1.097   5.809  0.6225 -1.8260  0.7813
16349TIP3    H270463   5.004   1.087   5.942 -0.3578 -1.0008  0.3304
16350TIP3   OH270464   1.909   5.844   5.579 -0.0333  0.2135 -1.2006
16350TIP3    H170465   1.991   5.889   5.598 -0.5303  0.5943  0.1756
16350TIP3    H270466   1.842   5.899   5.620 -0.7964 -0.9961 -0.7818
16351TIP3   OH270467   4.427   5.470  14.677  0.0197 -0.0528 -0.2829
16351TIP3    H170468   4.406   5.388  14.632 -0.5121  0.6238 -1.3241
16351TIP3    H270469   4.510   5.497  14.639  1.6343 -1.4326  2.0048
16352TIP3   OH270470   4.881   4.377   2.718  0.4048 -0.6890  0.7680
16352TIP3    H170471   4.908   4.416   2.635  0.6015  0.5097  1.3815
16352TIP3    H270472   4.914   4.287   2.713 -0.6175 -1.0205 -0.9413
16353TIP3   OH270473   1.918   5.412  15.854  0.0782  0.4610 -0.1604
16353TIP3    H170474   1.945   5.490  15.807 -1.3812  1.1617  0.1001
16353TIP3    H270475   2.000   5.371  15.883  0.8789  1.5504 -0.8308
16354TIP3   OH270476   3.529   1.356   4.055 -0.2267  0.2855  0.3400
16354TIP3    H170477   3.434   1.339   4.049 -0.3252  0.5002  1.2139
16354TIP3    H270478   3.561   1.341   3.966 -1.1580  0.6757 -0.0763
16355TIP3   OH270479   6.136   2.430  13.628 -0.2790 -0.0023 -0.2183
16355TIP3    H170480   6.045   2.420  13.654 -0.1463 -0.9466 -0.0806
16355TIP3    H270481   6.138   2.402  13.537 -0.3279  1.1077 -0.5656
16356TIP3   OH270482   3.948   6.629   1.719 -0.1360  0.2842 -0.6902
16356TIP3    H170483   3.880   6.630   1.653  0.6190 -0.5876 -1.5044
16356TIP3    H270484   3.908   6.586   1.795 -0.6505  0.2721 -0.9672
16357TIP3   OH270485   5.920   4.073   3.657 -0.4961 -0.3613  0.2269
16357TIP3    H170486   5.850   4.057   3.594 -0.5193 -0.6440  0.3222
16357TIP3    H270487   5.945   3.986   3.688 -0.3263 -0.2400  0.4355
16358TIP3   OH270488   3.154   6.710  13.748 -0.3237 -0.0580 -0.1574
16358TIP3    H170489   3.220   6.720  13.680 -0.1974 -2.0557 -0.3946
16358TIP3    H270490   3.200   6.732  13.829  0.2720 -0.1692 -0.4590
16359TIP3   OH270491   5.090   6.031  15.343 -0.3505 -0.0291  0.2066
16359TIP3    H170492   5.025   6.094  15.312  0.9800  0.7794 -1.0934
16359TIP3    H270493   5.174   6.075  15.330  0.6271 -2.0504 -0.7530
16360TIP3   OH270494   4.481   1.530   5.123 -0.2129  0.0573 -0.3883
16360TIP3    H170495   4.528   1.510   5.042 -1.2242  1.1530 -1.2896
16360TIP3    H270496   4.389   1.510   5.103 -0.5553  0.8988  0.2784
16361TIP3   OH270497   3.627   3.557  15.365  0.4011  0.0032 -0.2266
16361TIP3    H170498   3.721   3.562  15.348  0.4995 -2.8901 -1.2126
16361TIP3    H270499   3.617   3.579  15.457  2.0468  0.4588 -0.1349
16362TIP3   OH270500   0.865   4.228  11.159 -0.0676  0.5294  0.3398
16362TIP3    H170501   0.910   4.233  11.075  2.6523  2.2028  1.7516
16362TIP3    H270502   0.904   4.152  11.202 -1.9095 -0.7129 -0.0745
16363TIP3   OH270503   3.021   5.875   6.407 -0.0758 -0.2048 -0.2676
16363TIP3    H170504   2.954   5.912   6.464  0.9256  2.1518 -0.5097
16363TIP3    H270505   3.032   5.785   6.438  0.3838  0.9307  3.2826
16364TIP3   OH270506   2.556   4.923   2.030 -0.4974 -0.5169 -0.2689
16364TIP3    H170507   2.524   4.928   2.120  1.6182  1.3494  0.4695
16364TIP3    H270508   2.574   4.830   2.017 -1.4755 -0.9116  0.9787
16365TIP3   OH270509   2.457   4.989  10.534  0.2184 -0.0205 -0.2565
16365TIP3    H170510   2.503   5.067  10.565 -0.6146  0.6718 -0.6814
16365TIP3    H270511   2.525   4.922  10.525  1.6063  1.5661 -2.9950
16366TIP3   OH270512   6.733   4.042  15.288  0.2356  0.1065  0.4602
16366TIP3    H170513   6.747   4.079  15.375  1.0324  0.8237  0.0335
16366TIP3    H270514   6.649   3.996  15.296  1.2073 -1.5185  2.1494
16367TIP3   OH270515   3.834   2.897   6.535  0.5182  0.8065  0.2265
16367TIP3    H170516   3.759   2.863   6.583 -0.2272 -0.0970 -1.5016
16367TIP3    H270517   3.832   2.992   6.552 -0.3349  0.6449  1.1153
16368TIP3   OH270518   2.624   4.100  14.373  0.0695 -0.4184 -0.1467
16368TIP3    H170519   2.602   4.178  14.323  1.2820  0.9608  1.3595
16368TIP3    H270520   2.548   4.084  14.429 -0.8993 -1.4105 -1.6680
16369TIP3   OH270521   1.941   2.981   0.784 -0.5047 -0.2977  0.1670
16369TIP3    H170522   1.905   3.042   0.721 -1.8576 -1.1590  0.0708
16369TIP3    H270523   1.925   2.894   0.747 -0.4832 -0.7920  1.2483
16370TIP3   OH270524   3.035   6.779   3.997  0.3861  0.8794  0.1312
16370TIP3    H170525   2.959   6.776   4.056  0.8736  1.6829  0.8342
16370TIP3    H270526   3.002   6.817   3.916 -0.6589 -1.6763 -0.7491
16371TIP3   OH270527   2.676   3.404   0.598 -0.0873 -0.0468 -0.1807
16371TIP3    H170528   2.714   3.456   0.669  1.4758 -0.9266 -0.3219
16371TIP3    H270529   2.751   3.358   0.559 -1.2375 -1.4346 -0.8571
16372TIP3   OH270530   6.209   2.129   5.770 -0.2617 -0.1550  0.5386
16372TIP3    H170531   6.217   2.198   5.836  0.3460 -0.8130  1.1705
16372TIP3    H270532   6.177   2.174   5.692  0.8440  0.9856  0.7094
16373TIP3   OH270533   0.026   5.403   2.367  0.0070  0.3825 -0.4329
16373TIP3    H170534  -0.048   5.450   2.406  0.2157 -0.9660  1.7913
16373TIP3    H270535  -0.012   5.348   2.299 -0.9618  0.1841  0.2561
16374TIP3   OH270536   4.073   4.163   2.458  0.0495  0.4109 -0.2895
16374TIP3    H170537   4.150   4.107   2.447  0.2897  0.7922 -0.5632
16374TIP3    H270538   4.061   4.167   2.553  0.1419  0.0481 -0.2596
16375TIP3   OH270539   6.739   2.004  13.774 -0.5738 -0.0154  0.1146
16375TIP3    H170540   6.833   2.020  13.788 -0.4900  1.7535 -1.9354
16375TIP3    H270541   6.732   1.909  13.762  1.1258 -0.0864 -0.6263
16376TIP3   OH270542   4.660   2.158   6.299  0.0292 -0.2286 -0.6665
16376TIP3    H170543   4.724   2.229   6.311  0.1310 -0.4835  0.3650
16376TIP3    H270544   4.580   2.202   6.272  0.0746  0.2926  0.0308
16377TIP3   OH270545   5.398   5.498  15.060 -0.1773 -0.9550  0.5016
16377TIP3    H170546   5.478   5.551  15.057 -0.5678 -0.3512  0.6841
16377TIP3    H270547   5.330   5.558  15.091 -0.9814 -1.1104 -0.8995
16378TIP3   OH270548   5.623   3.633   6.255 -0.5440 -0.5989 -0.6049
16378TIP3    H170549   5.531   3.608   6.250 -0.9201  0.4674  0.3846
16378TIP3    H270550   5.664   3.565   6.309 -1.1975 -0.0433  0.6474
16379TIP3   OH270551   5.816   3.922   1.452  0.2796  0.1112 -0.3980
16379TIP3    H170552   5.903   3.894   1.480  0.6170  0.8871 -0.6715
16379TIP3    H270553   5.790   3.858   1.386  0.4904 -0.3161 -0.0734
16380TIP3   OH270554   1.983   1.038  16.151 -0.1925  0.3855 -0.0308
16380TIP3    H170555   1.991   1.005  16.061  0.3564 -1.0839  0.5126
16380TIP3    H270556   2.006   1.130  16.145  0.3667  0.1869 -1.3263
16381TIP3   OH270557   5.527   2.469  13.689  0.2946 -0.0317 -0.2805
16381TIP3    H170558   5.541   2.559  13.659  0.8142  0.3915  1.1505
16381TIP3    H270559   5.588   2.458  13.762 -3.6625  0.4489  3.4868
16382TIP3   OH270560   2.686   0.004  12.162  0.1828 -0.3861 -0.3467
16382TIP3    H170561   2.759   0.066  12.169  0.5056 -0.8103  0.1838
16382TIP3    H270562   2.726  -0.082  12.180 -0.4571 -0.6139  0.0214
16383TIP3   OH270563   6.529   5.598  14.682  0.2464  0.2047 -0.1989
16383TIP3    H170564   6.559   5.509  14.704 -2.1124 -0.4857  0.5161
16383TIP3    H270565   6.586   5.655  14.733  0.8830 -0.9745  0.4642
16384TIP3   OH270566   3.934   0.413   2.448 -0.2907 -0.3715  0.0136
16384TIP3    H170567   3.931   0.336   2.392  1.0373  0.3273 -1.0843
16384TIP3    H270568   3.986   0.387   2.523  0.0308 -0.5905 -0.2838
16385TIP3   OH270569   1.362   0.398  15.355  0.0360 -0.1439 -0.0696
16385TIP3    H170570   1.363   0.306  15.329  0.2280 -0.6341  1.5461
16385TIP3    H270571   1.285   0.435  15.313 -0.4322 -1.2309 -0.1774
16386TIP3   OH270572   6.735   3.738   1.997  0.0382 -0.3155 -0.4067
16386TIP3    H170573   6.782   3.731   1.914  0.5390  1.1481 -0.2819
16386TIP3    H270574   6.645   3.713   1.976  0.4025 -1.0606 -1.1248
16387TIP3   OH270575   3.493   6.050  14.559  0.3644 -0.3457 -0.1154
16387TIP3    H170576   3.502   6.067  14.652  1.1893 -1.2798 -0.0082
16387TIP3    H270577   3.558   6.107  14.518 -0.6716  0.7996 -0.2219
16388TIP3   OH270578   4.973   4.423   0.782 -0.2289  0.4955  0.3179
16388TIP3    H170579   5.039   4.371   0.827 -0.3534  1.7272  2.0060
16388TIP3    H270580   4.929   4.472   0.852 -0.7004  2.1879 -1.0990
16389TIP3   OH270581   0.253   2.086   4.045  0.2019 -0.1250  0.0036
16389TIP3    H170582   0.271   2.012   3.988 -0.1887  1.0016 -1.6384
16389TIP3    H270583   0.338   2.109   4.082  0.7817  0.1941 -1.4784
16390TIP3   OH270584   2.987   3.235  12.443 -0.5155  0.2931  0.1476
16390TIP3    H170585   2.981   3.209  12.351 -0.4892  0.6190  0.0538
16390TIP3    H270586   3.079   3.222  12.465 -0.8677 -1.7040  0.7059
16391TIP3   OH270587   1.990   0.069  15.617  0.2593 -0.3638  0.1913
16391TIP3    H170588   2.064   0.046  15.673 -0.0813 -0.1990  0.7150
16391TIP3    H270589   1.927  -0.003  15.629 -0.2240  0.1413  0.7773
16392TIP3   OH270590   4.421   4.798   2.889  0.7094 -0.1023  0.2971
16392TIP3    H170591   4.490   4.859   2.913  0.7435  0.6041 -1.4323
16392TIP3    H270592   4.421   4.798   2.793 -2.0833  0.3856  0.2108
16393TIP3   OH270593   3.702   2.528   1.605  0.0256 -0.2010 -0.2925
16393TIP3    H170594   3.796   2.519   1.619  0.1970  0.0834 -1.1713
16393TIP3    H270595   3.665   2.543   1.692  0.8695  0.3510 -0.0235
16394TIP3   OH270596   1.930   2.349   3.374 -0.1958  0.3079 -0.0360
16394TIP3    H170597   1.921   2.441   3.351  0.6316  0.1363 -1.1097
16394TIP3    H270598   1.901   2.301   3.296 -2.6644 -0.4174  1.2184
16395TIP3   OH270599   4.818   4.575   0.150  0.3268  0.8173 -0.4232
16395TIP3    H170600   4.820   4.601   0.242  0.7301  0.0213 -0.1958
16395TIP3    H270601   4.726   4.566   0.129  0.2415 -0.4189  0.3355
16396TIP3   OH270602   1.466   2.503  11.246 -0.0249 -0.9454 -0.0355
16396TIP3    H170603   1.377   2.502  11.211  0.0675 -2.1243 -0.2541
16396TIP3    H270604   1.519   2.542  11.176 -0.2271 -1.0192 -0.2299
16397TIP3   OH270605   4.695   6.715   6.039  0.1479 -0.3228 -0.1589
16397TIP3    H170606   4.630   6.783   6.058  1.2008  0.8608 -0.6517
16397TIP3    H270607   4.645   6.634   6.042 -1.0901  0.4233  0.7884
16398TIP3   OH270608   2.077   0.525   0.146  0.0805 -0.0168  0.0960
16398TIP3    H170609   2.084   0.447   0.201 -1.2498 -1.8440 -2.1139
16398TIP3    H270610   2.020   0.584   0.194  0.6385 -0.6218  1.5653
16399TIP3   OH270611   2.116   1.487   1.977  0.0631  0.3383 -0.6211
16399TIP3    H170612   2.073   1.467   2.060 -0.7053  2.1627 -0.5409
16399TIP3    H270613   2.202   1.520   2.001 -0.2440  1.0816 -0.5247
16400TIP3   OH270614   0.318   5.675  16.422 -0.2798 -0.0554 -0.4870
16400TIP3    H170615   0.321   5.768  16.443 -0.3825 -0.0567 -0.4644
16400TIP3    H270616   0.229   5.648  16.445  0.0714 -0.3994  0.5398
16401TIP3   OH270617   6.149   1.026   0.590  0.2458  0.0705  0.1151
16401TIP3    H170618   6.124   1.117   0.603 -0.2572 -0.0962  0.3345
16401TIP3    H270619   6.123   0.981   0.670 -0.3121 -0.4269 -0.3287
16402TIP3   OH270620   4.983   2.571  10.962  0.4130 -0.0645 -0.4624
16402TIP3    H170621   4.891   2.592  10.943 -0.1363 -1.7867  0.1093
16402TIP3    H270622   5.023   2.655  10.984 -1.0751  0.6876 -0.5346
16403TIP3   OH270623   2.699   2.433  14.533 -0.3461 -0.4753 -0.5834
16403TIP3    H170624   2.675   2.352  14.577 -0.5650 -0.6418 -1.0000
16403TIP3    H270625   2.754   2.405  14.460 -0.6580 -0.2774 -0.8992
16404TIP3   OH270626   0.996   3.783   3.152  0.4798  0.0061 -0.0225
16404TIP3    H170627   1.029   3.721   3.218  1.7100  0.9083  0.2384
16404TIP3    H270628   1.069   3.796   3.092 -0.2060  0.1983 -0.8395
16405TIP3   OH270629   5.686   3.682   4.535 -0.0594 -0.1364  0.2314
16405TIP3    H170630   5.719   3.667   4.624 -0.9436 -1.2461  0.4017
16405TIP3    H270631   5.693   3.597   4.492 -0.8919  0.0538 -0.3169
16406TIP3   OH270632   3.927   4.914   5.263  0.1983  0.2863 -0.2983
16406TIP3    H170633   3.845   4.904   5.311  0.3183 -0.2575 -0.2045
16406TIP3    H270634   3.993   4.869   5.316  0.4955  0.4233 -0.5439
16407TIP3   OH270635   6.118   5.912  14.936  0.6520 -0.1855  0.0315
16407TIP3    H170636   6.168   5.854  14.879  0.2366 -0.7519  0.2344
16407TIP3    H270637   6.132   5.999  14.900 -0.5546 -0.6430 -1.6588
16408TIP3   OH270638   5.734   2.794  12.147 -0.1366  0.8415 -0.1807
16408TIP3    H170639   5.767   2.759  12.064  0.4450 -1.4267  0.9234
16408TIP3    H270640   5.792   2.868  12.166  0.6009  0.5351 -1.1447
16409TIP3   OH270641   5.661   0.063   2.068  0.2452  0.3205 -0.3993
16409TIP3    H170642   5.653   0.126   1.996 -2.2438  1.1115  0.4672
16409TIP3    H270643   5.585   0.080   2.123  0.2927 -2.4726  0.6960
16410TIP3   OH270644   2.707   6.194  13.826 -0.7566  0.2781 -0.0265
16410TIP3    H170645   2.625   6.194  13.876  0.0212  0.2942  1.2913
16410TIP3    H270646   2.722   6.102  13.803 -1.2698  0.3089 -0.5282
16411TIP3   OH270647   3.829   2.304   0.001  0.5136 -0.1390 -0.1072
16411TIP3    H170648   3.913   2.267   0.029  1.5189  2.3261  0.4591
16411TIP3    H270649   3.848   2.339  -0.087  0.6238  1.8336  0.6428
16412TIP3   OH270650   1.873   5.995   3.516 -0.0672  0.2998 -0.5490
16412TIP3    H170651   1.844   6.043   3.438 -0.4813 -1.0595 -1.2713
16412TIP3    H270652   1.806   6.014   3.582  0.4670  1.7424 -0.3870
16413TIP3   OH270653   1.591   0.634  12.984 -0.5660  0.0871 -0.1548
16413TIP3    H170654   1.662   0.691  12.957  0.3368 -0.9329 -0.0042
16413TIP3    H270655   1.593   0.561  12.921 -1.5670  0.1110 -0.2339
16414TIP3   OH270656   6.671   3.119   6.852 -0.2861 -0.1032 -0.0755
16414TIP3    H170657   6.591   3.077   6.882 -0.9608 -0.4967 -2.2879
16414TIP3    H270658   6.644   3.208   6.828 -0.4462 -0.7088 -2.2966
16415TIP3   OH270659   2.093   5.101  11.656  0.0355 -0.2007  1.0636
16415TIP3    H170660   1.998   5.106  11.665 -0.1554 -2.1634  0.5895
16415TIP3    H270661   2.127   5.141  11.736 -1.1310  1.6197  0.7103
16416TIP3   OH270662   3.253   6.102  16.949 -0.2602 -0.1506  0.5801
16416TIP3    H170663   3.342   6.117  16.980 -0.9714  3.4503  1.2886
16416TIP3    H270664   3.243   6.161  16.874 -2.2988  0.2031  1.0631
16417TIP3   OH270665   5.501   6.713  10.985  0.5521  0.0334 -0.7874
16417TIP3    H170666   5.536   6.677  11.067  0.8608  0.1702 -0.8604
16417TIP3    H270667   5.408   6.725  11.003  0.3125 -1.3742 -0.9526
16418TIP3   OH270668   2.206   6.132   3.651  0.0168 -0.8545 -0.1120
16418TIP3    H170669   2.237   6.205   3.705 -0.0564  0.0252 -1.1951
16418TIP3    H270670   2.239   6.054   3.694 -0.1316 -0.1967  1.2397
16419TIP3   OH270671   5.517   1.720   2.060  0.6689  0.4689 -0.4806
16419TIP3    H170672   5.589   1.735   1.999  0.7228  0.4171 -0.4300
16419TIP3    H270673   5.558   1.678   2.135  0.5642  0.3175 -0.5078
16420TIP3   OH270674   3.057   1.040  13.207 -0.1025  0.0816  0.2191
16420TIP3    H170675   3.114   1.042  13.283  1.7745  0.8152 -1.1452
16420TIP3    H270676   3.088   1.111  13.151 -3.4333  1.6504  0.1232
16421TIP3   OH270677   4.191   1.779   5.307 -0.1687 -0.5598 -0.2312
16421TIP3    H170678   4.222   1.709   5.365 -0.1887 -1.0699 -0.8270
16421TIP3    H270679   4.271   1.820   5.274 -0.1336 -0.9872 -0.6965
16422TIP3   OH270680   6.458   4.125   1.924  0.3122 -0.1541  0.1689
16422TIP3    H170681   6.419   4.132   2.011  2.4995  0.2940  1.1989
16422TIP3    H270682   6.385   4.136   1.863 -0.9674  1.8759  1.9352
16423TIP3   OH270683   6.548   1.499  13.009 -0.1001 -0.4242 -0.3669
16423TIP3    H170684   6.614   1.429  13.003  0.0001 -1.1079  4.7837
16423TIP3    H270685   6.598   1.578  13.026 -0.4564 -0.2576 -0.0819
16424TIP3   OH270686   0.407   6.556   3.123  0.5611  0.0892  0.0112
16424TIP3    H170687   0.497   6.550   3.091  0.8433  1.1638  0.5645
16424TIP3    H270688   0.381   6.465   3.136  1.9001 -0.2175  0.7525
16425TIP3   OH270689   1.017   1.636   5.059  0.9974 -0.4747  0.3981
16425TIP3    H170690   0.959   1.711   5.051  1.6687 -0.1623 -2.6829
16425TIP3    H270691   1.097   1.672   5.096  0.2594 -0.3550  1.9562
16426TIP3   OH270692   0.603   2.135   2.294  0.0664 -0.5602  0.5461
16426TIP3    H170693   0.673   2.112   2.355  0.2800 -0.3947  0.3646
16426TIP3    H270694   0.618   2.227   2.273 -1.3331  0.0470  1.9898
16427TIP3   OH270695   2.475   6.385   5.889  0.2646 -0.0598  0.3002
16427TIP3    H170696   2.561   6.346   5.871 -0.1851 -0.9734  0.0598
16427TIP3    H270697   2.419   6.310   5.911 -0.9731  0.2655 -1.4843
16428TIP3   OH270698   4.653   5.029  14.186  0.4802 -0.0212  0.5227
16428TIP3    H170699   4.664   5.022  14.281 -0.9822  1.5412  0.8626
16428TIP3    H270700   4.562   5.058  14.175  0.9463  0.8622 -1.2925
16429TIP3   OH270701   6.278   5.590   3.754  0.1618  0.5422  0.1204
16429TIP3    H170702   6.246   5.654   3.818  2.6908  1.5702  0.4399
16429TIP3    H270703   6.240   5.619   3.671 -1.1937  0.5983  0.7191
16430TIP3   OH270704   5.322   2.053   1.311  0.6517  0.2038 -0.1374
16430TIP3    H170705   5.229   2.062   1.289  0.1535 -0.8330  1.3853
16430TIP3    H270706   5.328   2.078   1.403  1.6384 -0.9079  0.1326
16431TIP3   OH270707   6.150   1.973  14.407 -0.7683 -0.2112 -0.0613
16431TIP3    H170708   6.067   1.927  14.396 -0.8780  0.1956 -1.0277
16431TIP3    H270709   6.170   2.008  14.321  1.9964 -2.8601 -0.6352
16432TIP3   OH270710   0.971   5.569  13.070 -0.1866  0.5005  0.0710
16432TIP3    H170711   0.951   5.616  13.150 -0.4675 -1.6279  1.3303
16432TIP3    H270712   1.016   5.489  13.099 -0.8545 -0.6312 -1.7963
16433TIP3   OH270713   3.524   0.982  12.343  1.1258  0.1375  0.1701
16433TIP3    H170714   3.495   0.933  12.265 -1.6355 -0.3477  1.3837
16433TIP3    H270715   3.550   1.068  12.309  0.2678 -0.1618 -1.3367
16434TIP3   OH270716   1.402   5.771  15.115 -0.2909 -0.4523 -0.9984
16434TIP3    H170717   1.378   5.806  15.201 -0.5746 -1.4921 -0.6435
16434TIP3    H270718   1.324   5.784  15.061 -0.1435  0.1188 -1.0823
16435TIP3   OH270719   6.348   4.369  13.677  0.3472  0.1753  0.2185
16435TIP3    H170720   6.390   4.289  13.643 -0.0553  0.6086 -1.3718
16435TIP3    H270721   6.340   4.426  13.601 -1.1152  0.9866  0.9439
16436TIP3   OH270722   4.312   4.194  13.820  0.1668 -0.8508  0.6677
16436TIP3    H170723   4.352   4.266  13.868 -0.0861 -0.7795  0.7707
16436TIP3    H270724   4.354   4.115  13.856 -1.0568 -0.9083  2.0395
16437TIP3   OH270725   5.595   6.261  10.594  0.4505 -0.4785  0.5949
16437TIP3    H170726   5.687   6.259  10.620 -0.0819  0.1503  2.7173
16437TIP3    H270727   5.567   6.169  10.599  1.0935 -0.7606 -0.6740
16438TIP3   OH270728   0.494   0.699  12.377  0.1684  0.1663 -0.1240
16438TIP3    H170729   0.486   0.610  12.411  1.5883 -0.1469 -0.5293
16438TIP3    H270730   0.570   0.735  12.424 -0.4957  1.2338  0.1639
16439TIP3   OH270731   1.565   5.445  14.919 -0.3132  0.5898 -0.3818
16439TIP3    H170732   1.604   5.522  14.959 -2.2757  0.6547  1.5446
16439TIP3    H270733   1.575   5.459  14.825  0.8783  2.3543 -0.0275
16440TIP3   OH270734   0.187   2.426   3.062  0.2132  0.4076  0.7909
16440TIP3    H170735   0.141   2.428   2.978  1.0935  1.9796  0.3072
16440TIP3    H270736   0.181   2.516   3.095  0.4570 -0.0347  2.1046
16441TIP3   OH270737   5.288   5.807   1.672 -0.0240 -0.0278  0.5090
16441TIP3    H170738   5.295   5.868   1.598 -1.1870  0.0907  0.4812
16441TIP3    H270739   5.377   5.801   1.706  0.7526 -0.8417 -1.5044
16442TIP3   OH270740   4.305   6.115  11.458 -0.4770  0.0052 -0.1299
16442TIP3    H170741   4.348   6.049  11.402  1.4769  2.0855 -1.2445
16442TIP3    H270742   4.353   6.196  11.440 -1.8782  1.4583  2.2409
16443TIP3   OH270743   3.808   3.503   4.988  0.0178 -0.1711 -0.4671
16443TIP3    H170744   3.848   3.526   5.072  1.3928 -2.3921 -0.4267
16443TIP3    H270745   3.851   3.560   4.925 -1.9641  2.4572  0.3939
16444TIP3   OH270746   5.280   5.227   5.397 -0.0277  0.1769  0.5922
16444TIP3    H170747   5.217   5.193   5.460  1.1549  1.3327  2.4748
16444TIP3    H270748   5.309   5.310   5.434  3.2333 -0.6705  0.2291
16445TIP3   OH270749   0.171   3.055   5.743  0.0365 -0.2702 -0.9024
16445TIP3    H170750   0.143   3.093   5.660 -1.9439  1.0907  0.2961
16445TIP3    H270751   0.089   3.030   5.787  1.0095 -0.8021  0.6950
16446TIP3   OH270752   1.651   5.469   6.425  0.1269 -0.1514 -0.3895
16446TIP3    H170753   1.691   5.384   6.403  0.2994 -0.0174 -0.5965
16446TIP3    H270754   1.725   5.527   6.440  0.0122  0.1162 -0.8518
16447TIP3   OH270755   2.688   6.444  15.464  0.1626 -0.0956 -0.3966
16447TIP3    H170756   2.722   6.392  15.390 -0.3715 -1.0616  0.0110
16447TIP3    H270757   2.765   6.489  15.498  0.2491  1.2387 -2.1925
16448TIP3   OH270758   6.748   1.283  16.783 -0.0828 -0.0274  0.1654
16448TIP3    H170759   6.779   1.214  16.842  1.3606  0.8501  0.4919
16448TIP3    H270760   6.813   1.354  16.792 -0.8956  0.9207 -1.0033
16449TIP3   OH270761   5.716   1.685   0.454  0.8721  0.3256  0.0520
16449TIP3    H170762   5.729   1.604   0.404  1.3263 -1.2910  2.6046
16449TIP3    H270763   5.697   1.751   0.387 -0.2476 -1.9934 -2.1274
16450TIP3   OH270764   4.673   6.089   3.692 -0.2079 -0.6225  0.1599
16450TIP3    H170765   4.712   6.103   3.778 -0.6866 -1.7799  0.5836
16450TIP3    H270766   4.692   6.170   3.644  2.7292 -1.0800  0.3245
16451TIP3   OH270767   5.766   1.266   1.511 -0.6228  0.3465  0.1361
16451TIP3    H170768   5.686   1.280   1.461  0.2949  0.6490 -1.3111
16451TIP3    H270769   5.837   1.284   1.449  0.5863 -1.3336  0.9506
16452TIP3   OH270770   4.733   6.692  10.813 -0.3224  0.4104  0.4416
16452TIP3    H170771   4.746   6.597  10.808 -1.1715  0.3045 -0.0556
16452TIP3    H270772   4.812   6.730  10.775 -0.8925 -0.1490 -1.4065
16453TIP3   OH270773   4.299   5.761  16.078 -0.0668  0.5445  0.0867
16453TIP3    H170774   4.292   5.701  16.004  1.0948  0.1691  0.2542
16453TIP3    H270775   4.357   5.716  16.139 -1.4137  0.6106  1.4745
16454TIP3   OH270776   2.155   2.398  12.950 -0.6082  0.3823  0.0832
16454TIP3    H170777   2.131   2.454  12.876  0.6682  0.5988 -0.1817
16454TIP3    H270778   2.124   2.446  13.027  0.2611  1.3611 -0.1588
16455TIP3   OH270779   0.773   2.483   6.057  0.1681 -0.3252 -0.1484
16455TIP3    H170780   0.795   2.557   6.114 -0.6021  1.3284 -1.8697
16455TIP3    H270781   0.858   2.453   6.023  0.5577 -0.8020  1.1814
16456TIP3   OH270782   4.795   4.922  16.681  0.3970 -0.1377  0.3878
16456TIP3    H170783   4.778   5.015  16.686  0.3569 -0.0712 -0.7975
16456TIP3    H270784   4.801   4.903  16.588 -0.0005 -1.3963  0.5952
16457TIP3   OH270785   3.635   0.979  12.017 -0.0436  0.1812 -0.1278
16457TIP3    H170786   3.544   0.970  11.991  0.0584 -1.3854 -0.0683
16457TIP3    H270787   3.639   1.061  12.067 -1.8316 -0.7199  1.5908
16458TIP3   OH270788   2.990   5.712   0.245 -0.3234 -0.5268  0.6363
16458TIP3    H170789   2.938   5.769   0.302  1.0058  0.5774  0.7881
16458TIP3    H270790   3.051   5.771   0.201  0.0005 -1.6334 -0.4541
16459TIP3   OH270791   3.694   4.950  11.964  0.0932  0.1918 -0.2279
16459TIP3    H170792   3.726   4.862  11.981  0.8297  0.8710  2.3603
16459TIP3    H270793   3.773   5.003  11.954 -0.3096  0.8275 -0.1188
16460TIP3   OH270794   4.604   2.857  12.697  0.4777 -0.3426 -0.2676
16460TIP3    H170795   4.626   2.770  12.730 -1.5048 -0.7817  0.0332
16460TIP3    H270796   4.590   2.845  12.603 -0.9215 -0.6258 -0.0440
16461TIP3   OH270797   5.456   3.371   4.455  0.2452 -0.1497  0.2997
16461TIP3    H170798   5.373   3.416   4.467 -0.1962 -0.4569 -1.3494
16461TIP3    H270799   5.456   3.302   4.521 -1.1467 -0.6054 -0.1495
16462TIP3   OH270800   5.329   0.841  13.657  0.2504  0.4090  0.0835
16462TIP3    H170801   5.273   0.890  13.718 -0.6519  2.0989 -1.9681
16462TIP3    H270802   5.413   0.834  13.702 -0.3283  1.7007  1.4548
16463TIP3   OH270803   6.525   1.258  13.828 -0.3029 -0.1570 -0.1579
16463TIP3    H170804   6.573   1.178  13.851 -1.2444 -0.7016 -0.0437
16463TIP3    H270805   6.495   1.293  13.911  0.5779  0.6394 -0.1565
16464TIP3   OH270806   6.657   6.087   4.655  0.3768  0.2193 -0.3618
16464TIP3    H170807   6.645   6.166   4.708  0.0292 -0.4418  0.5813
16464TIP3    H270808   6.622   6.016   4.710  0.4640 -0.5582 -1.2838
16465TIP3   OH270809   0.177   3.380  15.697  0.0863 -0.0136 -0.4544
16465TIP3    H170810   0.103   3.413  15.646 -0.9402 -0.0939  0.9296
16465TIP3    H270811   0.220   3.318  15.638 -0.5104  0.5793 -1.5470
16466TIP3   OH270812   0.873   0.957   0.101 -0.2294 -0.3788 -0.5249
16466TIP3    H170813   0.809   0.968   0.030  1.5971  3.2171 -1.8551
16466TIP3    H270814   0.830   0.996   0.178 -0.5592 -0.2434 -0.7744
16467TIP3   OH270815   5.109   4.827  10.287  0.7274  0.7670  0.7751
16467TIP3    H170816   5.101   4.738  10.320  0.4911  1.0023  1.3697
16467TIP3    H270817   5.048   4.878  10.340 -1.6446  0.7413 -1.6860
16468TIP3   OH270818   2.552   6.332  16.249  0.1019  0.4088  0.3162
16468TIP3    H170819   2.516   6.376  16.172  2.7976  0.2423 -1.1658
16468TIP3    H270820   2.586   6.249  16.215 -0.6579 -0.7211  2.1644
16469TIP3   OH270821   4.269   4.506  11.999 -0.3952 -0.5326 -0.0747
16469TIP3    H170822   4.225   4.493  11.916 -1.3617  0.4529  0.2700
16469TIP3    H270823   4.359   4.530  11.975 -1.0029  1.0672 -0.8790
16470TIP3   OH270824   3.916   6.661  11.564 -0.2117 -0.4442  0.6141
16470TIP3    H170825   3.950   6.604  11.633  0.5548  0.2312  0.8036
16470TIP3    H270826   3.989   6.674  11.504 -0.2248  0.7171  0.8228
16471TIP3   OH270827   0.805   4.116   0.245 -0.5616  0.3132 -0.4160
16471TIP3    H170828   0.830   4.037   0.196  0.1885  0.2656  0.0308
16471TIP3    H270829   0.746   4.084   0.313  0.2380  0.0233  0.1643
16472TIP3   OH270830   3.777   0.732  12.002 -0.5830  0.1180  0.0703
16472TIP3    H170831   3.742   0.815  12.035  2.8957  0.7038  2.8908
16472TIP3    H270832   3.837   0.758  11.933  1.6457  0.2632  1.9446
16473TIP3   OH270833   0.800   1.094  15.501  0.9066 -0.1349  0.0009
16473TIP3    H170834   0.828   1.007  15.471  1.3788 -0.2611  0.7627
16473TIP3    H270835   0.880   1.135  15.532  1.0642  1.3989 -2.2300
16474TIP3   OH270836   5.534   1.342   4.990  0.3732 -0.3625 -0.5617
16474TIP3    H170837   5.588   1.342   5.069  1.4123 -1.6781 -1.2349
16474TIP3    H270838   5.529   1.434   4.964 -1.1943  0.3045  1.7935
16475TIP3   OH270839   0.880   4.827  12.858 -0.3241  0.8232  0.0064
16475TIP3    H170840   0.918   4.776  12.929 -0.4131 -1.0992 -1.2738
16475TIP3    H270841   0.944   4.896  12.841  1.2629 -0.6695 -0.2251
16476TIP3   OH270842   2.548   2.895  14.563  0.5867 -0.1532 -0.5031
16476TIP3    H170843   2.549   2.944  14.645  1.6680  0.4208 -0.8500
16476TIP3    H270844   2.552   2.803  14.591 -1.4540 -0.1123  0.1420
16477TIP3   OH270845   3.244   5.270   1.086 -0.1128 -0.4358  0.2579
16477TIP3    H170846   3.191   5.325   1.143  1.0198  1.3339 -0.3070
16477TIP3    H270847   3.317   5.241   1.141 -1.0603 -1.9919  0.7430
16478TIP3   OH270848   2.381   4.771  12.774 -0.7845 -0.1834 -0.2194
16478TIP3    H170849   2.342   4.858  12.764 -0.2632  0.0083 -0.6785
16478TIP3    H270850   2.451   4.769  12.709 -2.2527 -1.8247 -1.8469
16479TIP3   OH270851   1.433   0.469  13.413  0.3860  0.0546 -0.7668
16479TIP3    H170852   1.464   0.552  13.375  2.0977  0.4561  1.2930
16479TIP3    H270853   1.513   0.427  13.446 -0.7443 -1.2945  0.3640
16480TIP3   OH270854   6.530   0.834  11.764 -0.2160 -0.1985 -0.5030
16480TIP3    H170855   6.458   0.772  11.775  0.3742 -1.0818 -1.4747
16480TIP3    H270856   6.600   0.800  11.819 -0.8059  1.1815  1.2086
16481TIP3   OH270857   4.311   4.257  11.844 -0.5451  0.1099  0.3827
16481TIP3    H170858   4.267   4.172  11.838 -0.8758  0.3645 -0.9903
16481TIP3    H270859   4.305   4.279  11.937 -0.7280 -1.2143  0.7167
16482TIP3   OH270860   0.614   1.512   5.376 -0.4446  0.1604 -0.1716
16482TIP3    H170861   0.536   1.457   5.383 -0.5491  0.1055 -1.5335
16482TIP3    H270862   0.676   1.459   5.326  0.0988  0.6123  0.0140
16483TIP3   OH270863   1.115   6.145  15.852  0.2776  0.2714 -0.5682
16483TIP3    H170864   1.126   6.213  15.786  1.1214  1.7773  1.0343
16483TIP3    H270865   1.110   6.193  15.935  0.7989 -1.6194  0.6157
16484TIP3   OH270866   4.565   0.984   0.093  0.3719 -0.4735 -1.1111
16484TIP3    H170867   4.660   0.990   0.085  0.6350  0.6282  1.7205
16484TIP3    H270868   4.540   0.916   0.031  3.2151 -2.1034 -0.6464
16485TIP3   OH270869   1.505   4.706  14.155 -0.2347 -0.5136 -0.2553
16485TIP3    H170870   1.505   4.704  14.251 -0.6837  2.1521 -0.1224
16485TIP3    H270871   1.421   4.669  14.130 -1.7117  2.0149  0.6257
16486TIP3   OH270872   1.343   0.421  14.585 -0.1752 -0.6228  0.3892
16486TIP3    H170873   1.355   0.329  14.561  1.5041 -0.4443  0.3934
16486TIP3    H270874   1.415   0.440  14.645  0.3741  1.0452 -0.7019
16487TIP3   OH270875   4.611   0.747  17.098  0.1225  0.0718  0.0945
16487TIP3    H170876   4.680   0.803  17.063 -1.1837  0.2547 -2.5029
16487TIP3    H270877   4.650   0.660  17.105  0.8481  0.3314 -0.6113
16488TIP3   OH270878   4.284   2.480  11.974 -0.2848 -0.1305 -0.2814
16488TIP3    H170879   4.205   2.462  12.026  0.1697 -1.3117  0.0534
16488TIP3    H270880   4.355   2.479  12.038  0.1058  0.0121 -0.7075
16489TIP3   OH270881   0.446   6.493  13.759 -0.8657  0.2612  0.3936
16489TIP3    H170882   0.406   6.480  13.846 -0.6829  0.4671  0.5096
16489TIP3    H270883   0.515   6.558  13.774  0.3593 -1.0155  0.4479
16490TIP3   OH270884   2.168   2.452   4.027 -0.0005 -0.2177 -0.0833
16490TIP3    H170885   2.259   2.462   4.001 -0.5435  0.6335 -1.7738
16490TIP3    H270886   2.164   2.487   4.116  0.7525  2.6658 -1.0838
16491TIP3   OH270887   5.806   5.190   3.604 -0.4361  0.1036  0.0174
16491TIP3    H170888   5.730   5.158   3.653 -1.5166  1.5301 -0.6667
16491TIP3    H270889   5.880   5.181   3.665 -1.0870 -1.4762  0.6331
16492TIP3   OH270890   1.071   4.870   4.260  0.0495 -0.1231  0.1353
16492TIP3    H170891   1.048   4.780   4.279  1.3903 -0.3796  0.6362
16492TIP3    H270892   1.166   4.872   4.264  0.0312  1.3684  0.3731
16493TIP3   OH270893   3.351   3.098  14.219  0.8218  0.2811 -0.0875
16493TIP3    H170894   3.315   3.185  14.238  2.4190  1.3088 -1.4886
16493TIP3    H270895   3.292   3.038  14.264 -1.4411  1.9578 -0.6073
16494TIP3   OH270896   0.716   0.015   3.076 -0.2010 -0.0081  0.3069
16494TIP3    H170897   0.732   0.040   3.168  1.2449  1.3587 -0.2667
16494TIP3    H270898   0.771   0.075   3.026  0.6615 -2.0993 -1.3841
16495TIP3   OH270899   1.370   0.740  12.866  0.5692 -0.4282 -0.4609
16495TIP3    H170900   1.377   0.686  12.787  1.0462  0.4560 -1.0407
16495TIP3    H270901   1.427   0.698  12.930  1.5802 -0.1678 -1.1746
16496TIP3   OH270902   3.740   4.124   1.227 -0.2474 -0.0395 -0.2808
16496TIP3    H170903   3.740   4.182   1.152 -1.0912 -0.5229 -0.6741
16496TIP3    H270904   3.650   4.129   1.261  0.1936  0.3850  0.8662
16497TIP3   OH270905   5.214   3.294  10.890  0.0327 -0.1661 -0.2361
16497TIP3    H170906   5.242   3.325  10.804 -2.1195 -1.4579 -1.5041
16497TIP3    H270907   5.233   3.200  10.889 -0.4227 -0.2773  0.5116
16498TIP3   OH270908   1.398   0.226  12.731 -0.2424 -0.0966 -0.7720
16498TIP3    H170909   1.307   0.221  12.758 -0.0253 -0.5462 -0.0927
16498TIP3    H270910   1.416   0.140  12.692  0.3793 -0.7122  0.7550
16499TIP3   OH270911   0.718   4.470   1.549  0.2797 -0.3462  0.6593
16499TIP3    H170912   0.706   4.529   1.475  1.3546  0.3726  1.0354
16499TIP3    H270913   0.776   4.401   1.517 -0.5462 -0.9324  0.3791
16500TIP3   OH270914   2.932   2.255   3.069  0.5439 -0.1029 -0.4314
16500TIP3    H170915   2.912   2.226   2.980  1.3954 -2.3924  0.0615
16500TIP3    H270916   2.983   2.183   3.107  1.3415  1.3842  1.4825
16501TIP3   OH270917   5.018   1.360  13.326 -0.2091 -0.5874  0.7504
16501TIP3    H170918   4.928   1.328  13.334  0.6246 -3.4338 -0.0117
16501TIP3    H270919   5.033   1.365  13.232  0.2783  0.4722  0.8702
16502TIP3   OH270920   1.766   0.122  16.925 -0.3014  0.2884 -0.2494
16502TIP3    H170921   1.753   0.129  17.020 -1.2892  0.0154 -0.3512
16502TIP3    H270922   1.695   0.173  16.887 -0.2478 -0.0767 -0.8497
16503TIP3   OH270923   2.167   4.465  16.791  0.7680 -0.3809 -0.0641
16503TIP3    H170924   2.164   4.561  16.796 -2.2854 -0.2824 -1.3208
16503TIP3    H270925   2.235   4.446  16.727  1.4581  0.9127  0.2452
16504TIP3   OH270926   0.826   6.690   3.566  0.1244  0.3053 -0.3067
16504TIP3    H170927   0.822   6.622   3.633 -2.4339 -0.4616 -1.1514
16504TIP3    H270928   0.806   6.771   3.612 -0.5011 -0.0533  0.0608
16505TIP3   OH270929   1.532   4.001   5.424 -0.3998  0.3915 -0.0427
16505TIP3    H170930   1.590   4.072   5.449 -0.2968  0.5793 -0.7963
16505TIP3    H270931   1.500   4.025   5.337 -1.2122  0.0442  0.1455
16506TIP3   OH270932   6.648   3.195  10.975  0.3931  0.0553  0.5199
16506TIP3    H170933   6.611   3.283  10.976  1.1272  0.3694  0.1785
16506TIP3    H270934   6.731   3.203  10.928  1.9916 -0.1966  3.1010
16507TIP3   OH270935   6.071   3.885  11.718  0.0514  0.2024 -0.3062
16507TIP3    H170936   6.027   3.834  11.786  2.7382 -0.8046  0.8040
16507TIP3    H270937   6.085   3.971  11.757 -0.5504  0.4110 -0.5323
16508TIP3   OH270938   2.238   0.101   5.045 -0.6740 -0.4457 -0.3753
16508TIP3    H170939   2.256   0.013   5.078 -0.8837  0.1553  1.4260
16508TIP3    H270940   2.310   0.119   4.984 -0.2903 -1.6130 -0.2825
16509TIP3   OH270941   3.422   0.903   2.519  0.3947 -0.2048 -0.5922
16509TIP3    H170942   3.411   0.847   2.596  0.0927  1.5035  0.6809
16509TIP3    H270943   3.484   0.971   2.548 -2.4940  2.6458 -0.4899
16510TIP3   OH270944   1.903   2.351  14.508  0.5159 -0.7490  0.1617
16510TIP3    H170945   1.922   2.257  14.514  0.6521 -0.9344 -2.1334
16510TIP3    H270946   1.853   2.360  14.427  2.9734  1.4714 -1.2756
16511TIP3   OH270947   5.636   0.795  13.129 -0.5998  0.1555  0.1116
16511TIP3    H170948   5.707   0.749  13.085  0.3982  0.8069  1.0100
16511TIP3    H270949   5.593   0.845  13.060  0.6114  0.7503 -0.2355
16512TIP3   OH270950   0.445   4.759  17.092  0.5155 -0.4760  0.2159
16512TIP3    H170951   0.392   4.702  17.036  0.5399 -1.1916  0.9007
16512TIP3    H270952   0.513   4.794  17.034 -0.3353 -0.0319 -0.5283
16513TIP3   OH270953   1.697   5.449   1.396 -0.2503  0.2845 -0.3252
16513TIP3    H170954   1.648   5.527   1.420  0.9720  0.8871  0.3271
16513TIP3    H270955   1.710   5.403   1.479 -0.3628 -0.2551 -0.6013
16514TIP3   OH270956   6.139   4.575   0.290 -0.4132 -0.6808  0.1426
16514TIP3    H170957   6.141   4.604   0.382  0.6618  0.0602 -0.0986
16514TIP3    H270958   6.180   4.647   0.242 -2.0675 -0.5196 -1.0881
16515TIP3   OH270959   3.483   0.824   3.268  0.4331 -0.1244  0.2275
16515TIP3    H170960   3.522   0.909   3.290  0.7829 -0.1068 -0.4266
16515TIP3    H270961   3.393   0.830   3.301  0.0739  0.9770 -0.8818
16516TIP3   OH270962   0.790   3.376   3.704 -0.0158 -0.5954 -0.1353
16516TIP3    H170963   0.850   3.343   3.638  0.5699 -1.0287  0.6023
16516TIP3    H270964   0.710   3.397   3.656  0.9257  0.6363 -1.2485
16517TIP3   OH270965   5.562   1.809   5.810  0.6171 -0.2833 -0.4311
16517TIP3    H170966   5.599   1.871   5.873 -1.1774 -0.8371  1.2650
16517TIP3    H270967   5.635   1.790   5.750  1.8466  1.7153  0.3152
16518TIP3   OH270968   0.809   2.441   5.698  0.6759  0.0877  0.5942
16518TIP3    H170969   0.851   2.452   5.613 -0.0010 -0.5255  0.1820
16518TIP3    H270970   0.821   2.526   5.741  0.1136  0.7504 -0.5107
16519TIP3   OH270971   5.031   1.681   5.576 -0.2449  0.4918  0.1213
16519TIP3    H170972   5.099   1.678   5.644 -1.5919  1.8041  1.6267
16519TIP3    H270973   5.039   1.768   5.538 -1.8249  1.1574  1.1994
16520TIP3   OH270974   4.326   3.325   1.440  0.1324 -0.0800 -0.4865
16520TIP3    H170975   4.238   3.293   1.460  0.1517  0.2966  0.2853
16520TIP3    H270976   4.330   3.411   1.483  0.7886  0.0193 -0.7269
16521TIP3   OH270977   3.498   2.901  12.191  0.3792 -0.5002 -1.0321
16521TIP3    H170978   3.559   2.865  12.126  0.4011 -0.0466 -1.2690
16521TIP3    H270979   3.439   2.956  12.140  1.0037  0.6465 -0.5420
16522TIP3   OH270980   5.166   5.282  10.331 -0.1488  0.4132  0.3798
16522TIP3    H170981   5.138   5.213  10.271  3.3471  1.0784 -2.3645
16522TIP3    H270982   5.126   5.362  10.297 -0.0098  0.4818  0.3779
16523TIP3   OH270983   0.205   3.451  13.392 -0.1352  0.6041 -0.3752
16523TIP3    H170984   0.110   3.451  13.382  0.0392  1.7662 -2.4237
16523TIP3    H270985   0.239   3.443  13.303  1.7093  0.4029  0.2972
16524TIP3   OH270986   2.098   1.581  16.896  0.3953 -0.2711 -0.5553
16524TIP3    H170987   2.053   1.544  16.820  0.0914 -1.3099  0.1207
16524TIP3    H270988   2.162   1.515  16.921  0.2921 -0.0643  0.2796
16525TIP3   OH270989   3.712   2.292  13.177  0.3113 -0.2317  0.1426
16525TIP3    H170990   3.660   2.238  13.117 -1.0213  0.6355  0.4716
16525TIP3    H270991   3.662   2.292  13.259 -1.0054  3.3289 -0.5086
16526TIP3   OH270992   6.469   4.863   4.085  0.2171  0.4290  0.2715
16526TIP3    H170993   6.387   4.904   4.112 -0.2718 -0.3818  0.0530
16526TIP3    H270994   6.479   4.788   4.144  1.6788  1.4722  1.4081
16527TIP3   OH270995   3.626   0.946   5.052  0.1672  0.6472  0.3356
16527TIP3    H170996   3.640   0.898   4.970  2.3611  0.4932  0.7616
16527TIP3    H270997   3.596   0.878   5.113  0.6070  0.3456  0.2210
16528TIP3   OH270998   4.589   1.882  15.963  0.7771 -0.0231 -0.0998
16528TIP3    H170999   4.672   1.922  15.936  0.1199 -0.0391 -2.3199
16528TIP3    H271000   4.599   1.868  16.057  2.9949  0.6696 -0.1740
16529TIP3   OH271001   6.621   3.340   3.503  0.2330 -0.4114  0.0640
16529TIP3    H171002   6.583   3.345   3.591  1.8450 -0.2382  0.7900
16529TIP3    H271003   6.617   3.247   3.480  0.8492 -0.6339  0.8214
16530TIP3   OH271004   5.132   0.263  16.610  0.2577 -0.5830 -0.0330
16530TIP3    H171005   5.188   0.341  16.617  0.9708 -0.8358 -2.0165
16530TIP3    H271006   5.080   0.263  16.690 -0.0782  2.1707 -0.1546
16531TIP3   OH271007   0.145   0.694   3.942  0.4353  0.3921  0.1214
16531TIP3    H171008   0.086   0.761   3.907  1.0146  2.0042  2.0469
16531TIP3    H271009   0.202   0.672   3.868 -0.7781  0.8387 -0.9862
16532TIP3   OH271010   6.677   0.925  13.750 -0.2459 -0.5008 -0.5537
16532TIP3    H171011   6.746   0.975  13.708 -1.5775 -0.2111 -2.5080
16532TIP3    H271012   6.680   0.952  13.842  2.5660 -0.9519 -0.4322
16533TIP3   OH271013   4.567   3.566   6.202 -0.2752  0.9331  0.2390
16533TIP3    H171014   4.555   3.631   6.133 -1.9228 -0.2833 -0.6832
16533TIP3    H271015   4.556   3.615   6.283 -0.3588  2.0041 -0.4049
16534TIP3   OH271016   1.714   3.685  11.352 -0.0671 -0.0335 -0.3459
16534TIP3    H171017   1.776   3.725  11.413  0.7201  0.6059 -1.5330
16534TIP3    H271018   1.726   3.733  11.271 -0.4290 -1.4796 -1.2877
16535TIP3   OH271019   1.039   3.375  15.016 -0.0889  0.2383  0.0515
16535TIP3    H171020   1.054   3.461  15.053 -0.0702  0.4334 -0.3962
16535TIP3    H271021   0.962   3.386  14.960 -0.1240 -0.0495  0.0421
16536TIP3   OH271022   2.672   2.698  13.790  0.4347  0.1480  0.2992
16536TIP3    H171023   2.651   2.696  13.883 -2.6662 -0.9937 -0.3065
16536TIP3    H271024   2.685   2.790  13.769  0.6111  0.4591  1.7237
16537TIP3   OH271025   2.378   4.127   4.595 -0.1102  0.0834  0.3067
16537TIP3    H171026   2.437   4.124   4.671  0.7994 -1.5626 -0.4054
16537TIP3    H271027   2.294   4.155   4.632  0.4932  0.0395  1.8028
16538TIP3   OH271028   1.305   3.553   1.469 -0.1057  0.0277 -0.3302
16538TIP3    H171029   1.328   3.466   1.438 -2.1255 -0.2240 -1.2890
16538TIP3    H271030   1.260   3.537   1.552  0.8063  0.2922  0.2235
16539TIP3   OH271031   3.767   5.905   1.524  0.3589  0.1508  0.7655
16539TIP3    H171032   3.682   5.942   1.501  0.3943 -0.1972  0.0630
16539TIP3    H271033   3.825   5.981   1.533  0.2117  0.3261  0.2431
16540TIP3   OH271034   6.325   2.602  12.274 -0.0888 -0.1212  0.6171
16540TIP3    H171035   6.375   2.579  12.196  0.1387 -1.7595  1.2013
16540TIP3    H271036   6.266   2.528  12.287 -1.1334  0.7914  1.1911
16541TIP3   OH271037   1.106   0.527  12.171  0.2967  0.5937  0.0029
16541TIP3    H171038   1.090   0.621  12.180 -0.7489  0.3418  0.9253
16541TIP3    H271039   1.078   0.489  12.254  0.3138 -0.5926 -0.5061
16542TIP3   OH271040   3.969   1.403   0.951 -0.1741  0.0726 -0.0463
16542TIP3    H171041   4.030   1.381   1.022 -0.8590 -2.4433 -0.1563
16542TIP3    H271042   4.018   1.384   0.871 -0.8844 -1.5958 -0.1373
16543TIP3   OH271043   1.082   4.276  15.565  0.2383 -0.1668 -0.3310
16543TIP3    H171044   1.097   4.296  15.473  3.9961  0.0289  0.1865
16543TIP3    H271045   1.101   4.183  15.574 -2.1387 -0.6895 -0.0193
16544TIP3   OH271046   0.481   6.584  12.881  0.3160  0.0144 -0.3848
16544TIP3    H171047   0.562   6.569  12.928  1.1953 -0.1009 -1.8653
16544TIP3    H271048   0.454   6.497  12.851 -1.8273 -0.3763  2.2750
16545TIP3   OH271049   6.719   4.759   1.124  0.2347 -0.7572  0.2084
16545TIP3    H171050   6.639   4.806   1.146  1.0345  0.4757  0.6277
16545TIP3    H271051   6.772   4.824   1.076  0.5499 -1.8768 -1.0288
16546TIP3   OH271052   2.655   1.196   5.664  0.6836  0.1840 -0.0749
16546TIP3    H171053   2.627   1.133   5.731 -0.2678 -0.4049 -1.0003
16546TIP3    H271054   2.611   1.277   5.689  1.3365  0.3110  0.7151
16547TIP3   OH271055   5.462   2.101   5.395  0.3687 -0.0277 -0.0368
16547TIP3    H171056   5.435   2.023   5.443  0.6310 -0.3160 -0.3500
16547TIP3    H271057   5.448   2.078   5.303  3.5386 -0.9414 -0.3748
16548TIP3   OH271058   4.936   5.088   5.851  0.4773  0.0464 -0.2418
16548TIP3    H171059   4.889   5.101   5.769  1.1661  0.8224 -0.5348
16548TIP3    H271060   4.905   5.159   5.908  0.2714 -0.2698  0.0403
16549TIP3   OH271061   2.182   5.267   2.266  0.3462  0.2070 -0.2250
16549TIP3    H171062   2.089   5.278   2.243  0.2730 -2.0306 -1.2755
16549TIP3    H271063   2.183   5.190   2.322  1.5929  0.2338 -0.1944
16550TIP3   OH271064   5.579   3.940   4.710 -0.6920 -0.1126 -0.2614
16550TIP3    H171065   5.608   3.849   4.715 -0.4273 -0.0399 -0.4100
16550TIP3    H271066   5.525   3.953   4.788 -1.6244 -0.7041 -0.7932
16551TIP3   OH271067   6.731   1.697  15.594  0.6037  0.3234 -0.2970
16551TIP3    H171068   6.702   1.782  15.562  0.4078  0.3256 -0.1172
16551TIP3    H271069   6.739   1.643  15.515  1.9413  0.8552 -0.5534
16552TIP3   OH271070   2.544   6.763   5.527 -0.3163 -0.1102  0.7233
16552TIP3    H171071   2.568   6.761   5.619 -0.0083 -3.8055  0.6815
16552TIP3    H271072   2.448   6.768   5.527 -0.4499 -2.0383  1.3585
16553TIP3   OH271073   1.241   5.169   6.206 -0.3096 -0.5621 -0.1316
16553TIP3    H171074   1.201   5.251   6.233  1.2293  0.5000 -0.9589
16553TIP3    H271075   1.332   5.191   6.186  0.0398 -2.3802 -0.7691
16554TIP3   OH271076   3.423   6.295   0.956 -0.2162  0.0848 -0.1259
16554TIP3    H171077   3.459   6.207   0.971  0.1943  0.5086  1.5831
16554TIP3    H271078   3.367   6.311   1.032 -1.6174  0.6779 -1.2268
16555TIP3   OH271079   1.218   2.990   4.775  0.1914 -0.3385 -0.1045
16555TIP3    H171080   1.152   3.009   4.709 -0.5582 -1.3842  0.3166
16555TIP3    H271081   1.211   3.062   4.837  0.8364  0.6001 -1.0909
16556TIP3   OH271082   1.659   0.036  12.608 -0.1554  0.3712 -0.0135
16556TIP3    H171083   1.631  -0.051  12.578  0.0814  0.0792  0.5862
16556TIP3    H271084   1.648   0.033  12.703  1.5323  0.3550  0.2137
16557TIP3   OH271085   3.616   2.270  13.437  0.2116  0.3301  0.1664
16557TIP3    H171086   3.538   2.257  13.491  0.5922 -3.2345  0.1236
16557TIP3    H271087   3.690   2.262  13.498  0.5868 -0.7023 -0.3946
16558TIP3   OH271088   4.745   1.934   3.295 -0.6626  0.0086 -0.6039
16558TIP3    H171089   4.825   1.956   3.246  0.2780 -0.5011  0.6501
16558TIP3    H271090   4.726   1.844   3.272  0.3888 -0.5853  0.7091
16559TIP3   OH271091   6.172   6.395  11.116 -0.0976 -0.4456  0.6290
16559TIP3    H171092   6.083   6.412  11.085  0.3197  0.4883 -0.0886
16559TIP3    H271093   6.197   6.476  11.162  0.7725 -0.2769 -0.1125
16560TIP3   OH271094   1.842   3.659  17.030  0.5088 -0.5131  0.0472
16560TIP3    H171095   1.904   3.678  16.960  0.3286 -0.8078 -0.1998
16560TIP3    H271096   1.759   3.696  16.999  0.1169 -1.7957 -0.5176
16561TIP3   OH271097   2.710   0.194  16.348 -0.2049 -0.0087 -0.2038
16561TIP3    H171098   2.788   0.166  16.396 -1.3780  0.0421  1.8669
16561TIP3    H271099   2.642   0.130  16.374 -1.1878  0.7576 -0.8352
16562TIP3   OH271100   0.081   2.937  16.616  0.1331  0.3137  0.7548
16562TIP3    H171101   0.115   2.849  16.601 -1.3503 -0.9864  4.0532
16562TIP3    H271102   0.159   2.992  16.626  1.1004 -0.9141  0.1270
16563TIP3   OH271103   4.525   6.332  15.902  0.0888  0.1608 -0.6352
16563TIP3    H171104   4.614   6.356  15.877  1.0674 -0.9115  1.5808
16563TIP3    H271105   4.513   6.367  15.990 -0.0804 -3.2368  0.8364
16564TIP3   OH271106   3.559   3.395   5.311 -0.0462 -0.4374  0.3403
16564TIP3    H171107   3.529   3.483   5.334 -0.3432 -0.5771  0.4845
16564TIP3    H271108   3.550   3.390   5.216 -0.3959 -0.4479  0.3730
16565TIP3   OH271109   2.355   4.816   4.113  0.0069 -0.0270  0.8446
16565TIP3    H171110   2.331   4.837   4.204 -2.4449  1.0427  0.0308
16565TIP3    H271111   2.271   4.812   4.066  1.2400  0.1152 -1.5169
16566TIP3   OH271112   0.150   2.666   3.141 -0.4762 -0.6986  0.0688
16566TIP3    H171113   0.127   2.679   3.233  1.0087 -1.0594  0.5163
16566TIP3    H271114   0.185   2.750   3.113  0.6676 -1.0587  0.3518
16567TIP3   OH271115   3.335   2.234   1.610  0.0357  0.3966  0.6170
16567TIP3    H171116   3.351   2.320   1.572  0.6399 -0.0970 -0.2635
16567TIP3    H271117   3.246   2.239   1.645  0.1591  1.4496  0.7871
16568TIP3   OH271118   4.861   4.538  13.055 -0.4465 -0.3165 -0.1603
16568TIP3    H171119   4.803   4.463  13.051 -0.4324 -0.4891  1.8901
16568TIP3    H271120   4.825   4.600  12.991 -0.8432 -1.7609 -1.3918
16569TIP3   OH271121   0.878   5.515   2.201  0.0318 -0.0303 -0.0847
16569TIP3    H171122   0.891   5.558   2.285  1.8411  3.5343 -1.9797
16569TIP3    H271123   0.836   5.432   2.223  2.8894 -0.6038  4.5535
16570TIP3   OH271124   2.357   2.742   5.263  0.3212 -0.2973  0.0715
16570TIP3    H171125   2.335   2.652   5.285  1.4660 -0.7893 -0.6885
16570TIP3    H271126   2.452   2.747   5.277  0.5772  0.2420 -1.6859
16571TIP3   OH271127   6.085   0.095   4.194  0.0902 -0.1828 -0.1303
16571TIP3    H171128   6.042   0.176   4.167  0.3094  0.8186  2.2480
16571TIP3    H271129   6.014   0.040   4.227  0.1884  0.0362  0.4704
16572TIP3   OH271130   4.095   4.521  17.063  0.3070  0.5336 -0.4005
16572TIP3    H171131   4.164   4.562  17.116 -2.1982  1.5659  2.3277
16572TIP3    H271132   4.064   4.591  17.006 -0.8604  1.1910  0.9807
16573TIP3   OH271133   6.581   3.897  13.727  0.4815  0.3710  0.5207
16573TIP3    H171134   6.654   3.835  13.729 -1.3593 -1.9246  1.5721
16573TIP3    H271135   6.504   3.844  13.745 -1.3309  2.8954  0.8019
16574TIP3   OH271136   3.233   1.569   0.138 -0.2886 -0.4274 -0.2513
16574TIP3    H171137   3.287   1.505   0.091  1.8635 -0.1538  1.6774
16574TIP3    H271138   3.296   1.626   0.182 -2.1538 -0.0976  2.2019
16575TIP3   OH271139   5.127   1.297   4.644 -0.5420  0.1694  0.3894
16575TIP3    H171140   5.206   1.351   4.653  0.1910 -0.9567  0.9963
16575TIP3    H271141   5.139   1.250   4.561 -0.2843 -0.4322  0.7594
16576TIP3   OH271142   3.793   5.935   1.826  0.6495  0.0528  0.1497
16576TIP3    H171143   3.713   5.955   1.874  1.3970 -0.0282  1.4927
16576TIP3    H271144   3.764   5.921   1.736 -0.4534  2.9087 -0.0473
16577TIP3   OH271145   2.851   2.691  13.190  0.5648  0.2149 -0.2232
16577TIP3    H171146   2.765   2.650  13.194  0.4965  0.4076  0.3398
16577TIP3    H271147   2.911   2.626  13.227  0.5521  0.3674  0.0668
16578TIP3   OH271148   4.537   4.180  17.028  0.2031 -0.2850 -0.5463
16578TIP3    H171149   4.578   4.234  16.960  0.8306  1.1352  0.8824
16578TIP3    H271150   4.471   4.238  17.067  0.5260 -0.7269  0.6829
16579TIP3   OH271151   4.144   3.036   1.403  0.1223 -0.3069  0.4068
16579TIP3    H171152   4.100   3.059   1.485  0.1023  1.3159 -0.0195
16579TIP3    H271153   4.236   3.026   1.427  0.2609  1.0005  0.5243
16580TIP3   OH271154   1.341   3.685   6.109 -0.2293 -0.1839  0.4094
16580TIP3    H171155   1.290   3.646   6.180 -0.2247  0.5630  0.8271
16580TIP3    H271156   1.429   3.649   6.121 -1.1165 -3.5818 -1.8610
16581TIP3   OH271157   6.062   5.224  11.382  0.4748 -0.3066 -0.0763
16581TIP3    H171158   6.137   5.277  11.408  0.1595  0.0591  0.1003
16581TIP3    H271159   6.001   5.286  11.343  0.1340 -0.5491  0.0627
16582TIP3   OH271160   6.059   6.466  17.106 -0.0142  0.5466 -0.6178
16582TIP3    H171161   5.998   6.409  17.154 -1.4946  2.4332 -0.0984
16582TIP3    H271162   6.138   6.466  17.160 -0.6210  0.3460  0.3149
16583TIP3   OH271163   0.936   4.744  10.861  0.1926  0.3620 -0.1351
16583TIP3    H171164   0.869   4.801  10.824 -0.0689 -0.5313 -1.0783
16583TIP3    H271165   0.951   4.678  10.794  1.6321  0.2306  0.2899
16584TIP3   OH271166   3.764   0.817   0.345 -0.6800  0.8288 -0.2885
16584TIP3    H171167   3.736   0.903   0.377 -2.0116  0.0359  0.8026
16584TIP3    H271168   3.820   0.837   0.270 -1.2142  2.6338 -0.2758
16585TIP3   OH271169   3.055   4.689   0.014 -0.9477 -0.0528  0.4454
16585TIP3    H171170   3.132   4.632   0.012 -0.1878  0.9616 -1.4525
16585TIP3    H271171   3.056   4.726   0.102 -0.9065 -2.1580  1.4036
16586TIP3   OH271172   2.946   1.705   3.984  0.5413 -0.5552 -0.9056
16586TIP3    H171173   3.024   1.652   3.969  0.7013 -0.3003 -0.9851
16586TIP3    H271174   2.881   1.643   4.017  0.5462 -0.9072 -1.5436
16587TIP3   OH271175   0.703   0.617  12.004 -0.4942  0.8820 -0.5303
16587TIP3    H171176   0.759   0.693  11.991 -0.3791  0.8885  0.0004
16587TIP3    H271177   0.616   0.654  12.022 -0.6515  0.8732 -1.2421
16588TIP3   OH271178   2.749   1.621  14.294  0.5192  0.3745 -0.4869
16588TIP3    H171179   2.671   1.617  14.238 -0.3429 -0.2225  0.7098
16588TIP3    H271180   2.787   1.533  14.288 -2.6605 -1.6836  3.9825
16589TIP3   OH271181   2.795   3.617   4.011  0.4722  0.1446 -0.5408
16589TIP3    H171182   2.767   3.679   3.945  1.7086  0.0566 -1.1791
16589TIP3    H271183   2.798   3.533   3.965  0.2594 -0.1209 -0.0761
16590TIP3   OH271184   4.324   5.763  15.148  0.5684  0.4218  0.0231
16590TIP3    H171185   4.351   5.674  15.172  0.2978  0.1147 -0.7726
16590TIP3    H271186   4.241   5.775  15.194 -0.3589 -0.4704 -1.3259
16591TIP3   OH271187   2.454   5.692  12.690 -0.1105  0.2107  0.1772
16591TIP3    H171188   2.542   5.664  12.715 -0.1573 -0.8661 -0.8167
16591TIP3    H271189   2.395   5.632  12.736 -0.3521  0.9424  0.8612
16592TIP3   OH271190   0.294   6.401   1.737 -0.3299  0.0917 -0.0294
16592TIP3    H171191   0.342   6.319   1.746 -0.9511 -0.1726  0.9593
16592TIP3    H271192   0.329   6.457   1.807  0.4480  0.8761 -0.9986
16593TIP3   OH271193   6.136   5.643   0.440  0.0070  0.1570  0.1729
16593TIP3    H171194   6.174   5.646   0.352 -1.5565 -0.6347 -0.5649
16593TIP3    H271195   6.056   5.695   0.434  0.8262  1.7398  1.6830
16594TIP3   OH271196   6.119   1.848  13.976  0.4241  0.3260 -0.0619
16594TIP3    H171197   6.050   1.904  13.939  0.8264  0.9045  0.0425
16594TIP3    H271198   6.183   1.840  13.905 -0.8892 -2.2956 -1.0680
16595TIP3   OH271199   5.863   2.069  14.351  0.1908  0.3193 -0.6767
16595TIP3    H171200   5.852   2.007  14.279 -0.1067 -1.2353  0.6599
16595TIP3    H271201   5.792   2.131  14.340  0.2066  0.1658 -1.7675
16596TIP3   OH271202   3.148   4.292   4.267 -0.0229  0.2080  0.2422
16596TIP3    H171203   3.205   4.362   4.236 -0.9402  1.1126  0.5395
16596TIP3    H271204   3.204   4.240   4.325  0.4547  1.1760  0.6693
16597TIP3   OH271205   4.862   2.427  13.911 -0.0644 -0.1948  0.0878
16597TIP3    H171206   4.912   2.383  13.843  0.6204  1.9385 -0.9038
16597TIP3    H271207   4.928   2.475  13.962 -0.8222  0.4438  0.4952
16598TIP3   OH271208   0.363   2.546  12.165 -0.4325  0.1380 -0.3290
16598TIP3    H171209   0.455   2.522  12.177 -0.8676 -1.5152 -0.0734
16598TIP3    H271210   0.328   2.550  12.254 -0.9096 -0.5336 -0.4828
16599TIP3   OH271211   2.873   0.795  10.712  0.1383  0.0128 -0.9524
16599TIP3    H171212   2.810   0.859  10.745 -0.2967 -1.4180  1.2040
16599TIP3    H271213   2.824   0.746  10.646 -0.4666  0.0340 -0.5333
16600TIP3   OH271214   3.968   5.446  13.368  0.6026 -0.1858 -0.3766
16600TIP3    H171215   3.937   5.535  13.348 -1.6077 -0.5458  1.0962
16600TIP3    H271216   4.063   5.455  13.374  0.4783  1.9820 -0.6827
16601TIP3   OH271217   5.919   2.743   0.167 -0.0120  0.3309 -0.2686
16601TIP3    H171218   5.916   2.649   0.151 -1.7460  0.4026 -0.6136
16601TIP3    H271219   6.011   2.762   0.182  0.4253 -1.3512 -0.5948
16602TIP3   OH271220   1.877   2.336  12.204  0.1272 -0.0563 -0.0318
16602TIP3    H171221   1.839   2.406  12.258 -2.3261  0.8457 -2.6897
16602TIP3    H271222   1.922   2.382  12.134  0.4653 -1.1791 -0.5634
16603TIP3   OH271223   1.929   5.281  11.909  0.2098 -0.4914  0.4842
16603TIP3    H171224   1.962   5.329  11.985  0.1466 -1.1447  0.9260
16603TIP3    H271225   1.878   5.209  11.946  1.0242 -1.4312 -0.1481
16604TIP3   OH271226   3.018   1.005  15.475  0.1680  0.2879 -0.1496
16604TIP3    H171227   3.095   0.947  15.482 -1.0225 -1.2671  0.8621
16604TIP3    H271228   3.032   1.053  15.394  1.3157 -1.3214 -0.9717
16605TIP3   OH271229   2.644   5.138  16.695  0.4619  0.1000  0.2343
16605TIP3    H171230   2.719   5.079  16.690  1.3512  1.2676 -1.0832
16605TIP3    H271231   2.588   5.112  16.622  1.3583  1.4599 -1.0042
16606TIP3   OH271232   2.831   6.769   0.766 -0.3283  0.1410  0.4103
16606TIP3    H171233   2.784   6.724   0.696  0.7752 -0.4108  0.0094
16606TIP3    H271234   2.798   6.859   0.764 -1.6444 -0.3269  0.4002
16607TIP3   OH271235   0.903   5.287  16.416  0.0403  0.0533  0.3891
16607TIP3    H171236   0.937   5.333  16.493 -0.4059 -0.1312  0.6970
16607TIP3    H271237   0.815   5.322  16.404  0.5764  1.0567 -0.8450
16608TIP3   OH271238   2.316   3.950  11.712  0.6410 -0.5561 -0.0891
16608TIP3    H171239   2.398   3.904  11.731 -0.3421 -1.3429  2.6853
16608TIP3    H271240   2.277   3.967  11.798 -1.5032  0.9793 -1.2599
16609TIP3   OH271241   6.254   6.630   3.546  0.0073  0.5148  0.2634
16609TIP3    H171242   6.287   6.568   3.611 -0.9662 -0.4923 -0.1788
16609TIP3    H271243   6.281   6.593   3.462  1.0385  1.6760  0.0497
16610TIP3   OH271244   6.774   1.081  15.181 -0.6313 -0.3009 -0.3950
16610TIP3    H171245   6.853   1.118  15.141 -1.2751 -0.4308 -1.8629
16610TIP3    H271246   6.734   1.154  15.227  0.6187 -0.3664  0.8413
16611TIP3   OH271247   0.423   2.598   2.340 -0.5076 -0.2077 -0.0797
16611TIP3    H171248   0.356   2.626   2.278 -1.9553 -1.6192  0.7757
16611TIP3    H271249   0.452   2.679   2.382 -2.2084  0.3744  0.0450
16612TIP3   OH271250   2.937   1.869   4.207 -0.3846 -0.0732 -0.0905
16612TIP3    H171251   2.958   1.819   4.128  0.1391 -0.7528  0.4695
16612TIP3    H271252   2.906   1.804   4.270  0.2608  0.2982  0.6300
16613TIP3   OH271253   5.958   3.136   4.055 -0.2422 -0.3630  0.2050
16613TIP3    H171254   6.030   3.076   4.037  0.9654  0.8210  0.9036
16613TIP3    H271255   5.903   3.091   4.119  0.0235 -1.1668 -0.1255
16614TIP3   OH271256   0.773   3.105  11.653  0.0301  0.2494 -0.3644
16614TIP3    H171257   0.792   3.056  11.573  0.9848  0.7913 -0.4844
16614TIP3    H271258   0.778   3.197  11.627  2.5326  0.5008  0.7370
16615TIP3   OH271259   6.559   4.499   3.732 -0.0000  0.2142 -0.3887
16615TIP3    H171260   6.547   4.525   3.823  0.7857 -2.9663  0.7432
16615TIP3    H271261   6.576   4.581   3.686  0.5086  1.8489  2.4564
16616TIP3   OH271262   4.109   3.547   6.586  0.6432 -0.0417 -0.2377
16616TIP3    H171263   4.090   3.625   6.533 -1.4538 -0.0708  0.3648
16616TIP3    H271264   4.098   3.578   6.676  0.6077 -0.8385  0.0322
16617TIP3   OH271265   1.248   4.469  14.783  0.0951 -0.6284  0.1217
16617TIP3    H171266   1.256   4.454  14.689  2.6267 -1.3183  0.3728
16617TIP3    H271267   1.260   4.383  14.822 -1.4672 -0.4412  1.0988
16618TIP3   OH271268   0.913   1.889   5.096  0.3506  0.5965  0.3377
16618TIP3    H171269   0.822   1.888   5.127  0.7338  1.5529  1.6335
16618TIP3    H271270   0.911   1.945   5.019 -0.6679 -1.9924 -1.6486
16619TIP3   OH271271   2.439   0.031   2.710  0.5601  0.1234  0.6288
16619TIP3    H171272   2.516  -0.016   2.742  0.6498 -0.0263  0.1967
16619TIP3    H271273   2.474   0.098   2.652  0.3495 -0.1424  0.1891
16620TIP3   OH271274   4.520   0.479   4.652 -0.0884 -0.0308  0.1367
16620TIP3    H171275   4.551   0.451   4.566 -0.5017  1.7907 -0.6446
16620TIP3    H271276   4.434   0.517   4.636  0.7092  2.2940  0.9755
16621TIP3   OH271277   5.213   4.685   2.775  0.3584  0.1784  0.1981
16621TIP3    H171278   5.150   4.624   2.813  0.2025 -1.9613 -3.1604
16621TIP3    H271279   5.298   4.658   2.811  0.2434 -1.8513 -0.9637
16622TIP3   OH271280   0.208   3.466  13.108 -0.1822  1.1093  0.1564
16622TIP3    H171281   0.151   3.543  13.117  0.6737  1.5383  3.2762
16622TIP3    H271282   0.270   3.490  13.038 -0.8464  2.6390  0.0499
16623TIP3   OH271283   5.082   3.735  10.752 -0.2709 -0.2207 -0.1003
16623TIP3    H171284   5.102   3.769  10.665  1.5241 -1.6316 -0.3072
16623TIP3    H271285   5.036   3.653  10.736 -0.2963 -0.2837  0.2815
16624TIP3   OH271286   6.573   4.774   3.674 -0.4833  0.1971  0.0813
16624TIP3    H171287   6.639   4.835   3.708  0.7960 -2.0969  2.0809
16624TIP3    H271288   6.489   4.813   3.699  0.2223  1.7698  0.1057
16625TIP3   OH271289   3.114   5.771   0.547 -0.4267  0.8542  0.3804
16625TIP3    H171290   3.148   5.813   0.626 -1.0281 -0.4350  1.3671
16625TIP3    H271291   3.025   5.744   0.570 -0.1144 -0.8272 -0.2021
16626TIP3   OH271292   5.039   0.453   5.187  0.4161 -0.5376 -0.0133
16626TIP3    H171293   5.007   0.401   5.261  1.5484  0.7444  1.4570
16626TIP3    H271294   4.975   0.524   5.179  0.9251  0.0131  0.5903
16627TIP3   OH271295   6.566   6.363   2.446 -0.3384 -0.3715  0.0283
16627TIP3    H171296   6.659   6.360   2.468 -0.4392 -0.5996  0.4307
16627TIP3    H271297   6.557   6.441   2.392  0.2301 -0.8019 -0.7049
16628TIP3   OH271298   4.137   5.686   1.893  0.1339 -0.4639 -0.1399
16628TIP3    H171299   4.094   5.601   1.887 -0.9636  0.1260 -1.0279
16628TIP3    H271300   4.079   5.739   1.948 -0.7348  0.5651 -1.9412
16629TIP3   OH271301   0.711   0.962  16.220  0.1978  0.3944 -0.0707
16629TIP3    H171302   0.734   0.948  16.128 -0.7170 -2.5880  0.0573
16629TIP3    H271303   0.629   1.011  16.217  0.2117  0.3813 -0.8245
16630TIP3   OH271304   4.444   3.025   4.577 -0.1693 -0.3633 -0.0520
16630TIP3    H171305   4.450   2.970   4.655  0.2603  0.1200  0.2592
16630TIP3    H271306   4.353   3.055   4.575 -0.7913 -2.1710 -0.9796
16631TIP3   OH271307   2.160   3.222  15.739  0.2596 -0.3810 -0.2109
16631TIP3    H171308   2.249   3.212  15.705  0.2783  1.9537 -1.0358
16631TIP3    H271309   2.170   3.214  15.834  0.9719 -2.2777 -0.4025
16632TIP3   OH271310   2.770   6.679  14.761 -0.4608 -0.2059 -0.3610
16632TIP3    H171311   2.755   6.772  14.779 -1.8003 -0.1486 -1.5541
16632TIP3    H271312   2.767   6.673  14.665 -3.8518 -1.9050 -0.3225
16633TIP3   OH271313   0.570   5.197  17.250 -0.0726  0.0589  0.9581
16633TIP3    H171314   0.561   5.142  17.172 -1.5526  1.0275  0.3929
16633TIP3    H271315   0.579   5.135  17.322  1.6610 -0.8683  0.0390
16634TIP3   OH271316   6.459   1.881   0.247 -0.6304 -0.0135 -0.1196
16634TIP3    H171317   6.392   1.941   0.280 -0.4241  0.5502 -0.6994
16634TIP3    H271318   6.516   1.865   0.322 -1.3648 -0.4475  0.3659
16635TIP3   OH271319   1.443   6.027   0.062 -0.0246  0.2736  0.0485
16635TIP3    H171320   1.485   5.969  -0.002  1.9638  0.6081  0.9590
16635TIP3    H271321   1.350   6.020   0.044  0.4252 -0.2282 -2.3682
16636TIP3   OH271322   2.522   2.854   3.182 -0.3631  0.0197 -0.0436
16636TIP3    H171323   2.516   2.758   3.185  1.8807 -0.1455  0.5577
16636TIP3    H271324   2.553   2.879   3.269 -0.2499  1.2491 -0.4202
16637TIP3   OH271325   2.930   1.733  13.313 -0.0949  0.4274  0.1780
16637TIP3    H171326   2.959   1.789  13.241  1.2948  0.5296  0.7944
16637TIP3    H271327   2.931   1.789  13.390 -2.8898  0.6991  0.1240
16638TIP3   OH271328   0.158   2.215  13.604 -0.1206  0.1723  0.1305
16638TIP3    H171329   0.207   2.170  13.673 -2.2171 -0.6896  1.1516
16638TIP3    H271330   0.158   2.153  13.531 -1.4020 -0.7590  0.8736
16639TIP3   OH271331   2.063   5.337  14.617  0.1165  0.3085  0.0352
16639TIP3    H171332   1.979   5.302  14.646  0.5361 -0.6225  0.1704
16639TIP3    H271333   2.128   5.285  14.664  0.7801  0.1109 -1.0638
16640TIP3   OH271334   0.799   1.707  16.645 -0.4619 -0.5483 -0.0166
16640TIP3    H171335   0.800   1.758  16.726  0.7262 -2.2974  1.1462
16640TIP3    H271336   0.864   1.748  16.590 -1.5442  0.8898 -0.2721
16641TIP3   OH271337   2.936   2.731   5.314 -0.0528  0.4025 -0.2796
16641TIP3    H171338   2.923   2.707   5.406 -0.5440  1.8732  0.0650
16641TIP3    H271339   2.953   2.825   5.316  0.8563  0.2971 -1.6293
16642TIP3   OH271340   2.028   4.910   5.625  0.6524  0.3003 -0.4758
16642TIP3    H171341   2.058   4.945   5.709 -2.7819  1.2026  0.5127
16642TIP3    H271342   2.084   4.952   5.560  2.0214  1.2044  1.2120
16643TIP3   OH271343   1.973   5.157   6.167  0.1682 -0.2455 -0.1763
16643TIP3    H171344   1.917   5.232   6.148  2.0026  1.1486 -0.3744
16643TIP3    H271345   1.935   5.119   6.247 -0.4865  1.2385  0.2688
16644TIP3   OH271346   6.308   5.089   1.590 -0.6334 -0.1199  0.2158
16644TIP3    H171347   6.234   5.046   1.633 -0.5192 -1.3068 -0.6960
16644TIP3    H271348   6.382   5.076   1.650 -0.5310 -1.5252 -0.1634
16645TIP3   OH271349   1.053   5.938  14.237 -0.1852 -0.4379  0.0884
16645TIP3    H171350   1.004   5.916  14.158 -3.1220  0.9077  1.3835
16645TIP3    H271351   1.073   5.853  14.277  0.7187 -1.1025 -1.6590
16646TIP3   OH271352   1.617   4.016   4.975  0.1017 -0.5690 -0.7981
16646TIP3    H171353   1.682   3.961   5.020 -0.8602 -1.1682 -0.1167
16646TIP3    H271354   1.669   4.071   4.916  1.4205  0.2181  0.9951
16647TIP3   OH271355   5.386   3.702   1.715 -0.0368 -0.1716  0.1664
16647TIP3    H171356   5.293   3.720   1.698  0.3011  0.3755 -1.2536
16647TIP3    H271357   5.399   3.612   1.685 -0.1447 -0.3270  0.5743
16648TIP3   OH271358   1.243   2.850  13.399  0.1251  0.1066  0.3631
16648TIP3    H171359   1.279   2.772  13.357  1.0777  0.7238  0.0099
16648TIP3    H271360   1.172   2.877  13.341 -0.3222 -0.5807  0.5744
16649TIP3   OH271361   6.044   4.232  15.520 -0.8349 -0.3019  0.0792
16649TIP3    H171362   6.113   4.184  15.475 -1.2455 -0.1968 -0.6787
16649TIP3    H271363   5.985   4.165  15.555 -0.3588 -0.3907  0.7253
16650TIP3   OH271364   5.320   6.606   0.742  0.0618 -0.6227 -0.3385
16650TIP3    H171365   5.327   6.523   0.789 -0.6142 -1.2165 -1.2697
16650TIP3    H271366   5.411   6.635   0.732  0.2180 -0.0171  2.0834
16651TIP3   OH271367   3.684   3.172   4.635 -0.5854 -0.0782 -0.1259
16651TIP3    H171368   3.669   3.199   4.544 -1.7036  0.9479  0.3301
16651TIP3    H271369   3.728   3.247   4.675 -2.3916  0.5544  0.7863
16652TIP3   OH271370   5.803   3.099  14.143 -0.0975  0.2542  0.7074
16652TIP3    H171371   5.757   3.088  14.059  0.4298  0.2399  0.4169
16652TIP3    H271372   5.831   3.011  14.167 -0.7735  0.1672  1.2072
16653TIP3   OH271373   5.050   0.642   0.404  1.0926 -0.4122 -0.2515
16653TIP3    H171374   5.007   0.696   0.470  3.9382  0.7532  0.8224
16653TIP3    H271375   5.137   0.626   0.440  2.2758 -0.9579 -3.1076
16654TIP3   OH271376   6.779   6.124  11.612 -0.1131 -0.6611 -0.4457
16654TIP3    H171377   6.789   6.219  11.616 -2.2237 -0.3654 -1.0671
16654TIP3    H271378   6.707   6.105  11.671  0.1215 -1.8676 -0.5153
16655TIP3   OH271379   4.839   3.406   6.387 -0.0549  0.7490 -0.6274
16655TIP3    H171380   4.874   3.470   6.448  0.1320  0.8841 -0.8714
16655TIP3    H271381   4.866   3.439   6.301  1.2100 -0.3525 -0.6857
16656TIP3   OH271382   6.677   1.686  14.310 -0.0812 -0.0578 -0.2079
16656TIP3    H171383   6.766   1.675  14.275  0.9541 -1.7162  2.6479
16656TIP3    H271384   6.666   1.781  14.317  1.3565  0.1882 -0.8123
16657TIP3   OH271385   2.703   6.156  16.074 -0.0098 -0.5913  0.4105
16657TIP3    H171386   2.663   6.190  15.995  0.1739  1.6823  1.2371
16657TIP3    H271387   2.797   6.158  16.057 -0.0064 -0.8886  0.3893
16658TIP3   OH271388   0.756   3.593   6.117 -0.7117 -0.2451  0.4807
16658TIP3    H171389   0.687   3.660   6.122 -1.0036 -0.4494 -0.4989
16658TIP3    H271390   0.771   3.581   6.023 -0.4205 -1.3036  0.6468
16659TIP3   OH271391   6.228   2.599   0.537 -0.1575 -0.5147  0.2407
16659TIP3    H171392   6.142   2.641   0.528  1.7517  3.5724 -1.5159
16659TIP3    H271393   6.237   2.547   0.457 -0.0146  1.3587 -1.0479
16660TIP3   OH271394   4.518   5.977  16.166 -0.7521  0.1396  0.2956
16660TIP3    H171395   4.476   6.028  16.236 -1.2688 -0.5854  0.5336
16660TIP3    H271396   4.444   5.940  16.117 -0.3918  0.6955 -0.6841
16661TIP3   OH271397   4.163   5.489   2.796 -0.0633 -0.1442  0.4752
16661TIP3    H171398   4.114   5.408   2.807 -0.2738 -0.0603  0.1718
16661TIP3    H271399   4.252   5.460   2.776 -0.1382 -0.3015  0.3691
16662TIP3   OH271400   0.245   2.970  13.572  0.3957 -0.3218 -0.1647
16662TIP3    H171401   0.156   2.987  13.605  0.5062 -1.9020  1.0751
16662TIP3    H271402   0.234   2.898  13.510  0.7267 -0.0626 -0.5239
16663TIP3   OH271403   2.180   4.513   5.932  0.0215 -0.2594  0.0443
16663TIP3    H171404   2.233   4.587   5.961  0.8465 -0.6542 -0.4258
16663TIP3    H271405   2.091   4.548   5.927  0.1945  0.3635  1.0145
16664TIP3   OH271406   4.402   6.119  16.390  1.0332 -0.2952 -0.1444
16664TIP3    H171407   4.435   6.200  16.429 -0.2955 -0.6046  1.7873
16664TIP3    H271408   4.432   6.050  16.449  1.7051 -1.1697 -1.4823
16665TIP3   OH271409   0.143   5.924   2.378  0.2875 -0.8590  0.0894
16665TIP3    H171410   0.186   5.921   2.464 -0.7169  1.3451  0.7283
16665TIP3    H271411   0.111   6.013   2.370 -0.6095 -1.3174 -2.1399
16666TIP3   OH271412   3.191   0.271   2.486  0.2197  0.3425  0.4497
16666TIP3    H171413   3.194   0.354   2.534 -0.7320 -0.9644  2.9152
16666TIP3    H271414   3.227   0.206   2.546 -1.1508 -1.4243 -0.5364
16667TIP3   OH271415   5.894   2.701   2.727 -0.2852  0.2685  0.5787
16667TIP3    H171416   5.809   2.698   2.684 -1.4441  0.8992  2.7098
16667TIP3    H271417   5.920   2.793   2.723 -1.0105  0.5717  2.2873
16668TIP3   OH271418   0.376   5.366  11.350 -0.2440 -0.2463  0.1541
16668TIP3    H171419   0.364   5.378  11.256 -0.3283 -1.6249 -0.0337
16668TIP3    H271420   0.464   5.328  11.358 -1.4668 -3.3998  0.2601
16669TIP3   OH271421   6.754   2.129  16.275 -0.7828 -0.2183 -0.7744
16669TIP3    H171422   6.663   2.124  16.246 -1.1408 -0.4097  0.3237
16669TIP3    H271423   6.752   2.094  16.364  0.6016 -1.4866 -1.2053
16670TIP3   OH271424   2.082   4.067   2.866 -0.0097 -0.3627  0.2417
16670TIP3    H171425   2.012   4.128   2.888 -0.3568  0.0498 -1.8826
16670TIP3    H271426   2.153   4.091   2.926 -0.9541  0.5413  1.0511
16671TIP3   OH271427   5.223   6.471  16.025  0.4941  0.3453 -0.0338
16671TIP3    H171428   5.270   6.550  16.051  0.9090 -0.1896  0.9015
16671TIP3    H271429   5.138   6.478  16.068 -0.3567  1.3418 -1.7720
16672TIP3   OH271430   0.637   0.238   2.009 -0.0708  0.4647 -0.2543
16672TIP3    H171431   0.714   0.263   1.958 -0.1366 -0.0999 -0.6294
16672TIP3    H271432   0.564   0.282   1.965 -0.0800  0.2809 -0.4195
16673TIP3   OH271433   0.456   4.031   4.937 -0.1199 -0.5938  0.0567
16673TIP3    H171434   0.462   4.075   4.853 -1.2870 -1.9799 -0.7951
16673TIP3    H271435   0.363   4.009   4.947  0.3938 -2.9581  0.3318
16674TIP3   OH271436   4.803   3.138  13.832 -0.2222  0.1386  0.3828
16674TIP3    H171437   4.880   3.086  13.808 -0.2204 -0.1659  1.0398
16674TIP3    H271438   4.733   3.074  13.841 -0.9375  0.5509 -1.6632
16675TIP3   OH271439   0.290   4.165  12.035  0.2657 -0.1213 -0.4065
16675TIP3    H171440   0.216   4.222  12.017 -0.4292 -1.0586 -0.6038
16675TIP3    H271441   0.251   4.087  12.074  1.2033 -0.4286 -0.0630
16676TIP3   OH271442   2.108   3.994  15.270 -1.0497  0.8506  0.3369
16676TIP3    H171443   2.202   3.988  15.256 -1.0484 -0.7408  0.7969
16676TIP3    H271444   2.072   4.020  15.185 -0.2343  0.9856  0.0320
16677TIP3   OH271445   4.212   3.561  15.505  0.2120  0.5297  0.2114
16677TIP3    H171446   4.228   3.490  15.567 -0.2502 -0.2130 -0.5065
16677TIP3    H271447   4.252   3.638  15.546  1.7359 -0.3716  0.4649
16678TIP3   OH271448   6.372   4.924  12.665 -0.3840  0.2378 -0.1664
16678TIP3    H171449   6.465   4.900  12.665 -0.7421 -1.2109 -0.2633
16678TIP3    H271450   6.352   4.944  12.756 -0.2249 -0.4675  0.0232
16679TIP3   OH271451   1.520   3.922  11.055 -0.1395 -0.4999  0.0845
16679TIP3    H171452   1.549   4.012  11.048  1.1869 -0.8679  0.5735
16679TIP3    H271453   1.530   3.886  10.967 -2.3285  0.2718 -0.5345
16680TIP3   OH271454   3.459   5.439   5.578  0.1481 -0.0218 -0.2433
16680TIP3    H171455   3.443   5.518   5.528  1.2174  0.8089  0.6568
16680TIP3    H271456   3.554   5.437   5.589  0.1247 -1.3570 -0.1234
16681TIP3   OH271457   1.486   2.403   2.436 -0.3072  0.1721  0.4131
16681TIP3    H171458   1.551   2.404   2.507 -0.5581  0.6167  0.6415
16681TIP3    H271459   1.404   2.428   2.478 -0.2993  1.2355 -0.1776
16682TIP3   OH271460   4.497   2.111  13.607 -1.0760 -0.0205  0.0297
16682TIP3    H171461   4.504   2.111  13.512 -1.0854 -2.2424 -0.0102
16682TIP3    H271462   4.587   2.123  13.638 -1.2237  2.0722 -0.1892
16683TIP3   OH271463   6.635   3.997   4.665 -0.1411 -0.0183 -0.8636
16683TIP3    H171464   6.610   4.045   4.586 -0.1162  0.9586 -0.3060
16683TIP3    H271465   6.672   4.065   4.722 -0.6311 -0.6132  0.1761
16684TIP3   OH271466   5.330   0.380   2.746  0.2706  0.5102  0.1857
16684TIP3    H171467   5.257   0.420   2.794  0.0349  1.6914 -1.0773
16684TIP3    H271468   5.405   0.389   2.805 -0.3643  0.2943  1.0488
16685TIP3   OH271469   3.519   5.881   1.298 -0.0637 -0.0448 -0.2264
16685TIP3    H171470   3.452   5.815   1.317 -0.8700  1.0314  0.7938
16685TIP3    H271471   3.526   5.881   1.203 -2.9043  1.1123 -0.5340
16686TIP3   OH271472   4.548   3.739  12.019  0.5929 -0.2069 -0.0965
16686TIP3    H171473   4.561   3.816  12.074  1.6397 -0.8343  0.5523
16686TIP3    H271474   4.500   3.772  11.943  0.0689  0.8739  0.6722
16687TIP3   OH271475   3.572   4.372  14.770 -0.0299  0.6219 -0.1855
16687TIP3    H171476   3.635   4.312  14.809  0.1710  1.0476  0.1576
16687TIP3    H271477   3.496   4.318  14.750  0.2086  0.2252 -0.0264
16688TIP3   OH271478   0.094   5.860   3.342 -0.3954 -0.1911  0.2697
16688TIP3    H171479   0.126   5.864   3.432 -0.6533 -0.3078  0.3677
16688TIP3    H271480   0.025   5.793   3.344  0.4413 -1.0912 -0.2771
16689TIP3   OH271481   5.061   4.279  16.676 -0.3105 -0.3308  0.5988
16689TIP3    H171482   4.977   4.301  16.716 -0.1495 -1.0364  1.3547
16689TIP3    H271483   5.123   4.340  16.716 -0.2689 -0.5827  0.9268
16690TIP3   OH271484   0.839   4.106  17.145 -0.1339  0.2098  0.7025
16690TIP3    H171485   0.797   4.047  17.082  0.1515  0.0276  0.6837
16690TIP3    H271486   0.825   4.064  17.230 -0.1735  0.2579  0.7201
16691TIP3   OH271487   5.839   1.358  13.899 -0.8453  0.0489 -0.2943
16691TIP3    H171488   5.844   1.363  13.804 -0.1913  0.1141 -0.2598
16691TIP3    H271489   5.929   1.344  13.927 -0.7795  1.6208  0.3980
16692TIP3   OH271490   5.718   2.302   3.470 -0.5571  0.2227  0.0829
16692TIP3    H171491   5.627   2.319   3.444 -0.9404  1.0246  1.8385
16692TIP3    H271492   5.738   2.216   3.432 -1.8429  0.2887 -0.8134
16693TIP3   OH271493   5.163   1.128  15.915 -0.1562 -0.1779  0.2077
16693TIP3    H171494   5.121   1.099  15.834  0.5365  0.7118 -0.4853
16693TIP3    H271495   5.234   1.066  15.930  0.7549  0.5860 -0.7845
16694TIP3   OH271496   4.107   1.409   0.455  1.0436  0.4512 -0.0764
16694TIP3    H171497   4.152   1.479   0.407  0.9092  0.4468 -0.2109
16694TIP3    H271498   4.052   1.454   0.519 -2.3777  0.7801 -2.8984
16695TIP3   OH271499   1.298   4.580   4.840  0.0842 -0.2240 -0.2637
16695TIP3    H171500   1.326   4.495   4.874 -0.8448 -0.5207 -0.2017
16695TIP3    H271501   1.279   4.564   4.747 -2.2688 -0.6658  0.2369
16696TIP3   OH271502   0.069   1.775   1.544  0.3632  0.3449 -0.4945
16696TIP3    H171503   0.099   1.866   1.550 -1.2608  0.8813  0.1573
16696TIP3    H271504   0.064   1.746   1.634 -0.4843  0.0921 -0.6160
16697TIP3   OH271505   5.072   5.324  12.302 -0.6001 -0.6595  0.3632
16697TIP3    H171506   5.066   5.319  12.207 -1.0296 -2.4266  0.4490
16697TIP3    H271507   4.987   5.291  12.333 -0.2896 -0.5483  1.3632
16698TIP3   OH271508   3.518   2.963   1.616  0.0256  0.0610  0.9209
16698TIP3    H171509   3.485   3.050   1.595  1.8488  0.5544 -0.1304
16698TIP3    H271510   3.607   2.962   1.580 -0.5806 -2.8789 -0.7610
16699TIP3   OH271511   4.461   0.174  16.914 -0.3056 -0.3566 -0.1973
16699TIP3    H171512   4.411   0.199  16.992  0.4113  0.0620  0.1391
16699TIP3    H271513   4.412   0.101  16.877 -0.5051 -0.7626  0.8160
16700TIP3   OH271514   6.194   2.938  13.573  0.4482  0.2989  0.0419
16700TIP3    H171515   6.116   2.906  13.528 -0.7779 -0.5837  2.6002
16700TIP3    H271516   6.252   2.862  13.576  0.9131  0.6067 -0.7526
16701TIP3   OH271517   5.544   6.414  11.823  0.0583  0.3064  0.3612
16701TIP3    H171518   5.591   6.414  11.906  2.3977 -2.7611 -0.7773
16701TIP3    H271519   5.472   6.352  11.836 -2.1431  2.8338  1.1915
16702TIP3   OH271520   1.808   5.057   4.341  0.2903  0.9829 -0.0247
16702TIP3    H171521   1.816   5.153   4.332 -0.1011  0.8866 -1.8545
16702TIP3    H271522   1.888   5.031   4.388  1.1821  2.0576 -0.8670
16703TIP3   OH271523   1.556   1.751  15.702 -0.1997 -0.2787 -0.4126
16703TIP3    H171524   1.507   1.692  15.760 -0.2244  0.9835  0.8985
16703TIP3    H271525   1.648   1.732  15.721 -0.1991 -0.4614 -0.5937
16704TIP3   OH271526   5.629   2.845  13.915  0.2104  0.1021  0.2594
16704TIP3    H171527   5.722   2.869  13.910  0.1416  0.1503 -1.5010
16704TIP3    H271528   5.592   2.910  13.975  1.4322 -0.3891  1.6030
16705TIP3   OH271529   1.398   2.690  13.728 -0.0360  0.4035  0.8817
16705TIP3    H171530   1.445   2.663  13.649 -2.0622  0.1843 -0.3528
16705TIP3    H271531   1.463   2.737  13.780  1.0810  1.8626 -1.5995
16706TIP3   OH271532   5.947   2.758  17.039 -0.2805 -0.3594 -0.5522
16706TIP3    H171533   5.977   2.848  17.029 -0.8752 -0.1696 -0.7099
16706TIP3    H271534   6.026   2.707  17.056  0.0653  0.1845 -0.5178
16707TIP3   OH271535   3.670   0.161  13.510  0.1898 -0.0887  0.6278
16707TIP3    H171536   3.607   0.222  13.548  0.9071  0.8441  0.3631
16707TIP3    H271537   3.737   0.150  13.577 -0.2326 -1.0751  0.9076
16708TIP3   OH271538   2.454   0.993   5.915  0.1452 -0.1070  0.1166
16708TIP3    H171539   2.544   1.027   5.917 -0.0412  0.3708  1.2531
16708TIP3    H271540   2.402   1.066   5.882  0.1804 -0.4206 -0.6483
16709TIP3   OH271541   1.115   1.077  16.523  0.1011  0.7294  0.0127
16709TIP3    H171542   1.077   1.084  16.435  0.0372 -0.0920 -0.0339
16709TIP3    H271543   1.161   1.159  16.536 -0.6775  1.2456 -0.4189
16710TIP3   OH271544   4.175   0.846  12.188 -0.3238  0.4983 -0.2843
16710TIP3    H171545   4.193   0.874  12.278 -0.1046  2.5403 -0.9329
16710TIP3    H271546   4.139   0.757  12.198 -1.2011  1.0320  1.8873
16711TIP3   OH271547   5.442   6.677  12.019 -0.1642  0.6400 -0.0202
16711TIP3    H171548   5.378   6.722  11.963  0.8176  0.8873 -0.9908
16711TIP3    H271549   5.524   6.683  11.970  0.4458 -0.3243  0.8509
16712TIP3   OH271550   0.184   1.074  12.822  0.3897 -0.4130 -0.0352
16712TIP3    H171551   0.176   1.142  12.756  1.0115 -0.2523  0.0477
16712TIP3    H271552   0.214   1.120  12.901 -0.1567 -0.6305  0.3102
16713TIP3   OH271553   2.799   1.106   3.212  0.8375  0.3066  0.8511
16713TIP3    H171554   2.809   1.151   3.295  1.5306  2.2895 -0.2538
16713TIP3    H271555   2.881   1.124   3.164  0.8481 -1.5490  0.0722
16714TIP3   OH271556   2.575   2.006   1.152 -0.5109 -0.0385  0.7097
16714TIP3    H171557   2.545   2.097   1.155 -1.6597 -0.3490 -0.3569
16714TIP3    H271558   2.651   2.003   1.210  1.4947  2.3103 -1.5787
16715TIP3   OH271559   1.068   0.432   1.479  0.4193  0.2932  0.4046
16715TIP3    H171560   1.074   0.503   1.415  1.0017  0.9462  1.1766
16715TIP3    H271561   1.152   0.386   1.472 -0.5551 -1.3513 -1.2484
16716TIP3   OH271562   5.368   5.178  15.442  0.5883  0.1584  0.1076
16716TIP3    H171563   5.388   5.268  15.467 -1.5618 -0.0545  3.2900
16716TIP3    H271564   5.442   5.127  15.474  0.6839  0.5621  0.5414
16717TIP3   OH271565   2.991   3.147   3.084  0.2495  0.2421 -0.8387
16717TIP3    H171566   3.077   3.105   3.080 -0.1926 -0.6128 -3.2398
16717TIP3    H271567   3.009   3.237   3.112  1.6166 -0.5454  0.9893
16718TIP3   OH271568   4.032   3.620   1.903 -0.1734 -0.5164  0.0749
16718TIP3    H171569   4.013   3.547   1.844 -0.9475  1.5938 -2.4770
16718TIP3    H271570   4.104   3.589   1.958 -1.7284 -3.8441  0.4788
16719TIP3   OH271571   5.835   2.041   5.571  0.0191 -0.2327 -0.2604
16719TIP3    H171572   5.755   2.086   5.543 -0.3673 -1.6669 -1.6430
16719TIP3    H271573   5.881   2.022   5.489  0.4451 -1.8057  0.3109
16720TIP3   OH271574   4.025   5.850   1.628 -0.3958 -0.3477  0.5592
16720TIP3    H171575   3.955   5.804   1.583 -1.4961  3.5126 -2.1223
16720TIP3    H271576   3.991   5.865   1.716 -2.0350 -0.3338 -0.0593
16721TIP3   OH271577   3.045   4.258  17.155  0.7467 -0.4715  0.7953
16721TIP3    H171578   2.986   4.211  17.096 -0.8295  0.4788  1.5433
16721TIP3    H271579   3.112   4.194  17.179  0.7831 -1.2066 -1.0984
16722TIP3   OH271580   0.734   0.067   3.339 -0.2259 -0.4807 -0.6139
16722TIP3    H171581   0.775   0.007   3.401 -1.2370  0.4060  0.9699
16722TIP3    H271582   0.691   0.133   3.394 -1.7203 -0.0326 -2.2366
16723TIP3   OH271583   5.113   5.543  13.051  0.0288  0.0656  0.0007
16723TIP3    H171584   5.080   5.620  13.005 -1.0269 -1.2367 -1.5213
16723TIP3    H271585   5.125   5.572  13.142  2.4098  2.8050 -1.0526
16724TIP3   OH271586   3.227   1.639  12.594  0.0508  0.6138  0.0241
16724TIP3    H171587   3.209   1.729  12.568 -0.3686 -0.1833 -2.8024
16724TIP3    H271588   3.276   1.602  12.520  1.0154 -1.2485  1.4995
16725TIP3   OH271589   2.745   3.315  12.729 -0.0462  0.1962 -0.4351
16725TIP3    H171590   2.827   3.288  12.770 -1.1851  0.8639  2.5520
16725TIP3    H271591   2.735   3.257  12.654  2.2547 -1.1007  0.1802
16726TIP3   OH271592   1.134   2.829  11.274  0.4205 -0.5282 -0.0213
16726TIP3    H171593   1.161   2.889  11.203  1.6716  0.8688  1.5538
16726TIP3    H271594   1.073   2.769  11.232 -0.2595  1.3362 -1.8928
16727TIP3   OH271595   5.854   6.363  13.683  0.1100 -0.4025 -0.4857
16727TIP3    H171596   5.774   6.316  13.706  0.4009 -0.8392 -0.3633
16727TIP3    H271597   5.886   6.399  13.765 -0.6592  0.8842 -0.7287
16728TIP3   OH271598   2.308   2.892   4.572 -0.4494 -0.6261  0.5683
16728TIP3    H171599   2.363   2.816   4.552 -0.8121 -0.9124  0.6569
16728TIP3    H271600   2.345   2.963   4.519 -0.0511 -0.8403  0.5582
16729TIP3   OH271601   5.567   5.727  13.203  0.1297  0.5338  0.3407
16729TIP3    H171602   5.596   5.693  13.118  0.2537 -1.1147  0.9863
16729TIP3    H271603   5.646   5.727  13.257 -0.1710  0.3773  0.7953
16730TIP3   OH271604   1.878   2.830  11.318 -0.1786 -0.5734 -0.0517
16730TIP3    H171605   1.845   2.745  11.344 -0.0207 -0.9130 -0.9152
16730TIP3    H271606   1.900   2.820  11.225  1.9015 -0.2407  0.3495
16731TIP3   OH271607   2.468   5.352  14.857  0.2567 -0.4565  0.4295
16731TIP3    H171608   2.455   5.424  14.919  3.2050 -0.5657  1.3218
16731TIP3    H271609   2.525   5.388  14.789  1.9317 -1.9113  0.9823
16732TIP3   OH271610   6.279   5.507  15.840 -0.0891 -0.5131 -0.1258
16732TIP3    H171611   6.374   5.506  15.829  0.0944  0.7443  1.1462
16732TIP3    H271612   6.254   5.415  15.846  1.3900 -0.8419  2.0489
16733TIP3   OH271613   2.020   1.969  17.185  0.1992  0.1729 -0.4078
16733TIP3    H171614   2.044   1.924  17.105  1.3295  0.9692 -0.5475
16733TIP3    H271615   2.080   1.934  17.251 -0.9643 -0.7520  0.2086
16734TIP3   OH271616   1.864   0.626  15.018  0.2136 -0.7207  0.6332
16734TIP3    H171617   1.782   0.634  15.066 -1.9411 -1.6074 -2.5964
16734TIP3    H271618   1.909   0.710  15.033 -2.6541  1.0109  0.2293
16735TIP3   OH271619   2.340   3.338  12.023  0.1555 -0.2387 -0.0143
16735TIP3    H171620   2.356   3.416  11.970  0.1501  0.4378  0.9395
16735TIP3    H271621   2.425   3.295  12.030  0.4534  0.4229  0.5633
16736TIP3   OH271622   1.413   1.071  14.747 -0.3417 -0.1122 -0.3159
16736TIP3    H171623   1.350   1.142  14.754 -0.8918 -0.0500 -4.0493
16736TIP3    H271624   1.388   1.010  14.817 -1.3524  2.1676  1.4239
16737TIP3   OH271625   3.792   0.868  15.690 -0.1073 -0.1236  0.3119
16737TIP3    H171626   3.817   0.891  15.780  0.2991  0.2351  0.1135
16737TIP3    H271627   3.752   0.781  15.697  0.7808 -0.5128  0.7157
16738TIP3   OH271628   2.937   1.736   4.793 -0.1971  0.2495 -0.5263
16738TIP3    H171629   2.848   1.772   4.800 -0.5603 -0.9111  1.4446
16738TIP3    H271630   2.991   1.796   4.843 -0.7112 -1.4756  2.2827
16739TIP3   OH271631   3.551   0.819   5.277  0.3334 -0.0401  0.3986
16739TIP3    H171632   3.484   0.755   5.304 -0.8409  0.9432 -0.0965
16739TIP3    H271633   3.528   0.899   5.323  0.8972  0.4435 -0.1464
16740TIP3   OH271634   1.175   0.381  13.366 -0.3154 -0.0487  0.6907
16740TIP3    H171635   1.253   0.417  13.407 -0.2728 -2.2392  2.7356
16740TIP3    H271636   1.182   0.407  13.274  0.3971  3.7188  1.6623
16741TIP3   OH271637   5.616   3.009  11.048 -0.2882 -0.1238 -0.2440
16741TIP3    H171638   5.676   2.934  11.047 -0.2314 -0.0893 -2.0103
16741TIP3    H271639   5.561   2.997  10.971  0.2908  2.1038 -1.0753
16742TIP3   OH271640   6.191   3.410   0.791 -0.9797  0.0412  0.2420
16742TIP3    H171641   6.125   3.434   0.856 -0.3497  2.7629 -0.0338
16742TIP3    H271642   6.175   3.469   0.717  0.7558 -0.3206 -0.4801
16743TIP3   OH271643   2.305   4.356   4.734 -0.0010 -0.2854 -0.3135
16743TIP3    H171644   2.319   4.432   4.791  1.8025 -1.3276  0.7266
16743TIP3    H271645   2.386   4.306   4.740 -1.4128 -2.7384 -0.2801
16744TIP3   OH271646   1.359   3.734  16.035  0.1896  0.2411  0.2406
16744TIP3    H171647   1.393   3.764  16.119  1.6234  1.1955 -0.6477
16744TIP3    H271648   1.429   3.751  15.973 -1.0429  0.0660 -1.2631
16745TIP3   OH271649   2.649   3.280  15.281  0.6203 -0.1015  0.2620
16745TIP3    H171650   2.716   3.234  15.231 -0.8804 -3.1803  0.8673
16745TIP3    H271651   2.585   3.212  15.305 -1.8706  2.3421  1.1248
16746TIP3   OH271652   5.496   1.338  12.070  0.1676 -0.1539 -0.0176
16746TIP3    H171653   5.480   1.338  11.975 -2.8134 -0.4578  0.4063
16746TIP3    H271654   5.560   1.268  12.083  1.6934  0.7906 -1.9006
16747TIP3   OH271655   4.932   6.734   0.400  0.4093 -0.3780 -0.4348
16747TIP3    H171656   4.949   6.747   0.307 -0.9282 -0.1702 -0.6778
16747TIP3    H271657   4.852   6.682   0.403 -0.3443  0.7752  0.5832
16748TIP3   OH271658   3.195   2.361   3.377  0.0944  0.4715 -0.7429
16748TIP3    H171659   3.159   2.428   3.319  1.2146 -1.0848 -3.4097
16748TIP3    H271660   3.284   2.392   3.397  0.5527 -0.0926 -1.8391
16749TIP3   OH271661   1.469   3.797  12.604 -0.3856  0.6757  0.0357
16749TIP3    H171662   1.400   3.787  12.538  1.1069  0.1907 -1.5276
16749TIP3    H271663   1.487   3.708  12.634 -0.9684  0.8824  1.0334
16750TIP3   OH271664   3.059   4.549  15.089 -0.5111 -0.6080 -0.3943
16750TIP3    H171665   3.053   4.645  15.087  1.7895 -0.3251  1.4647
16750TIP3    H271666   2.969   4.520  15.100 -1.0302  1.5339  1.9651
16751TIP3   OH271667   2.269   1.727  12.428  0.2992  0.2284  0.4547
16751TIP3    H171668   2.284   1.700  12.519  0.0773 -0.2560  0.3491
16751TIP3    H271669   2.330   1.675  12.377 -1.7819 -1.9542 -0.0116
16752TIP3   OH271670   1.597   3.625   0.395  0.5199  0.2442  0.7341
16752TIP3    H171671   1.603   3.573   0.475 -1.4946 -0.7078  0.3182
16752TIP3    H271672   1.510   3.665   0.398  0.5123  0.4243 -0.8366
16753TIP3   OH271673   2.248   0.830   0.245  0.3451  0.8200  0.2320
16753TIP3    H171674   2.340   0.858   0.242  0.3785  0.6737 -1.7919
16753TIP3    H271675   2.233   0.806   0.336  2.4959  0.2396  0.4915
16754TIP3   OH271676   2.467   2.110   2.401 -0.2556  0.0662 -0.2386
16754TIP3    H171677   2.381   2.101   2.361 -0.6908  1.2629  0.3862
16754TIP3    H271678   2.495   2.020   2.419 -1.6258 -0.3134  0.0654
16755TIP3   OH271679   4.749   5.895   1.621  0.2307 -0.3738  0.3096
16755TIP3    H171680   4.839   5.923   1.636  0.4312 -1.5672  1.4996
16755TIP3    H271681   4.727   5.841   1.697 -1.4265 -0.2673 -0.0453
16756TIP3   OH271682   2.418   4.010  12.336 -0.0935 -0.0498  0.3828
16756TIP3    H171683   2.406   4.093  12.383  1.6547  0.7241 -0.4472
16756TIP3    H271684   2.396   3.943  12.401 -0.1470  1.0332  1.5356
16757TIP3   OH271685   4.172   0.916  15.058  0.2252 -0.2710 -0.1120
16757TIP3    H171686   4.182   1.003  15.094 -0.2484 -0.8540  1.4973
16757TIP3    H271687   4.080   0.912  15.030 -0.0704 -0.6290  0.8854
16758TIP3   OH271688   6.035   4.145  11.876  0.3497  0.3568 -0.1041
16758TIP3    H171689   6.045   4.190  11.960  1.3033  0.0291 -0.0267
16758TIP3    H271690   6.082   4.200  11.814  0.8753 -0.1380 -0.1507
16759TIP3   OH271691   2.074   0.093   2.640 -0.3756 -0.6618  0.6138
16759TIP3    H171692   1.985   0.120   2.617  0.0672 -0.9207 -1.6501
16759TIP3    H271693   2.121   0.093   2.557  1.6356 -0.9916  1.6885
16760TIP3   OH271694   2.647   3.732   1.902 -0.2542 -0.0005 -0.1832
16760TIP3    H171695   2.670   3.772   1.819 -0.6646 -0.3637 -0.4760
16760TIP3    H271696   2.644   3.638   1.884 -0.3543 -0.0828  0.2361
16761TIP3   OH271697   2.861   5.907   0.378  0.1983  0.4591  0.1161
16761TIP3    H171698   2.890   5.943   0.462 -0.3142  0.1678  0.4207
16761TIP3    H271699   2.767   5.898   0.387  0.3447 -1.3297  0.1964
16762TIP3   OH271700   1.760   3.859   2.499 -0.3196 -0.0130  0.0268
16762TIP3    H171701   1.703   3.936   2.496 -1.3757 -0.7478  0.5060
16762TIP3    H271702   1.814   3.872   2.577 -0.7828  0.0544  0.3375
16763TIP3   OH271703   6.610   5.830   6.515 -0.5672  0.4974 -0.2593
16763TIP3    H171704   6.685   5.809   6.570  0.0322  0.2680 -1.1390
16763TIP3    H271705   6.537   5.783   6.555  0.1150 -0.6920 -0.3615
16764TIP3   OH271706   1.620   1.948  11.583  0.0898 -0.3500  0.1828
16764TIP3    H171707   1.622   1.981  11.494 -0.1429  0.3548  0.4307
16764TIP3    H271708   1.677   1.871  11.582  3.8651  2.1555  0.4188
16765TIP3   OH271709   0.428   4.742   1.405 -0.3060  0.2833 -0.5380
16765TIP3    H171710   0.353   4.733   1.464 -0.5405 -2.2610 -1.1438
16765TIP3    H271711   0.484   4.807   1.448 -1.6915  0.4413  1.1471
16766TIP3   OH271712   1.447   3.589   1.209 -0.8411 -0.3180 -0.0973
16766TIP3    H171713   1.528   3.640   1.210 -0.3749 -1.0390  0.4513
16766TIP3    H271714   1.409   3.601   1.296 -0.5284 -1.1823  0.1744
16767TIP3   OH271715   4.076   2.332   5.456 -0.2716 -0.1644 -0.0921
16767TIP3    H171716   4.130   2.257   5.431 -0.6928 -0.4595 -0.1359
16767TIP3    H271717   4.041   2.308   5.541 -0.0761  0.1678  0.0833
16768TIP3   OH271718   6.049   2.135  15.077 -0.0028 -0.0833 -0.7409
16768TIP3    H171719   6.012   2.166  14.994 -1.6831  0.3043  0.0996
16768TIP3    H271720   6.097   2.211  15.111  0.1706 -0.0460 -1.0639
16769TIP3   OH271721   1.380   3.823   3.538 -0.3286  0.3920  0.2496
16769TIP3    H171722   1.454   3.880   3.515 -1.2165  1.2974 -0.4394
16769TIP3    H271723   1.357   3.850   3.627  2.0100 -1.9400  1.7217
16770TIP3   OH271724   0.235   6.514  12.739  0.4750 -0.0878  0.0196
16770TIP3    H171725   0.142   6.490  12.733  0.0912  1.6403 -2.1772
16770TIP3    H271726   0.274   6.482  12.658  1.8222 -0.7464  0.8944
16771TIP3   OH271727   0.505   2.665   5.602 -0.1774  0.6241 -0.0145
16771TIP3    H171728   0.469   2.751   5.624  0.1726  0.8459 -0.2886
16771TIP3    H271729   0.545   2.633   5.683 -0.9423  0.3980  0.2767
16772TIP3   OH271730   4.533   3.463  12.745  0.2418 -0.2400 -0.1142
16772TIP3    H171731   4.622   3.500  12.744  0.5855 -1.0490  0.0544
16772TIP3    H271732   4.533   3.402  12.818  0.9217 -3.5154 -2.6077
16773TIP3   OH271733   3.784   2.203   5.464 -0.4902 -0.2384  0.1644
16773TIP3    H171734   3.859   2.242   5.508 -1.1992  1.8719 -0.3954
16773TIP3    H271735   3.766   2.123   5.513  2.1168 -0.8178  0.2776
16774TIP3   OH271736   4.234   1.499   1.878 -0.4365 -0.1211  0.1389
16774TIP3    H171737   4.239   1.433   1.809  1.4462  0.0044  0.1112
16774TIP3    H271738   4.238   1.583   1.832  1.6556 -0.0346  0.3848
16775TIP3   OH271739   4.424   6.184   5.202  0.0785 -0.0814 -0.2976
16775TIP3    H171740   4.500   6.171   5.259  1.1303 -3.1271 -2.1239
16775TIP3    H271741   4.350   6.150   5.251  1.1473 -3.7614 -0.9208
16776TIP3   OH271742   3.152   0.651   0.088 -0.1205  0.4509  0.1213
16776TIP3    H171743   3.115   0.581   0.142 -1.9233  1.1914 -0.0784
16776TIP3    H271744   3.207   0.701   0.149 -0.7136  0.2453  0.8408
16777TIP3   OH271745   4.299   0.153  13.322 -0.7987  0.3478 -0.0551
16777TIP3    H171746   4.293   0.232  13.374  0.1240  1.5113 -1.6321
16777TIP3    H271747   4.280   0.181  13.232 -0.4189 -1.1979 -0.6584
16778TIP3   OH271748   2.429   1.748  13.321  0.0135  0.6085 -0.0867
16778TIP3    H171749   2.334   1.758  13.325 -0.1357  0.0581 -1.7893
16778TIP3    H271750   2.446   1.702  13.239  1.5834 -1.6097  1.3399
16779TIP3   OH271751   4.381   6.402   6.070  0.6861  0.0488  0.0078
16779TIP3    H171752   4.415   6.426   6.156  0.8002 -2.3487  0.7156
16779TIP3    H271753   4.453   6.420   6.010  1.7476 -1.0518  0.8889
16780TIP3   OH271754   4.782   2.939  12.878 -0.2777  0.9399  0.1844
16780TIP3    H171755   4.711   2.938  12.814  1.8151 -0.5409 -2.2891
16780TIP3    H271756   4.862   2.932  12.826  1.6851  1.3783  2.8964
16781TIP3   OH271757   2.030   2.284  16.129 -0.2969  0.1547 -0.0031
16781TIP3    H171758   2.009   2.354  16.190 -0.3119  0.7828 -0.7200
16781TIP3    H271759   2.125   2.283  16.125 -0.3165  0.7503 -0.6936
16782TIP3   OH271760   5.339   2.132  14.428 -0.5030  0.6484  0.6232
16782TIP3    H171761   5.400   2.162  14.360 -0.3246  0.3130  0.6337
16782TIP3    H271762   5.381   2.055  14.465 -0.1636  1.3565  1.7445
16783TIP3   OH271763   5.969   0.207  16.281 -0.2874  0.1583 -0.2682
16783TIP3    H171764   5.946   0.295  16.253 -0.0066  0.5612  0.7259
16783TIP3    H271765   5.955   0.152  16.203 -0.2888  1.0985 -0.9444
16784TIP3   OH271766   5.586   1.326   5.852 -0.3988 -0.1795 -0.0387
16784TIP3    H171767   5.606   1.263   5.921 -0.2685 -1.6425 -1.3659
16784TIP3    H271768   5.671   1.353   5.819 -0.4784 -0.4064 -0.4319
16785TIP3   OH271769   1.345   0.160   2.904 -0.0629  0.0910  0.0620
16785TIP3    H171770   1.367   0.068   2.920 -1.5791 -0.5410 -1.2993
16785TIP3    H271771   1.273   0.158   2.842  0.6364  2.2451 -0.9315
16786TIP3   OH271772   5.116   4.764   3.117  0.1557  0.1784  0.7748
16786TIP3    H171773   5.125   4.852   3.155  0.4199 -0.0361  1.2209
16786TIP3    H271774   5.193   4.755   3.060 -0.9428  1.0245 -0.9204
16787TIP3   OH271775   1.430   3.943   1.638 -0.0749 -0.6525 -0.3817
16787TIP3    H171776   1.488   3.893   1.580  0.6762 -0.0700 -0.1495
16787TIP3    H271777   1.342   3.912   1.616  0.0836  0.1924 -2.5015
16788TIP3   OH271778   3.189   1.040  11.667  0.3127 -0.5393  0.0605
16788TIP3    H171779   3.158   1.124  11.698 -1.0681 -1.1759  0.4756
16788TIP3    H271780   3.152   1.031  11.579  1.8649  0.0044 -0.6886
16789TIP3   OH271781   5.017   6.373  16.181  0.3532  0.5631  0.0366
16789TIP3    H171782   4.999   6.304  16.117 -0.3130  1.0123 -0.2682
16789TIP3    H271783   4.949   6.439  16.165 -1.8926 -0.7111  3.2632
16790TIP3   OH271784   5.775   5.643   0.408  0.1055 -0.1367 -0.0929
16790TIP3    H171785   5.770   5.713   0.342  1.7837 -0.4733 -0.6391
16790TIP3    H271786   5.814   5.686   0.484 -0.3575 -0.1104  0.1290
16791TIP3   OH271787   0.507   3.928   1.298  0.4468 -0.3180  0.2406
16791TIP3    H171788   0.454   3.916   1.377 -0.5065 -0.4543 -0.4030
16791TIP3    H271789   0.590   3.963   1.330 -0.1870  0.3230  1.2393
16792TIP3   OH271790   6.426   4.485  13.935  0.4392 -0.0131  0.3786
16792TIP3    H171791   6.396   4.472  13.845  2.1184  0.4457 -0.2957
16792TIP3    H271792   6.374   4.425  13.987 -0.6970 -0.1576 -0.8807
16793TIP3   OH271793   5.957   1.533  12.922 -0.1843  0.0996 -0.1789
16793TIP3    H171794   5.876   1.543  12.973  0.4920  1.1196  0.7636
16793TIP3    H271795   5.988   1.445  12.943 -0.3494  0.2072  0.5409
16794TIP3   OH271796   2.519   6.425   4.565  0.1167 -0.4044  0.2555
16794TIP3    H171797   2.573   6.346   4.570  1.9020  0.7136 -0.3230
16794TIP3    H271798   2.567   6.490   4.616 -1.8300  0.0895  1.5835
16795TIP3   OH271799   2.966   4.795  15.588 -0.6385  0.8016 -0.2327
16795TIP3    H171800   2.956   4.874  15.641  2.4232  1.2181 -0.0854
16795TIP3    H271801   3.051   4.805  15.546 -1.0700 -1.5077 -1.8656
16796TIP3   OH271802   4.892   1.388   4.365  0.2089  0.5285 -1.0207
16796TIP3    H171803   4.870   1.458   4.426 -0.0766 -0.3393 -0.1135
16796TIP3    H271804   4.851   1.310   4.402  2.6265 -0.6453 -0.6785
16797TIP3   OH271805   1.648   4.449  13.304 -0.1226  0.2701 -0.3733
16797TIP3    H171806   1.681   4.532  13.337 -0.7417 -0.1233  1.3313
16797TIP3    H271807   1.576   4.472  13.246 -0.7026  0.9103  0.5884
16798TIP3   OH271808   4.165   4.061  16.945  0.0175 -0.4241  0.7122
16798TIP3    H171809   4.110   4.008  16.887 -0.6583 -2.0386  2.7013
16798TIP3    H271810   4.253   4.026  16.934  0.0622 -0.1001  0.0064
16799TIP3   OH271811   0.263   5.054   5.753 -0.0562 -0.1139  0.5828
16799TIP3    H171812   0.238   4.999   5.828 -0.8816  0.6063  0.8526
16799TIP3    H271813   0.180   5.085   5.718  0.4136  1.5767  0.8961
16800TIP3   OH271814   0.813   0.195  15.743 -0.2409 -0.7175 -0.6064
16800TIP3    H171815   0.727   0.237  15.756 -0.4372 -1.6090  1.2579
16800TIP3    H271816   0.866   0.263  15.700 -1.2945  0.5581  0.0173
16801TIP3   OH271817   1.884   5.113  14.676  0.2897  0.2016  0.4085
16801TIP3    H171818   1.816   5.172  14.642  0.7416  1.2163  1.2098
16801TIP3    H271819   1.842   5.065  14.747  0.4402  0.9712  1.0346
16802TIP3   OH271820   2.583   1.853   4.124 -0.1019  0.0254 -0.8986
16802TIP3    H171821   2.640   1.859   4.048  0.8959 -1.2471 -0.3083
16802TIP3    H271822   2.600   1.765   4.159  0.9432  1.2311  1.9027
16803TIP3   OH271823   0.709   2.011   4.072 -0.2259 -0.5054 -0.0680
16803TIP3    H171824   0.619   1.980   4.086 -0.3654 -0.1711 -0.2314
16803TIP3    H271825   0.764   1.937   4.100 -0.5486 -0.6842  0.0992
16804TIP3   OH271826   2.697   3.959  16.225  0.2620  0.5720 -0.2216
16804TIP3    H171827   2.779   3.940  16.271  0.1362  1.9632  0.6394
16804TIP3    H271828   2.721   4.025  16.160  0.1138 -0.1812 -1.0553
16805TIP3   OH271829   5.129   0.225   4.336  0.0123  0.3235  0.3102
16805TIP3    H171830   5.112   0.268   4.420  1.9735  0.4585  0.6990
16805TIP3    H271831   5.094   0.285   4.270  0.5413  1.3569  0.9514
16806TIP3   OH271832   0.209   0.965   1.845 -0.3564 -0.4490  0.5777
16806TIP3    H171833   0.209   1.052   1.886  1.3420 -0.0797 -0.0885
16806TIP3    H271834   0.182   0.982   1.755 -0.1889 -0.6307  0.4923
16807TIP3   OH271835   5.990   0.264  13.456 -0.5939 -0.4318  0.2455
16807TIP3    H171836   6.079   0.266  13.421 -0.5266 -1.5084  0.3271
16807TIP3    H271837   5.939   0.216  13.390 -1.5237  1.6764 -0.6537
16808TIP3   OH271838   3.244   6.556   2.224 -0.2143  0.1029  0.0112
16808TIP3    H171839   3.252   6.646   2.255 -0.7793  0.3875 -0.6394
16808TIP3    H271840   3.185   6.562   2.149 -0.8324 -0.9095  0.3925
16809TIP3   OH271841   1.483   5.447  16.433 -0.2515  0.0558 -0.0920
16809TIP3    H171842   1.445   5.427  16.347 -0.6166 -2.9433  0.6562
16809TIP3    H271843   1.411   5.434  16.495  0.3225  0.9534  0.7959
16810TIP3   OH271844   3.899   6.130  13.640  0.1892 -0.1968  0.6107
16810TIP3    H171845   3.901   6.199  13.574 -0.9659  0.1770  0.9493
16810TIP3    H271846   3.862   6.172  13.718  0.2791 -0.9785  1.0826
16811TIP3   OH271847   1.681   2.938  16.354 -0.0884 -0.7095 -0.2738
16811TIP3    H171848   1.608   2.904  16.303  1.1657  0.2430 -2.8594
16811TIP3    H271849   1.688   3.030  16.329 -0.3901  0.3240  2.9137
16812TIP3   OH271850   2.471   5.672   4.590 -0.2634  0.1786 -0.4689
16812TIP3    H171851   2.411   5.727   4.540 -0.3984  0.5111  0.0483
16812TIP3    H271852   2.518   5.734   4.647 -2.3881 -0.4682  2.1790
16813TIP3   OH271853   5.469   5.819   4.341 -0.3241 -0.5836 -0.5256
16813TIP3    H171854   5.423   5.864   4.270 -1.2930  0.0924  0.5021
16813TIP3    H271855   5.528   5.885   4.377 -0.8869 -0.4659  0.2139
16814TIP3   OH271856   4.787   4.565  13.738  0.7339  0.2340 -0.0489
16814TIP3    H171857   4.848   4.616  13.685  1.4428 -0.7133 -0.1644
16814TIP3    H271858   4.841   4.500  13.782 -0.0514  0.0649  0.6953
16815TIP3   OH271859   1.392   2.318   2.770 -0.3343  0.0966  0.0659
16815TIP3    H171860   1.439   2.400   2.753 -0.2841  0.3168  1.1868
16815TIP3    H271861   1.333   2.308   2.695 -1.2167  1.7979  0.4742
16816TIP3   OH271862   2.721   6.232   4.479 -0.0148 -0.2857  0.0995
16816TIP3    H171863   2.771   6.168   4.528 -0.3847 -0.3826  0.3538
16816TIP3    H271864   2.767   6.240   4.395  1.9560  1.5504  1.2536
16817TIP3   OH271865   2.373   5.331   0.508  0.0275  0.1549 -0.0461
16817TIP3    H171866   2.435   5.318   0.436  0.3595  1.8634 -0.1119
16817TIP3    H271867   2.288   5.341   0.465  0.3613  2.1564 -0.3356
16818TIP3   OH271868   4.836   2.807   5.537  0.2814 -0.3358 -0.9392
16818TIP3    H171869   4.917   2.843   5.572 -1.0829  1.3265  0.7009
16818TIP3    H271870   4.790   2.772   5.613 -2.3164  2.4535 -1.0555
16819TIP3   OH271871   6.560   6.267  12.413  0.3622  0.2356  0.2943
16819TIP3    H171872   6.545   6.181  12.373  4.0325 -0.0973 -0.7079
16819TIP3    H271873   6.505   6.327  12.363 -0.5933 -1.1891 -0.4389
16820TIP3   OH271874   3.549   2.202   5.735 -0.5890 -0.2507  0.1828
16820TIP3    H171875   3.466   2.198   5.783  0.1603  0.7389  1.6105
16820TIP3    H271876   3.549   2.288   5.694 -0.0632 -0.0692  0.5627
16821TIP3   OH271877   3.489   5.872  12.414  0.1135 -0.0756  0.0643
16821TIP3    H171878   3.447   5.918  12.487  1.1636 -2.1772  2.1422
16821TIP3    H271879   3.418   5.851  12.354 -1.2986 -0.7003  1.8664
16822TIP3   OH271880   1.840   4.547   3.418  0.4104 -0.2210  0.1863
16822TIP3    H171881   1.830   4.452   3.421  1.6003 -0.3477  2.0043
16822TIP3    H271882   1.914   4.560   3.358 -1.3447 -0.2034 -2.1099
16823TIP3   OH271883   0.772   6.237  15.522 -0.1214 -0.1220 -0.5030
16823TIP3    H171884   0.690   6.210  15.481  0.9895 -0.7985 -2.3793
16823TIP3    H271885   0.828   6.160  15.519  0.5045  0.2321  1.0458
16824TIP3   OH271886   4.644   5.701   3.103  0.3259  0.2008  0.1585
16824TIP3    H171887   4.567   5.749   3.133  0.7451  0.8134  0.2706
16824TIP3    H271888   4.608   5.622   3.061 -0.2958 -0.7744  2.3477
16825TIP3   OH271889   3.803   1.826  15.048  0.3955  0.2335  0.3492
16825TIP3    H171890   3.771   1.905  15.091  1.7356  0.5590  0.7954
16825TIP3    H271891   3.747   1.816  14.971 -0.1913  1.2638  0.6255
16826TIP3   OH271892   5.802   5.879   2.539 -0.3815  0.2292 -0.6808
16826TIP3    H171893   5.805   5.849   2.448 -0.5766 -0.7335 -0.3800
16826TIP3    H271894   5.715   5.918   2.548 -1.4060 -2.0621 -0.2001
16827TIP3   OH271895   3.324   4.728   2.803  0.2267 -0.1283  0.6076
16827TIP3    H171896   3.288   4.732   2.892 -0.8648  1.3451  0.1498
16827TIP3    H271897   3.258   4.772   2.749  0.7303 -1.2386 -0.9946
16828TIP3   OH271898   5.087   6.746  13.526 -0.8163  0.7511  0.1171
16828TIP3    H171899   5.169   6.724  13.482 -0.4258  2.4682 -0.0574
16828TIP3    H271900   5.102   6.721  13.618 -0.9525 -1.0638 -0.3206
16829TIP3   OH271901   1.233   2.775   4.126  0.0983  0.4148 -0.2496
16829TIP3    H171902   1.272   2.745   4.044 -0.4900  0.3836 -0.5300
16829TIP3    H271903   1.212   2.867   4.110  2.6675  1.2696  0.9004
16830TIP3   OH271904   2.035   0.634  11.675  0.2194 -0.4381 -0.0143
16830TIP3    H171905   2.124   0.612  11.702  0.4456  0.4783  0.0127
16830TIP3    H271906   1.986   0.552  11.686  0.3264 -0.2326  3.0922
16831TIP3   OH271907   5.701   1.640  14.364 -0.6026 -0.1605 -0.0523
16831TIP3    H171908   5.769   1.694  14.325 -0.0392 -1.7169 -1.3540
16831TIP3    H271909   5.740   1.606  14.445 -0.4082  0.1606 -0.0108
16832TIP3   OH271910   3.437   6.604  15.565 -0.1783 -0.2595  0.0074
16832TIP3    H171911   3.372   6.672  15.552 -0.2665  0.0804  1.9469
16832TIP3    H271912   3.386   6.524  15.579 -0.1024 -0.4632 -0.8113
16833TIP3   OH271913   3.612   5.914   5.820 -0.0076  0.6329  0.5737
16833TIP3    H171914   3.701   5.880   5.808 -0.2553  0.6969 -1.8583
16833TIP3    H271915   3.558   5.836   5.831 -0.0155  0.3869 -0.9513
16834TIP3   OH271916   0.588   5.202   3.399 -0.3381 -0.7392  0.0323
16834TIP3    H171917   0.514   5.153   3.435 -0.2446 -1.2669 -0.4947
16834TIP3    H271918   0.631   5.239   3.476 -1.3164 -0.1704  0.3388
16835TIP3   OH271919   6.551   5.938   1.381  0.5774 -0.1070  0.3605
16835TIP3    H171920   6.567   5.981   1.464  0.1589  0.9974 -0.1138
16835TIP3    H271921   6.478   5.986   1.342  2.9628  1.7704 -2.2232
16836TIP3   OH271922   2.843   2.200   0.564 -0.5965 -0.4840  0.5361
16836TIP3    H171923   2.775   2.264   0.585  0.5634  0.5438  1.2739
16836TIP3    H271924   2.901   2.245   0.503 -0.1326 -1.0682  0.5329
16837TIP3   OH271925   4.490   5.171  12.608 -0.3388  0.0316 -0.3938
16837TIP3    H171926   4.537   5.186  12.690  1.2913  0.2247 -1.3123
16837TIP3    H271927   4.460   5.080  12.613  0.0469 -0.0646  0.2676
16838TIP3   OH271928   1.781   0.235   3.733 -0.1124  0.2084 -0.6844
16838TIP3    H171929   1.686   0.229   3.726 -0.0286 -0.4529 -1.6283
16838TIP3    H271930   1.813   0.196   3.651  0.9859 -0.3181 -0.0283
16839TIP3   OH271931   5.462   0.912   3.264  0.5839 -0.1480  0.2128
16839TIP3    H171932   5.497   0.994   3.300 -0.7584  0.9615 -0.8898
16839TIP3    H271933   5.454   0.929   3.170  2.4825 -2.4028 -0.4703
16840TIP3   OH271934   0.940   1.413  10.657 -0.4573  0.4136 -0.0230
16840TIP3    H171935   0.845   1.409  10.652 -0.6677  1.6944  2.0126
16840TIP3    H271936   0.966   1.477  10.590 -1.0187  0.1596 -0.4879
16841TIP3   OH271937   4.810   6.735   6.426 -0.5101 -0.6114 -0.4617
16841TIP3    H171938   4.758   6.792   6.369  0.1589  1.1294  0.5531
16841TIP3    H271939   4.840   6.664   6.370 -1.2582  0.1330 -1.8488
16842TIP3   OH271940   1.144   0.208  12.814 -0.0069 -0.1621  0.0251
16842TIP3    H171941   1.084   0.149  12.859 -0.7482  1.9844  2.0772
16842TIP3    H271942   1.095   0.241  12.739 -1.4002  1.3335  1.5077
16843TIP3   OH271943   3.197   2.677  14.007 -0.1543 -0.6249 -0.2427
16843TIP3    H171944   3.288   2.707  14.015 -0.3755  0.5795 -1.7170
16843TIP3    H271945   3.172   2.652  14.096  0.2302  3.1833  1.1092
16844TIP3   OH271946   0.831   3.256   3.479 -0.0876  0.5002  0.0862
16844TIP3    H171947   0.742   3.276   3.450 -0.6770  0.1435  1.5458
16844TIP3    H271948   0.845   3.164   3.454 -0.1026  0.5708 -0.1861
16845TIP3   OH271949   1.026   3.408  12.598 -0.0906  0.1387 -0.2420
16845TIP3    H171950   1.105   3.444  12.637  0.6562 -1.0602 -0.6163
16845TIP3    H271951   0.968   3.391  12.672 -0.5327  2.1863 -0.0572
16846TIP3   OH271952   2.795   1.844  14.944 -0.5390  0.8696  0.1177
16846TIP3    H171953   2.821   1.753  14.958 -0.0597  1.0995  0.7487
16846TIP3    H271954   2.707   1.838  14.908 -0.9334  0.1786  1.1448
16847TIP3   OH271955   2.530   4.225   4.824 -0.1225  0.1888 -0.0981
16847TIP3    H171956   2.513   4.252   4.914  0.0890 -1.1107  0.3489
16847TIP3    H271957   2.619   4.191   4.825 -0.2784 -0.2569 -0.7072
16848TIP3   OH271958   0.635   0.757  10.868  0.2056  0.3316  0.3392
16848TIP3    H171959   0.660   0.759  10.776 -0.0691 -1.1501  0.2139
16848TIP3    H271960   0.544   0.729  10.869  0.3252 -0.0822  1.0692
16849TIP3   OH271961   0.726   0.278  16.909  0.4117  0.4944  0.1493
16849TIP3    H171962   0.759   0.288  16.998  0.7972 -1.0814  0.2093
16849TIP3    H271963   0.631   0.276  16.918  0.4733 -0.6145  0.6500
16850TIP3   OH271964   0.481   5.461   5.741 -0.0521 -0.1598  0.0029
16850TIP3    H171965   0.570   5.439   5.714  0.1457  0.6255 -0.0134
16850TIP3    H271966   0.428   5.451   5.662  0.1638  0.1186 -0.1801
16851TIP3   OH271967   4.416   6.376   2.209  0.3994 -0.5166  0.6726
16851TIP3    H171968   4.390   6.311   2.143  0.3513 -0.8567  1.0236
16851TIP3    H271969   4.402   6.461   2.166 -0.6177 -0.7095  0.6106
16852TIP3   OH271970   0.632   5.031   1.888 -0.6429 -1.2094  0.3215
16852TIP3    H171971   0.719   5.011   1.923 -0.5743 -1.4450  0.0295
16852TIP3    H271972   0.649   5.097   1.820 -0.8009 -0.5836  0.8873
16853TIP3   OH271973   4.880   6.581   6.732 -0.1468  0.1204  0.1945
16853TIP3    H171974   4.914   6.635   6.661 -1.5986  0.5878 -0.1872
16853TIP3    H271975   4.915   6.493   6.715  1.8441  0.8086  0.5486
16854TIP3   OH271976   2.294   1.268   3.549 -0.0206 -0.6251 -0.5388
16854TIP3    H171977   2.206   1.230   3.539  0.7055 -2.6858  0.2953
16854TIP3    H271978   2.332   1.220   3.622  1.8723  0.0957 -1.0033
16855TIP3   OH271979   1.842   4.500   5.183  0.0822  0.8489 -0.8194
16855TIP3    H171980   1.875   4.578   5.137  1.5873  1.2013  0.7760
16855TIP3    H271981   1.803   4.533   5.263  1.3125 -0.0559  0.1937
16856TIP3   OH271982   1.311   6.278  12.082 -0.3109  0.5400 -0.2675
16856TIP3    H171983   1.346   6.195  12.112 -4.0265 -0.6693  1.4212
16856TIP3    H271984   1.273   6.259  11.996 -0.3539  0.7354 -0.2935
16857TIP3   OH271985   3.540   5.078   1.883 -0.0280 -0.5079  0.2917
16857TIP3    H171986   3.532   5.025   1.963  0.4949 -0.0452  0.6583
16857TIP3    H271987   3.474   5.042   1.824 -0.7668 -0.5311  1.1062
16858TIP3   OH271988   2.273   0.065  15.429 -0.2628  0.3391 -0.0191
16858TIP3    H171989   2.322   0.012  15.367 -1.2934  2.0554 -2.4597
16858TIP3    H271990   2.187   0.075  15.389 -1.3584  0.6757  2.2355
16859TIP3   OH271991   2.661   0.880   4.178 -0.6190  0.0046  0.3691
16859TIP3    H171992   2.698   0.855   4.262  1.8647 -0.5153 -0.7858
16859TIP3    H271993   2.688   0.971   4.166 -0.0992 -0.2216 -0.2674
16860TIP3   OH271994   1.648   4.220  12.401  0.5241  0.2653 -0.2975
16860TIP3    H171995   1.590   4.236  12.475  0.3646 -0.9208 -0.1395
16860TIP3    H271996   1.690   4.136  12.421  2.8774  1.4087 -0.0422
16861TIP3   OH271997   2.785   3.661  13.704 -0.4032 -0.4792  0.3756
16861TIP3    H171998   2.705   3.710  13.719  0.2034  0.3952  0.8232
16861TIP3    H271999   2.776   3.629  13.614 -2.5856 -2.9897  1.3772
16862TIP3   OH272000   0.591   5.045  16.315 -0.4708  0.1259 -0.3365
16862TIP3    H172001   0.661   5.077  16.257 -1.1591 -0.3172 -1.4386
16862TIP3    H272002   0.600   5.099  16.394  1.5395 -0.3756 -0.1593
16863TIP3   OH272003   0.678   4.353  17.131 -0.0043 -0.3940 -0.3151
16863TIP3    H172004   0.700   4.355  17.224 -2.1464 -0.9147  0.2663
16863TIP3    H272005   0.713   4.270  17.098  0.5663 -0.3072  0.0789
16864TIP3   OH272006   5.642   5.049  17.085  0.0015 -0.1962 -0.1567
16864TIP3    H172007   5.649   5.142  17.065  0.2179  0.0324  0.9430
16864TIP3    H272008   5.555   5.024  17.053 -0.0668  0.3838 -0.4332
16865TIP3   OH272009   4.120   4.628   1.268  0.3544  0.6336 -0.3829
16865TIP3    H172010   4.143   4.540   1.237  0.3112  0.1221  0.9333
16865TIP3    H272011   4.035   4.646   1.229 -0.6226 -0.8196  0.9625
16866TIP3   OH272012   1.779   5.195   4.656  0.2364 -0.4388 -0.2799
16866TIP3    H172013   1.781   5.278   4.703  0.6875 -0.3760 -0.4090
16866TIP3    H272014   1.860   5.194   4.605 -0.7014 -0.0330 -1.8554
16867TIP3   OH272015   2.930   1.159  14.622  0.8830 -0.7400  0.0530
16867TIP3    H172016   2.835   1.159  14.609  1.1302  1.0448 -2.7362
16867TIP3    H272017   2.941   1.160  14.717 -1.8420 -1.7036  0.4742
16868TIP3   OH272018   5.638   6.035   0.465  0.8939  0.1192 -0.2248
16868TIP3    H172019   5.557   6.087   0.468  1.5604  1.1078  1.6032
16868TIP3    H272020   5.708   6.099   0.453  1.5279 -0.6432 -0.7557
16869TIP3   OH272021   6.142   6.749  13.859  0.4157 -0.0345  0.1373
16869TIP3    H172022   6.084   6.826  13.866  0.1839 -0.1995  0.0548
16869TIP3    H272023   6.166   6.729  13.950  0.2732 -0.0163  0.1795
16870TIP3   OH272024   3.671   2.295   4.500 -0.1586 -0.0236 -0.2033
16870TIP3    H172025   3.697   2.269   4.412  0.2577  1.9493 -0.7140
16870TIP3    H272026   3.639   2.384   4.490  1.3051  0.8127  1.8541
16871TIP3   OH272027   3.804   5.885  12.516  0.3148 -0.7640 -0.4283
16871TIP3    H172028   3.737   5.939  12.474 -0.2421 -3.0060 -2.6769
16871TIP3    H272029   3.822   5.815  12.453  0.8598 -3.3063  2.2902
16872TIP3   OH272030   4.282   5.253  13.382 -0.3681  0.2795 -0.1000
16872TIP3    H172031   4.368   5.222  13.411 -0.2055  1.4799  0.7391
16872TIP3    H272032   4.294   5.346  13.366 -1.0802  0.1226 -1.7388
16873TIP3   OH272033   2.706   4.940  12.784 -0.0463 -0.7983 -1.0103
16873TIP3    H172034   2.651   4.909  12.712  0.0966  1.5792 -2.2553
16873TIP3    H272035   2.657   5.012  12.822  1.0494 -0.3422 -0.4251
16874TIP3   OH272036   4.965   2.739   6.265 -0.0146 -0.8525 -0.4462
16874TIP3    H172037   4.885   2.789   6.249  0.7081  1.2682  1.8741
16874TIP3    H272038   4.938   2.669   6.325  0.0193  0.8345  1.6811
16875TIP3   OH272039   2.712   4.470   2.213  0.1057  0.0076 -0.5092
16875TIP3    H172040   2.799   4.461   2.251 -1.0157 -0.6269  2.1189
16875TIP3    H272041   2.666   4.390   2.238 -0.3617 -1.3004 -4.6810
16876TIP3   OH272042   3.651   4.616  15.993 -0.1027 -0.5433 -0.0142
16876TIP3    H172043   3.687   4.556  15.928  0.7168 -0.1717  0.0704
16876TIP3    H272044   3.712   4.690  15.993 -0.2067 -0.4375  1.0226
16877TIP3   OH272045   1.617   3.335  13.980  0.3274  0.1905  0.2050
16877TIP3    H172046   1.626   3.315  14.073  0.6770 -1.0550 -0.0849
16877TIP3    H272047   1.540   3.287  13.952  0.0500  0.7925 -0.1000
16878TIP3   OH272048   1.019   2.192  15.502 -0.3894 -0.1740 -0.2211
16878TIP3    H172049   0.971   2.204  15.584 -0.9955  0.7138 -0.6853
16878TIP3    H272050   0.954   2.208  15.434  0.4993  0.8552 -0.8657
16879TIP3   OH272051   4.747   0.920   6.136  0.1995  0.6040  0.7155
16879TIP3    H172052   4.719   0.936   6.226 -2.3624 -0.5021  0.1846
16879TIP3    H272053   4.694   0.979   6.083  1.0284  0.5870 -0.1698
16880TIP3   OH272054   6.689   4.418   0.769  0.7079  0.1425  0.0325
16880TIP3    H172055   6.716   4.407   0.860 -0.6351 -0.9352  0.3349
16880TIP3    H272056   6.719   4.506   0.745 -1.0741  1.4592  2.3047
16881TIP3   OH272057   5.359   4.841   4.552  0.0887 -0.1264 -0.2583
16881TIP3    H172058   5.410   4.874   4.625 -0.1567 -0.5711  0.1171
16881TIP3    H272059   5.420   4.783   4.505  1.0543  2.0455 -1.8620
16882TIP3   OH272060   2.828   4.920   4.863  0.4345 -0.6869  0.3329
16882TIP3    H172061   2.791   5.004   4.891  1.6049  0.5522 -1.6096
16882TIP3    H272062   2.912   4.914   4.908  2.3236  1.3130 -2.6219
16883TIP3   OH272063   5.438   2.817   4.350 -0.4012  0.3386 -0.0152
16883TIP3    H172064   5.387   2.888   4.312  2.2552  1.2402 -2.2446
16883TIP3    H272065   5.430   2.745   4.288 -0.9041 -0.4015  0.8750
16884TIP3   OH272066   2.471   0.841   6.151 -0.1656 -0.0580  0.1094
16884TIP3    H172067   2.437   0.889   6.076  1.2484  0.3693 -0.2677
16884TIP3    H272068   2.550   0.797   6.119  0.0041 -0.5328  1.1330
16885TIP3   OH272069   4.434   2.862   4.804  0.0074  0.6471  0.1597
16885TIP3    H172070   4.390   2.803   4.865 -0.6471  0.9463 -0.0063
16885TIP3    H272071   4.479   2.925   4.860 -0.3553  0.7513  0.3416
16886TIP3   OH272072   2.855   2.815   0.774  0.3621  0.0896 -0.2888
16886TIP3    H172073   2.802   2.845   0.848  2.6926 -2.4950  2.6906
16886TIP3    H272074   2.811   2.734   0.746  0.6396 -0.0509 -0.3146
16887TIP3   OH272075   5.348   3.729   4.816 -0.1593 -0.3016 -0.4281
16887TIP3    H172076   5.277   3.670   4.842 -0.1548  0.0332  0.3923
16887TIP3    H272077   5.348   3.797   4.884  1.3225 -0.6195 -0.0826
16888TIP3   OH272078   6.519   5.410  14.443  0.2404 -0.2553 -0.1320
16888TIP3    H172079   6.597   5.396  14.391 -0.0834  1.5533 -1.1983
16888TIP3    H272080   6.541   5.484  14.500 -0.0730 -0.9523  0.9270
16889TIP3   OH272081   4.528   3.195  12.924 -0.1602 -0.3692  0.1727
16889TIP3    H172082   4.520   3.119  12.982 -1.2564  1.2027  2.2155
16889TIP3    H272083   4.466   3.177  12.853  1.2824 -2.3743 -0.7033
16890TIP3   OH272084   4.230   6.598   5.210  0.0180  0.1109 -0.2139
16890TIP3    H172085   4.273   6.683   5.194 -0.3728  0.1665 -1.0465
16890TIP3    H272086   4.282   6.536   5.159  0.9570 -0.3590  1.2449
16891TIP3   OH272087   5.861   4.974   2.233  0.1196 -0.0054 -0.4486
16891TIP3    H172088   5.944   4.980   2.185  0.0356  1.7428 -0.4256
16891TIP3    H272089   5.869   5.038   2.303 -0.6301 -0.9886  0.5672
16892TIP3   OH272090   1.798   3.614   1.984 -0.0541  0.0701  0.1267
16892TIP3    H172091   1.744   3.667   1.926 -0.8303  0.7401  1.4037
16892TIP3    H272092   1.761   3.526   1.979  0.2996 -0.0267 -0.8734
16893TIP3   OH272093   1.552   0.039  17.083 -1.0380 -0.3729 -0.5481
16893TIP3    H172094   1.580   0.085  17.162 -0.6968  0.0826 -0.9234
16893TIP3    H272095   1.460   0.019  17.099 -0.8010 -0.8908  0.2384
16894TIP3   OH272096   6.393   2.757  10.982 -0.2323 -0.0181 -0.1857
16894TIP3    H172097   6.403   2.847  10.952 -1.1056  0.0509 -0.2969
16894TIP3    H272098   6.478   2.717  10.965  0.2844  0.8741  0.1895
16895TIP3   OH272099   2.081   2.687  15.584 -0.3127 -0.4829 -0.1839
16895TIP3    H172100   2.056   2.701  15.493 -0.4957 -1.2240 -0.2517
16895TIP3    H272101   2.075   2.774  15.624  0.7590  0.0521 -1.1053
16896TIP3   OH272102   6.570   1.416  15.091  0.6579  0.7520 -0.5572
16896TIP3    H172103   6.485   1.371  15.088  0.2025  1.2143  2.5802
16896TIP3    H272104   6.632   1.348  15.116  0.5528  1.1134  0.7517
16897TIP3   OH272105   1.601   0.994   3.319 -1.0833 -0.2804  0.0984
16897TIP3    H172106   1.529   1.053   3.296 -0.3964  0.7517  0.5327
16897TIP3    H272107   1.630   0.958   3.236 -2.2181 -0.8496 -0.0653
16898TIP3   OH272108   4.745   3.641  12.768 -0.6337 -0.1027  0.1877
16898TIP3    H172109   4.836   3.612  12.777 -0.3404  0.5674 -0.5015
16898TIP3    H272110   4.723   3.678  12.853  0.2967  1.2463 -0.1238
16899TIP3   OH272111   3.994   6.101   5.107 -0.0555 -0.2276  0.0104
16899TIP3    H172112   4.019   6.150   5.185 -3.1969  0.5403  0.6799
16899TIP3    H272113   4.011   6.161   5.034 -1.3744  0.8781  0.5743
16900TIP3   OH272114   3.704   2.020  13.011  0.2597 -0.3742  0.6202
16900TIP3    H172115   3.660   1.948  12.965 -0.2856 -0.2759  0.9839
16900TIP3    H272116   3.794   1.989  13.021  0.8022  0.2129 -1.8271
16901TIP3   OH272117   6.613   0.237   4.327  0.1674 -0.1683  0.0388
16901TIP3    H172118   6.591   0.230   4.234  1.9087 -1.0404 -0.3485
16901TIP3    H272119   6.529   0.253   4.370 -0.8053 -0.6157 -1.5942
16902TIP3   OH272120   1.906   5.071   1.990 -0.1959  0.0946 -0.6524
16902TIP3    H172121   1.963   5.002   1.958  1.1722  1.1476 -0.5419
16902TIP3    H272122   1.944   5.152   1.957 -0.5199  0.9720  0.9983
16903TIP3   OH272123   4.254   2.525  16.719 -0.1295 -0.2450  0.2716
16903TIP3    H172124   4.331   2.580  16.701 -1.5567  1.3300 -1.5880
16903TIP3    H272125   4.241   2.531  16.813  1.6009  0.0414  0.5184
16904TIP3   OH272126   5.978   5.151  16.760 -0.2028 -0.3935  0.6669
16904TIP3    H172127   6.021   5.126  16.843 -0.4099 -0.2961  0.8045
16904TIP3    H272128   5.955   5.068  16.719 -0.5331 -0.4356  0.9345
16905TIP3   OH272129   5.975   6.539  11.559  0.1838  0.0146 -0.0191
16905TIP3    H172130   5.941   6.628  11.558 -0.4617 -0.2288 -0.5967
16905TIP3    H272131   5.897   6.484  11.558  0.5923 -0.5601 -0.6704
16906TIP3   OH272132   6.766   6.197   4.282 -0.1249  0.0238 -0.1772
16906TIP3    H172133   6.734   6.200   4.192  0.8683 -1.0958 -0.6000
16906TIP3    H272134   6.724   6.271   4.325 -0.5697  0.6265 -1.5825
16907TIP3   OH272135   0.218   2.853   3.612  0.0016 -0.0565  0.3130
16907TIP3    H172136   0.310   2.840   3.634  0.1559 -2.1505 -1.2015
16907TIP3    H272137   0.213   2.945   3.584  1.2506  0.5425  1.8835
16908TIP3   OH272138   1.484   5.626   2.197  0.1921  0.1081 -0.4112
16908TIP3    H172139   1.401   5.627   2.244  0.7607 -1.1676  0.6866
16908TIP3    H272140   1.468   5.572   2.120 -0.1889  0.4785 -0.5931
16909TIP3   OH272141   0.817   0.376   3.819 -1.0176 -0.2020  0.2159
16909TIP3    H172142   0.739   0.429   3.835 -0.3772  0.7516  0.3034
16909TIP3    H272143   0.880   0.407   3.884  0.3573  1.0667 -1.6071
16910TIP3   OH272144   4.870   4.711   1.219  0.4312  0.6664  0.1688
16910TIP3    H172145   4.957   4.699   1.257 -0.4915 -2.2512  1.6235
16910TIP3    H272146   4.811   4.718   1.294 -0.6847  2.2779 -0.7888
16911TIP3   OH272147   3.482   6.610   1.719 -0.2478 -0.1932 -0.5390
16911TIP3    H172148   3.530   6.692   1.733  1.5943 -1.1179 -0.9997
16911TIP3    H272149   3.551   6.547   1.698 -1.5076 -2.1003  0.8029
16912TIP3   OH272150   4.594   5.302  12.388 -0.2734 -0.3603 -0.8201
16912TIP3    H172151   4.568   5.388  12.422 -0.1295 -0.5486 -0.2214
16912TIP3    H272152   4.560   5.240  12.451  4.2969 -0.5182  1.9681
16913TIP3   OH272153   2.145   4.783   4.572  0.3033  0.1002  0.4842
16913TIP3    H172154   2.096   4.832   4.638  1.4806  1.9975  0.0161
16913TIP3    H272155   2.079   4.757   4.507 -0.2885  1.5029  0.5059
16914TIP3   OH272156   1.776   6.424  16.842 -0.1557 -0.3494 -0.1071
16914TIP3    H172157   1.740   6.469  16.766 -1.2894  0.8360  1.0857
16914TIP3    H272158   1.701   6.379  16.881  0.0113  0.5415  1.3057
16915TIP3   OH272159   4.325   4.833  16.744 -0.0041  0.1949 -0.2058
16915TIP3    H172160   4.367   4.905  16.790 -0.4201 -0.3539  1.0791
16915TIP3    H272161   4.356   4.754  16.788 -2.3360 -0.2395  0.8425
16916TIP3   OH272162   2.461   1.299   3.788  0.1089 -0.0207  0.3662
16916TIP3    H172163   2.525   1.231   3.765  1.3006 -0.0169  3.2726
16916TIP3    H272164   2.456   1.354   3.710  1.1254 -1.9025 -1.1233
16917TIP3   OH272165   5.410   5.554  12.830  0.0239  0.0541  0.2569
16917TIP3    H172166   5.458   5.562  12.912  1.7204 -1.3826 -0.5166
16917TIP3    H272167   5.400   5.645  12.800  0.8117  0.5014  1.2684
16918TIP3   OH272168   3.476   5.362   3.722 -0.1240 -0.7269  0.2677
16918TIP3    H172169   3.515   5.449   3.718  1.2961 -1.3610 -0.2394
16918TIP3    H272170   3.447   5.352   3.813  0.2885  0.0170  0.4841
16919TIP3   OH272171   6.654   0.650  13.746 -0.0522  0.0281 -0.1422
16919TIP3    H172172   6.682   0.742  13.755 -0.5123  0.0765  0.9204
16919TIP3    H272173   6.599   0.634  13.822 -2.4009 -0.2669 -1.7872
16920TIP3   OH272174   2.152   1.623   0.018  0.2413  0.0020 -0.2773
16920TIP3    H172175   2.081   1.645   0.079 -0.8632 -2.5895 -0.5084
16920TIP3    H272176   2.229   1.615   0.074  0.2575  2.0579  0.0871
16921TIP3   OH272177   4.520   6.547   2.622  0.1590 -0.1226  0.0272
16921TIP3    H172178   4.616   6.544   2.617  0.3300 -0.3418  2.4184
16921TIP3    H272179   4.491   6.470   2.574  1.2945 -1.2114  1.0373
16922TIP3   OH272180   4.493   3.774  13.427  0.3518 -0.7801  0.7196
16922TIP3    H172181   4.407   3.741  13.402  0.2565  0.7326 -1.1698
16922TIP3    H272182   4.544   3.695  13.449 -1.8177 -1.6254  3.1795
16923TIP3   OH272183   4.810   3.210   4.417  0.2380  0.5880 -0.2157
16923TIP3    H172184   4.821   3.245   4.506 -0.6752  2.7246 -0.8978
16923TIP3    H272185   4.723   3.169   4.418 -0.2086  1.5134 -0.3874
16924TIP3   OH272186   1.490   3.427  12.993  0.3242 -0.0128  0.0030
16924TIP3    H172187   1.492   3.444  12.899 -0.2006 -0.3277 -0.0687
16924TIP3    H272188   1.427   3.356  13.003  0.3562  0.0373  0.5954
16925TIP3   OH272189   6.592   6.364   4.400 -0.2040 -0.3204  0.5680
16925TIP3    H172190   6.518   6.370   4.339 -0.3544  0.5392  0.8217
16925TIP3    H272191   6.563   6.410   4.478  0.9468  0.9423  0.3042
16926TIP3   OH272192   1.793   0.890  15.427 -0.0998  0.2286 -0.4533
16926TIP3    H172193   1.800   0.833  15.504 -0.5507  0.4357 -0.2563
16926TIP3    H272194   1.857   0.854  15.365  0.4643  0.2251  0.1177
16927TIP3   OH272195   2.309   4.347  12.383  0.2601  0.0438 -0.2903
16927TIP3    H172196   2.274   4.272  12.431  1.1999 -0.8585 -0.9888
16927TIP3    H272197   2.362   4.394  12.448 -1.8576  1.2232  0.6797
16928TIP3   OH272198   5.235   5.886   0.313 -0.1058 -0.7808 -0.6828
16928TIP3    H172199   5.186   5.857   0.390  1.2112  1.2064  1.0259
16928TIP3    H272200   5.200   5.973   0.294 -1.1230 -1.6523 -3.0373
16929TIP3   OH272201   5.625   2.192   4.329  0.7587  0.0840  0.3328
16929TIP3    H172202   5.706   2.171   4.282  0.0913 -0.8084 -0.4612
16929TIP3    H272203   5.632   2.143   4.412 -0.0092 -2.0179 -0.7697
16930TIP3   OH272204   5.365   2.438   2.920 -0.0599 -0.3437  0.3707
16930TIP3    H172205   5.389   2.364   2.976 -0.5292 -0.3760  0.5317
16930TIP3    H272206   5.449   2.472   2.889  0.1728 -0.7822  0.5019
16931TIP3   OH272207   1.176   0.261  14.103  0.1043  0.3149 -0.0133
16931TIP3    H172208   1.109   0.248  14.036  1.0584 -0.7941 -0.8010
16931TIP3    H272209   1.241   0.193  14.085  0.3707 -0.0586  2.0861
16932TIP3   OH272210   0.610   5.368   0.981 -0.1918 -0.6847 -0.3357
16932TIP3    H172211   0.652   5.394   0.898  0.9833  1.9283  0.9798
16932TIP3    H272212   0.543   5.305   0.954 -0.4140  0.6445 -3.3713
16933TIP3   OH272213   0.084   3.038   1.690 -0.0714  0.0715 -0.0564
16933TIP3    H172214   0.071   2.981   1.614 -0.2985 -1.2520  0.9514
16933TIP3    H272215   0.004   3.090   1.694  0.4955  1.1434 -1.4942
16934TIP3   OH272216   5.566   0.018  14.286  0.0432  0.9292  0.1946
16934TIP3    H172217   5.496   0.055  14.341  0.9259 -0.2640  2.2564
16934TIP3    H272218   5.617   0.094  14.259 -1.1923  1.6793 -0.1421
16935TIP3   OH272219   3.940   2.991  15.987 -0.1331  0.0392  0.2348
16935TIP3    H172220   3.915   2.920  15.929 -0.1341 -0.0814  0.3815
16935TIP3    H272221   3.919   2.959  16.075  0.7463 -0.1582  0.3813
16936TIP3   OH272222   3.615   0.787   3.817  0.5395  0.1117 -0.4297
16936TIP3    H172223   3.562   0.790   3.897  1.2675 -0.2312  0.0744
16936TIP3    H272224   3.551   0.776   3.746  0.0043 -1.4782  0.2666
16937TIP3   OH272225   2.341   3.104   5.108 -0.1927 -0.7515  0.0103
16937TIP3    H172226   2.354   3.021   5.063  1.7721 -0.9431  0.8340
16937TIP3    H272227   2.249   3.124   5.095 -0.2246 -1.9538 -2.0725
16938TIP3   OH272228   6.746   6.513  13.657  0.4423 -0.9577 -0.5290
16938TIP3    H172229   6.833   6.541  13.630  0.7090 -0.3339  0.8794
16938TIP3    H272230   6.759   6.475  13.744 -0.9197  0.7429  0.4936
16939TIP3   OH272231   1.059   4.782   0.023  0.1935  0.3388  0.0714
16939TIP3    H172232   1.031   4.694   0.048 -0.7766  0.0159 -1.9054
16939TIP3    H272233   1.081   4.825   0.106  0.5120 -1.6857  1.0958
16940TIP3   OH272234   1.687   0.724   4.322  0.8621 -0.2327  0.0965
16940TIP3    H172235   1.596   0.699   4.335  1.3067 -2.7603 -1.0323
16940TIP3    H272236   1.703   0.711   4.229  2.1339  1.0939  0.0914
16941TIP3   OH272237   0.655   4.219  16.230 -0.0786  0.6710  0.4876
16941TIP3    H172238   0.639   4.132  16.266  1.5966  0.4340  0.7355
16941TIP3    H272239   0.750   4.230  16.234 -0.2542  2.5565  0.5500
16942TIP3   OH272240   1.319   1.063  13.000  0.4536 -0.0046 -0.0616
16942TIP3    H172241   1.230   1.059  12.966  0.5381  0.3911 -0.3376
16942TIP3    H272242   1.308   1.075  13.094  0.1751  1.8916 -0.2857
16943TIP3   OH272243   3.610   6.282  14.302 -0.0157 -0.4161  0.7434
16943TIP3    H172244   3.679   6.227  14.265 -0.9825 -0.8003 -0.5462
16943TIP3    H272245   3.581   6.337  14.229  0.2617  1.1439  1.7604
16944TIP3   OH272246   3.705   6.293  12.190 -0.4358 -0.3086 -0.5637
16944TIP3    H172247   3.669   6.373  12.154  1.1804  1.5910  1.7574
16944TIP3    H272248   3.739   6.246  12.114  0.5493  2.2538 -1.8069
16945TIP3   OH272249   0.938   5.579  12.037 -0.4143  0.0715 -0.2043
16945TIP3    H172250   0.908   5.623  12.116 -2.4941 -2.1742  0.3699
16945TIP3    H272251   1.016   5.530  12.064 -1.3943 -1.0757  0.6423
16946TIP3   OH272252   5.539   1.845  14.853  0.3199  0.1796 -0.3787
16946TIP3    H172253   5.632   1.866  14.866  0.0566  1.3234 -0.2239
16946TIP3    H272254   5.495   1.881  14.931 -0.1735 -1.0146 -0.0828
16947TIP3   OH272255   2.261   5.579  16.053 -0.2525  0.0932  0.3826
16947TIP3    H172256   2.324   5.587  15.980 -0.5926 -0.3755  0.0314
16947TIP3    H272257   2.208   5.503  16.030  0.1094 -0.5033  1.4886
16948TIP3   OH272258   5.049   0.789  17.100 -0.5707 -0.1870  0.1289
16948TIP3    H172259   5.051   0.820  17.191 -1.3938  0.7693 -0.1593
16948TIP3    H272260   5.131   0.820  17.062 -0.7923  0.5118  0.2084
16949TIP3   OH272261   2.957   1.173   1.763  0.0819 -0.2412 -0.7329
16949TIP3    H172262   2.926   1.083   1.767 -2.8170  0.6260 -1.1463
16949TIP3    H272263   2.955   1.202   1.855 -2.9155  0.4883 -0.9255
16950TIP3   OH272264   1.022   4.568   4.290 -0.0654  0.4514  0.4992
16950TIP3    H172265   1.054   4.569   4.200  0.2927 -0.7642  0.6030
16950TIP3    H272266   0.935   4.528   4.284 -0.4891  1.3312  0.5702
16951TIP3   OH272267   5.200   1.948   2.926  0.1537  0.1649  0.1838
16951TIP3    H172268   5.234   1.894   2.855 -0.3716 -0.4499  0.3819
16951TIP3    H272269   5.269   2.011   2.944  0.5972 -0.1526 -0.3660
16952TIP3   OH272270   4.694   2.432  14.248 -0.0901 -0.4794 -0.1692
16952TIP3    H172271   4.658   2.520  14.257 -0.0693 -0.4973  0.0849
16952TIP3    H272272   4.786   2.447  14.224  0.3082 -0.4124  1.2884
16953TIP3   OH272273   5.868   5.708   4.320  0.1452  0.1493  0.0293
16953TIP3    H172274   5.791   5.700   4.264  0.6980  1.6064 -0.9912
16953TIP3    H272275   5.837   5.684   4.407 -1.4247  0.5516 -0.3906
16954TIP3   OH272276   3.966   0.730   4.929  0.1237  0.2868  0.2259
16954TIP3    H172277   3.994   0.662   4.990  2.3383  0.4882 -0.4787
16954TIP3    H272278   4.018   0.807   4.952 -0.9224  1.1560 -0.2331
16955TIP3   OH272279   1.891   1.931  15.505  0.1156  0.1235  0.3135
16955TIP3    H172280   1.836   1.913  15.429  0.3137  0.7967 -0.0010
16955TIP3    H272281   1.950   2.001  15.475  1.4048 -0.8438  0.5182
16956TIP3   OH272282   5.517   0.031   6.303  0.2879  0.0502  0.0267
16956TIP3    H172283   5.441   0.029   6.361  0.6678  0.7372  0.5794
16956TIP3    H272284   5.584  -0.020   6.350  0.1010 -0.7430 -0.5618
16957TIP3   OH272285   4.707   1.409  15.233 -0.2349  0.2981 -0.6417
16957TIP3    H172286   4.650   1.350  15.283  0.8910  1.2739  1.9468
16957TIP3    H272287   4.646   1.468  15.188 -1.3061 -1.2095 -1.2540
16958TIP3   OH272288   3.549   1.533   3.605 -0.0754  0.7992 -0.4287
16958TIP3    H172289   3.572   1.580   3.526  2.2995  0.9390  0.2755
16958TIP3    H272290   3.630   1.492   3.634 -1.1339 -0.2356  1.2958
16959TIP3   OH272291   0.113   6.772   1.054  0.0437  0.6953 -0.4123
16959TIP3    H172292   0.043   6.742   0.995  0.7508 -0.1801 -0.8240
16959TIP3    H272293   0.189   6.718   1.031  0.8361  1.5673  0.0975
16960TIP3   OH272294   5.580   2.286  16.264 -0.1612 -0.4621  0.1470
16960TIP3    H172295   5.508   2.223  16.258  0.3508 -1.1196  0.7956
16960TIP3    H272296   5.537   2.371  16.270 -0.8832 -0.8523  0.5832
16961TIP3   OH272297   2.029   1.178   0.385 -0.3539  0.1048 -0.1909
16961TIP3    H172298   1.996   1.140   0.467  1.7653 -2.0808 -0.2457
16961TIP3    H272299   2.090   1.246   0.413  0.9295 -1.1294  0.1410
16962TIP3   OH272300   1.175   6.027   0.028  0.4849  0.3587  0.5149
16962TIP3    H172301   1.090   6.025   0.073  0.8859 -1.7907  1.2539
16962TIP3    H272302   1.153   6.039  -0.064 -0.4508  2.6690  0.9630
16963TIP3   OH272303   3.379   3.637   0.164  0.5378 -0.1513  0.0830
16963TIP3    H172304   3.397   3.632   0.070  1.2395 -1.7833  0.2654
16963TIP3    H272305   3.409   3.552   0.198 -1.6285 -0.4361  1.4418
16964TIP3   OH272306   2.590   6.322   1.570 -0.2881 -0.2118 -0.5841
16964TIP3    H172307   2.630   6.278   1.495  1.7953  2.6473 -1.3066
16964TIP3    H272308   2.646   6.298   1.644  0.0650  0.1791 -0.7236
16965TIP3   OH272309   5.423   2.266  14.019  0.4807  0.4628  0.1883
16965TIP3    H172310   5.348   2.324  14.029  0.1084  0.1183 -0.5208
16965TIP3    H272311   5.384   2.179  14.004  0.9938  0.4580 -1.2673
16966TIP3   OH272312   3.631   3.798   0.042 -0.5159  0.3653  0.3359
16966TIP3    H172313   3.567   3.732   0.016 -0.0624  0.1993 -0.3988
16966TIP3    H272314   3.712   3.770  -0.001  0.0163  0.6522  1.1204
16967TIP3   OH272315   0.071   0.036   5.582 -0.5707  0.0905  0.6819
16967TIP3    H172316   0.030   0.042   5.668 -0.6997 -0.0831  0.6327
16967TIP3    H272317   0.070   0.126   5.548  0.9806  0.4868  1.5474
16968TIP3   OH272318   5.027   5.792  12.990 -0.6345 -0.2349  0.1755
16968TIP3    H172319   4.980   5.822  13.067 -0.3178 -1.3516  0.8324
16968TIP3    H272320   4.965   5.802  12.918 -1.5780 -0.8697  0.8801
16969TIP3   OH272321   0.455   2.708  12.857  0.2883  0.2322 -0.1186
16969TIP3    H172322   0.453   2.803  12.867  0.1628  0.2636 -0.4342
16969TIP3    H272323   0.538   2.690  12.813  0.3061  0.1968 -0.0701
16970TIP3   OH272324   4.695   6.493   4.145  0.1160 -0.0287  0.0872
16970TIP3    H172325   4.654   6.578   4.163 -0.3967 -0.0537 -0.9133
16970TIP3    H272326   4.787   6.515   4.130  0.2489  0.1792  1.0890
16971TIP3   OH272327   5.309   0.414   1.309 -0.2847  0.1380 -0.6147
16971TIP3    H172328   5.231   0.469   1.320  0.2712  0.7942  0.2408
16971TIP3    H272329   5.328   0.382   1.397  0.3300 -0.1241 -0.8394
16972TIP3   OH272330   3.509   0.240   1.501 -0.2741 -0.0111  0.5171
16972TIP3    H172331   3.553   0.324   1.511 -1.1994  0.4833  0.4599
16972TIP3    H272332   3.449   0.252   1.428 -0.9081 -0.5087  0.9438
16973TIP3   OH272333   0.181   3.677  15.974  0.2797 -1.0410 -0.0188
16973TIP3    H172334   0.119   3.741  16.008 -0.2482 -1.8841  0.6394
16973TIP3    H272335   0.149   3.657  15.886  0.9590  0.2380 -0.5942
16974TIP3   OH272336   4.241   5.976  15.405 -0.3526 -0.7554 -0.0285
16974TIP3    H172337   4.300   5.902  15.392  0.3177 -0.4941  1.3477
16974TIP3    H272338   4.297   6.054  15.396 -1.1051 -0.3496 -1.7786
16975TIP3   OH272339   5.886   2.215   2.122 -0.5725  0.3180 -0.5340
16975TIP3    H172340   5.837   2.136   2.099  1.4719 -0.7583 -1.4148
16975TIP3    H272341   5.833   2.257   2.190 -2.0234 -1.4562 -0.4937
16976TIP3   OH272342   4.127   1.191   1.686 -0.1531 -0.3805  0.3926
16976TIP3    H172343   4.206   1.156   1.726  0.6416  0.3319 -0.4836
16976TIP3    H272344   4.153   1.278   1.654 -0.8561 -0.7307 -1.2389
16977TIP3   OH272345   4.629   1.209   1.646 -0.1366  0.2091 -1.0777
16977TIP3    H172346   4.686   1.205   1.723 -0.7258 -0.3086 -0.6603
16977TIP3    H272347   4.688   1.193   1.572  0.3405  0.1568 -0.6924
16978TIP3   OH272348   1.170   4.594   5.839  0.3199 -0.4854 -0.3866
16978TIP3    H172349   1.126   4.604   5.924  0.5788 -2.1377 -0.0324
16978TIP3    H272350   1.179   4.684   5.807  2.0549  0.4089  2.2490
16979TIP3   OH272351   4.502   3.194  16.172  0.5512 -0.0117 -0.1329
16979TIP3    H172352   4.490   3.288  16.187  1.9007 -0.0402  1.4941
16979TIP3    H272353   4.570   3.189  16.105 -0.3615  0.1512 -1.0866
16980TIP3   OH272354   4.090   1.419   2.655 -0.1934 -0.5580 -0.2412
16980TIP3    H172355   4.130   1.354   2.597 -0.4656 -0.7907 -0.1708
16980TIP3    H272356   3.998   1.394   2.659 -0.1443 -0.6509  0.4379
16981TIP3   OH272357   1.726   5.793  14.400  0.3288 -0.6052 -0.2247
16981TIP3    H172358   1.777   5.779  14.321  1.6160  1.1795  0.2250
16981TIP3    H272359   1.635   5.786  14.372  0.7617 -0.2726 -1.7849
16982TIP3   OH272360   6.660   4.877  13.692 -0.4780  0.3696  0.7301
16982TIP3    H172361   6.709   4.899  13.613  1.1478 -0.5963  1.4259
16982TIP3    H272362   6.630   4.787  13.678 -0.2559  0.2254  1.1705
16983TIP3   OH272363   4.825   1.285   5.515  0.3114 -0.3718  0.1936
16983TIP3    H172364   4.852   1.298   5.606  0.2825 -0.2153  0.1813
16983TIP3    H272365   4.905   1.261   5.470  0.8429  1.8509 -0.1900
16984TIP3   OH272366   6.363   4.292   1.217 -0.3243 -0.3847 -0.2622
16984TIP3    H172367   6.378   4.300   1.311  0.4879  0.2761 -0.4330
16984TIP3    H272368   6.310   4.368   1.194  0.8069  0.3350 -0.5840
16985TIP3   OH272369   1.772   4.755   0.009  0.7640 -0.3360 -0.1622
16985TIP3    H172370   1.698   4.806  -0.024  0.5910 -1.7445 -2.0741
16985TIP3    H272371   1.821   4.730  -0.069  3.7824  1.1859  1.0758
16986TIP3   OH272372   4.792   3.753  13.448 -0.2944 -0.4103  0.4629
16986TIP3    H172373   4.841   3.833  13.426 -1.8623  0.5307  0.2239
16986TIP3    H272374   4.798   3.698  13.370  1.2356 -0.7917  0.8122
16987TIP3   OH272375   0.876   6.469  13.868  0.2131  0.9507  0.0633
16987TIP3    H172376   0.903   6.388  13.825 -0.2182  1.4517 -1.2029
16987TIP3    H272377   0.859   6.444  13.958  0.1141 -0.3695 -0.3040
16988TIP3   OH272378   3.873   6.634  12.879 -0.6326 -0.3997 -0.1328
16988TIP3    H172379   3.825   6.607  12.801 -1.4836 -0.2515  0.3235
16988TIP3    H272380   3.869   6.558  12.937 -2.2377  0.3223  0.7809
16989TIP3   OH272381   1.856   2.680   5.232 -0.1212  0.6857  0.0085
16989TIP3    H172382   1.827   2.671   5.141 -1.3383  0.7258  0.3688
16989TIP3    H272383   1.845   2.593   5.270  1.0424  0.4958 -0.0399
16990TIP3   OH272384   5.490   2.759   1.703  0.8125 -0.5370 -0.2868
16990TIP3    H172385   5.482   2.801   1.788 -1.5945 -0.9159 -0.2642
16990TIP3    H272386   5.573   2.712   1.707  1.3613  0.4764  1.3489
16991TIP3   OH272387   3.720   3.292   2.105 -0.6223  0.2151 -0.0371
16991TIP3    H172388   3.735   3.370   2.159  2.1229 -0.4822  0.3829
16991TIP3    H272389   3.735   3.321   2.015  2.2967 -0.0959  0.2515
16992TIP3   OH272390   2.922   6.752   4.819 -0.4620  0.6906 -0.3862
16992TIP3    H172391   2.914   6.768   4.913  1.7333 -0.0026 -0.0239
16992TIP3    H272392   3.017   6.748   4.804 -0.7793  0.4798 -2.5852
16993TIP3   OH272393   4.555   2.290   1.397 -0.4934 -0.3510 -0.3376
16993TIP3    H172394   4.472   2.313   1.440 -1.3480 -2.6050 -0.6038
16993TIP3    H272395   4.540   2.201   1.365  2.0609 -0.8173 -0.3925
16994TIP3   OH272396   5.860   2.345  13.756 -0.3723 -0.2377  0.5183
16994TIP3    H172397   5.816   2.298  13.685  0.4118 -1.0495  0.5590
16994TIP3    H272398   5.791   2.360  13.821 -0.2928 -3.0265  1.3765
16995TIP3   OH272399   4.969   2.701   5.270  0.0857  0.0533  0.3604
16995TIP3    H172400   5.050   2.751   5.258 -0.5189  1.4728  1.8368
16995TIP3    H272401   4.930   2.738   5.350 -1.4425 -1.3866  0.3215
16996TIP3   OH272402   0.285   2.636   0.048  0.2274  0.5021  0.0767
16996TIP3    H172403   0.314   2.599   0.131 -0.5983 -0.6228 -0.1058
16996TIP3    H272404   0.304   2.568  -0.016 -0.4773  0.7673 -0.4249
16997TIP3   OH272405   0.034   4.152  16.510 -0.0291 -0.1533 -0.1783
16997TIP3    H172406   0.025   4.076  16.567  2.1181  0.8258  1.5790
16997TIP3    H272407   0.095   4.124  16.442  0.9235  0.0439  0.5859
16998TIP3   OH272408   3.732   4.170  16.290  0.1584 -0.4734  0.0560
16998TIP3    H172409   3.764   4.150  16.378  0.7950 -1.2315 -0.3427
16998TIP3    H272410   3.638   4.152  16.295 -0.6886  3.3473  1.7007
16999TIP3   OH272411   6.472   4.164   2.306  0.0664  0.4511  0.1232
16999TIP3    H172412   6.414   4.215   2.250 -0.2134  0.7893  0.7212
16999TIP3    H272413   6.529   4.230   2.347  0.2172  0.2081  0.3027
17000TIP3   OH272414   3.039   0.381  15.872 -0.0746 -0.4183 -0.6096
17000TIP3    H172415   2.971   0.354  15.933 -0.4051 -1.5188 -1.4366
17000TIP3    H272416   3.027   0.475  15.863 -0.3232 -0.3182  0.6414
17001TIP3   OH272417   3.212   1.293  14.485 -0.4682 -0.2118 -0.3868
17001TIP3    H172418   3.218   1.203  14.455 -0.6324 -0.1130 -0.7197
17001TIP3    H272419   3.118   1.310  14.491 -0.4450 -0.4898  0.9786
17002TIP3   OH272420   4.803   3.213   2.250  0.0434  0.1801  0.5801
17002TIP3    H172421   4.757   3.263   2.183 -0.9633 -1.0108  0.3558
17002TIP3    H272422   4.895   3.233   2.235 -0.3003  1.8367  0.4149
17003TIP3   OH272423   3.596   1.080   6.229  0.1989 -0.2484  0.4841
17003TIP3    H172424   3.646   1.014   6.182  0.7393  0.2272  0.3742
17003TIP3    H272425   3.587   1.046   6.318 -3.3998 -2.5881 -0.5662
17004TIP3   OH272426   6.480   4.139  13.585  0.0646 -0.4090 -0.2126
17004TIP3    H172427   6.444   4.109  13.502 -1.7019  0.0870  0.3247
17004TIP3    H272428   6.486   4.060  13.639 -0.5180 -0.4725 -0.2275
17005TIP3   OH272429   4.513   1.585  15.947 -0.6433 -0.0582  0.2205
17005TIP3    H172430   4.496   1.587  15.853  0.9966 -0.4254 -0.1235
17005TIP3    H272431   4.592   1.637  15.958 -0.7001 -0.1871  1.3775
17006TIP3   OH272432   0.713   3.754   3.149  0.0548  0.5024 -0.4248
17006TIP3    H172433   0.807   3.768   3.136 -0.1029  0.1083 -2.2866
17006TIP3    H272434   0.675   3.841   3.148  0.2982  0.6065 -0.6118
17007TIP3   OH272435   1.008   4.771  12.478  0.0332  0.3377  0.7820
17007TIP3    H172436   1.052   4.835  12.534 -0.1739  0.2186  1.0837
17007TIP3    H272437   1.075   4.705  12.460 -0.6126 -1.1142  3.1948
17008TIP3   OH272438   5.282   5.615   4.244 -0.4855  0.9025 -0.3452
17008TIP3    H172439   5.325   5.538   4.281 -0.6508  1.2871  0.6792
17008TIP3    H272440   5.343   5.687   4.260 -0.0364  0.8980 -1.8845
17009TIP3   OH272441   3.659   6.142  12.417 -0.1704 -0.0208  0.0382
17009TIP3    H172442   3.577   6.131  12.466  0.4344  1.9283  1.6274
17009TIP3    H272443   3.636   6.196  12.342 -0.5260 -0.2922 -0.0480
17010TIP3   OH272444   2.812   1.768   3.281  0.0159  0.3970  0.5047
17010TIP3    H172445   2.855   1.811   3.354 -0.9437  2.7418 -0.2135
17010TIP3    H272446   2.882   1.752   3.218  0.4558  0.6843  0.9195
17011TIP3   OH272447   1.664   5.339   1.706  0.3470  0.2339  0.3389
17011TIP3    H172448   1.736   5.281   1.681 -0.2327 -0.6159  0.5989
17011TIP3    H272449   1.593   5.280   1.732 -0.6171  1.0400 -0.3672
17012TIP3   OH272450   5.889   2.684  16.759  0.3554 -0.4975  0.0824
17012TIP3    H172451   5.899   2.716  16.848 -0.0774 -0.6273  0.1757
17012TIP3    H272452   5.890   2.764  16.705  0.0769 -0.3802  0.2476
17013TIP3   OH272453   4.085   3.315  11.023 -0.3557 -0.0548 -0.0457
17013TIP3    H172454   4.063   3.273  10.939  1.0628  1.2037 -1.0863
17013TIP3    H272455   4.006   3.363  11.047 -1.6339 -2.3267  0.6180
17014TIP3   OH272456   5.779   3.646   4.193 -0.2209 -0.3878  0.0166
17014TIP3    H172457   5.835   3.614   4.122 -0.2393 -0.2934 -0.0398
17014TIP3    H272458   5.700   3.592   4.187  0.1765 -1.0562  0.5835
17015TIP3   OH272459   5.521   6.343  11.065  0.0878 -0.4718  0.0030
17015TIP3    H172460   5.578   6.266  11.059 -1.8872 -1.9443 -1.6703
17015TIP3    H272461   5.520   6.378  10.976 -0.6764  0.2289  0.2791
17016TIP3   OH272462   1.312   0.014   2.288 -0.0960  0.0358 -0.6101
17016TIP3    H172463   1.238   0.066   2.259 -1.1630 -0.6582  0.7205
17016TIP3    H272464   1.366   0.074   2.339 -1.1234 -0.0259  0.5973
17017TIP3   OH272465   5.697   6.421  14.262 -0.9418 -0.0577 -0.0149
17017TIP3    H172466   5.652   6.360  14.204 -0.9147  0.4748 -0.6057
17017TIP3    H272467   5.634   6.439  14.332 -1.3008 -0.0374 -0.3409
17018TIP3   OH272468   1.071   6.682   3.199  0.1544  0.0153 -0.5131
17018TIP3    H172469   1.154   6.688   3.247  0.2599  0.8655 -0.7840
17018TIP3    H272470   1.009   6.647   3.263  0.6006 -0.1411 -0.1589
17019TIP3   OH272471   4.057   3.907  12.074  0.3013  0.1798 -0.9180
17019TIP3    H172472   4.081   3.814  12.083 -0.3872  0.0568 -0.2899
17019TIP3    H272473   3.964   3.910  12.094  0.8449  1.3959  2.0380
17020TIP3   OH272474   6.269   1.807  13.737  0.2130 -0.1350 -0.3234
17020TIP3    H172475   6.346   1.819  13.793  0.2605 -1.0996 -0.1605
17020TIP3    H272476   6.296   1.842  13.652  0.2357  1.0873  0.1639
17021TIP3   OH272477   6.573   4.097   0.778  0.2053 -0.4238 -0.0823
17021TIP3    H172478   6.500   4.036   0.780 -1.2546  1.2572  0.0059
17021TIP3    H272479   6.573   4.138   0.864  1.6915 -0.8347  0.1512
17022TIP3   OH272480   6.553   4.776   1.409 -0.0407  0.2543  0.2067
17022TIP3    H172481   6.590   4.713   1.347  0.6154  0.1776  0.6672
17022TIP3    H272482   6.510   4.841   1.353  0.1569 -0.0544 -0.3168
17023TIP3   OH272483   4.650   1.689  12.554 -0.0896 -0.1651  0.3475
17023TIP3    H172484   4.695   1.685  12.638 -1.0306 -2.4728  0.8360
17023TIP3    H272485   4.563   1.723  12.575  0.2411  0.9626 -0.0256
17024TIP3   OH272486   5.410   4.489   0.792 -0.1927 -0.2190  0.0684
17024TIP3    H172487   5.355   4.561   0.760 -0.8732 -0.5060  0.5608
17024TIP3    H272488   5.497   4.527   0.799 -0.8824  1.1672  2.1907
17025TIP3   OH272489   6.750   2.919   5.876  0.2357 -0.3672 -0.1486
17025TIP3    H172490   6.743   2.878   5.962  0.2490 -0.2174 -0.0751
17025TIP3    H272491   6.685   2.990   5.878  2.9318  2.2657  1.2134
17026TIP3   OH272492   3.593   5.712  15.891 -0.0186  0.3133 -0.0607
17026TIP3    H172493   3.628   5.669  15.969  0.7804  0.5147 -0.3004
17026TIP3    H272494   3.499   5.693  15.893  0.1919 -0.7444  0.2800
17027TIP3   OH272495   0.396   2.310  14.373 -0.1595  0.4315  0.0822
17027TIP3    H172496   0.428   2.359  14.449 -2.0978 -0.7760  1.8100
17027TIP3    H272497   0.435   2.224  14.382 -0.3054  0.3143 -0.3808
17028TIP3   OH272498   5.059   0.307   4.626  0.7291  0.3277 -0.0690
17028TIP3    H172499   5.046   0.212   4.631  0.9907  0.3160  0.5762
17028TIP3    H272500   4.973   0.344   4.646  0.0918  0.2341 -2.3937
17029TIP3   OH272501   3.478   5.868   1.604 -0.6006  0.4265 -0.5854
17029TIP3    H172502   3.479   5.874   1.508  0.0805 -1.0452 -0.6927
17029TIP3    H272503   3.415   5.935   1.631 -0.3114  1.3248 -2.0215
17030TIP3   OH272504   4.834   4.526  15.389 -0.0278 -0.8116  0.0395
17030TIP3    H172505   4.898   4.513  15.320 -0.8950 -0.1271 -0.9285
17030TIP3    H272506   4.884   4.520  15.470  1.0730 -1.2581 -0.6532
17031TIP3   OH272507   4.829   6.385   4.589 -0.4994 -0.2023 -0.4111
17031TIP3    H172508   4.776   6.363   4.513  1.3238 -0.7683 -1.5837
17031TIP3    H272509   4.867   6.302   4.617 -0.7363  0.0822  0.8270
17032TIP3   OH272510   4.618   2.901   5.340 -0.0275  0.7137  0.2003
17032TIP3    H172511   4.675   2.882   5.414  0.4235 -1.4510 -0.6308
17032TIP3    H272512   4.627   2.996   5.326  2.5269  0.6150  0.7562
17033TIP3   OH272513   3.140   4.702  11.549  0.1052  0.7223 -0.6000
17033TIP3    H172514   3.123   4.673  11.638 -1.0240 -0.1670 -1.0778
17033TIP3    H272515   3.224   4.662  11.526  0.6016  1.2942  0.1967
17034TIP3   OH272516   4.098   2.608  13.194 -0.2882 -0.2939 -0.3459
17034TIP3    H172517   4.081   2.626  13.101  1.4655  1.9303 -0.3062
17034TIP3    H272518   4.012   2.584  13.229 -0.5440 -4.5049 -3.1055
17035TIP3   OH272519   4.287   6.406  15.675  0.8295  0.5655 -0.2011
17035TIP3    H172520   4.257   6.401  15.765  2.0116  2.7859  0.4188
17035TIP3    H272521   4.209   6.395  15.622  0.0703 -0.4894  1.0820
17036TIP3   OH272522   0.198   1.986   2.427  0.4264 -0.4247 -0.7906
17036TIP3    H172523   0.206   1.967   2.521 -1.6294  2.3863  0.0842
17036TIP3    H272524   0.120   1.938   2.399 -0.3911  0.6361 -0.4072
17037TIP3   OH272525   1.792   4.167  12.184  0.3760 -0.5101 -0.0262
17037TIP3    H172526   1.765   4.205  12.267 -1.7297 -0.0651 -0.8572
17037TIP3    H272527   1.812   4.243  12.129  0.1302 -0.7401 -0.4356
17038TIP3   OH272528   3.244   0.851   1.277  0.3849  0.2862 -0.5244
17038TIP3    H172529   3.160   0.814   1.250  0.4005  0.5150 -0.8925
17038TIP3    H272530   3.298   0.775   1.300  0.0714  0.1420 -0.2730
17039TIP3   OH272531   6.158   6.424  12.978 -0.4063  0.5362 -0.6334
17039TIP3    H172532   6.240   6.472  12.971 -0.8295  1.3390 -0.2011
17039TIP3    H272533   6.140   6.396  12.888  0.8625 -0.5629 -0.5687
17040TIP3   OH272534   2.706   5.740  11.121 -0.1260  0.1079 -0.2014
17040TIP3    H172535   2.792   5.710  11.150 -0.2660  0.0231  0.1273
17040TIP3    H272536   2.665   5.775  11.200 -0.4734 -0.0392 -0.3163
17041TIP3   OH272537   1.056   2.339   1.659 -0.0190  0.3955 -0.4446
17041TIP3    H172538   0.975   2.317   1.612 -0.3725  1.9356 -0.6204
17041TIP3    H272539   1.101   2.401   1.602  0.7248  0.4407  0.1726
17042TIP3   OH272540   5.860   5.885  17.015  0.2488 -0.0909  0.8401
17042TIP3    H172541   5.771   5.898  16.983 -0.3664 -0.9186  2.1188
17042TIP3    H272542   5.908   5.850  16.940 -0.6338 -0.0963  0.2654
17043TIP3   OH272543   1.701   4.316   3.311 -0.3502 -0.2342 -0.0137
17043TIP3    H172544   1.638   4.286   3.376  1.4984 -0.9968  1.4952
17043TIP3    H272545   1.696   4.250   3.242 -1.2865 -0.1937 -0.0059
17044TIP3   OH272546   5.548   6.505   3.538  0.0250 -0.2205 -0.6695
17044TIP3    H172547   5.527   6.473   3.450 -1.3744 -2.0550  0.2748
17044TIP3    H272548   5.577   6.428   3.586 -0.5065  0.4810  0.8549
17045TIP3   OH272549   2.395   1.025  10.932  0.1116  0.5120 -0.2029
17045TIP3    H172550   2.354   1.076  11.002 -1.5051 -1.9104  0.7375
17045TIP3    H272551   2.335   1.033  10.858 -0.9393 -1.1290  0.4224
17046TIP3   OH272552   0.872   2.126  14.049  0.1981  0.2473 -0.2773
17046TIP3    H172553   0.902   2.117  14.140 -1.6771 -1.7350  0.2170
17046TIP3    H272554   0.834   2.214  14.046  1.3473  0.7965  0.5106
17047TIP3   OH272555   3.136   5.975  16.625  0.8482  0.1722 -0.4131
17047TIP3    H172556   3.170   6.044  16.568  0.5310 -0.3052 -1.1894
17047TIP3    H272557   3.214   5.940  16.668  1.4099 -0.9324 -2.2076
17048TIP3   OH272558   5.097   4.745   3.586  0.7475 -0.4353  0.4472
17048TIP3    H172559   5.184   4.781   3.601  0.3098  0.4214  0.9818
17048TIP3    H272560   5.094   4.731   3.491  0.9467  0.9344  0.2106
17049TIP3   OH272561   1.968   0.317  13.004 -0.1038 -0.1187 -0.0690
17049TIP3    H172562   1.997   0.401  13.039 -0.5229 -0.3143  0.7570
17049TIP3    H272563   1.997   0.318  12.912  0.4345  0.6618  0.1049
17050TIP3   OH272564   6.330   3.028  11.180  0.6386  0.2462  0.0361
17050TIP3    H172565   6.335   3.122  11.165  2.4956 -0.0393 -1.3495
17050TIP3    H272566   6.355   2.988  11.097 -0.9079 -1.5174  0.3339
17051TIP3   OH272567   2.581   3.564   3.217 -0.1914 -0.7136 -0.6639
17051TIP3    H172568   2.538   3.533   3.296 -0.2180  1.1739  0.0926
17051TIP3    H272569   2.657   3.505   3.207  0.4122 -0.3517  1.3602
17052TIP3   OH272570   0.659   4.504  13.707  0.3681  0.5553 -0.2010
17052TIP3    H172571   0.597   4.453  13.759  2.0442 -2.1614 -0.6772
17052TIP3    H272572   0.606   4.541  13.636 -0.8336 -1.2022 -0.2870
17053TIP3   OH272573   3.501   1.342  17.076  0.3340 -0.1038  0.3677
17053TIP3    H172574   3.556   1.301  17.009  2.1695 -0.4898  2.0173
17053TIP3    H272575   3.562   1.393  17.129 -1.1676  0.7449  1.3705
17054TIP3   OH272576   5.775   1.944  14.935  0.0939  0.1071  0.1742
17054TIP3    H172577   5.844   1.998  14.896 -0.1384  0.4988  0.2985
17054TIP3    H272578   5.720   2.006  14.983 -0.3305 -0.2042  0.0969
17055TIP3   OH272579   2.943   1.616  16.867  0.1369 -0.3849 -0.2712
17055TIP3    H172580   2.884   1.688  16.892  0.9688  0.5376 -0.8593
17055TIP3    H272581   2.892   1.537  16.881 -0.4749  0.2634  1.3608
17056TIP3   OH272582   5.570   5.471   2.256  0.0874 -0.4426 -0.1174
17056TIP3    H172583   5.545   5.406   2.191 -0.4519 -0.0931 -0.2662
17056TIP3    H272584   5.512   5.545   2.240  1.2009  0.3798 -0.4373
17057TIP3   OH272585   1.244   1.399  15.358 -0.9132 -0.2254 -0.0684
17057TIP3    H172586   1.284   1.452  15.428 -3.6269 -2.6849  3.7354
17057TIP3    H272587   1.308   1.330  15.341 -1.2079 -1.0582  1.9760
17058TIP3   OH272588   6.253   6.426   0.555  0.2491 -0.5070 -0.5530
17058TIP3    H172589   6.208   6.437   0.471 -1.6011 -1.5110  0.2468
17058TIP3    H272590   6.207   6.484   0.615  3.9593  3.2040 -0.8965
17059TIP3   OH272591   4.025   0.746   1.349 -0.4792  0.0528  0.0015
17059TIP3    H172592   4.093   0.728   1.284 -0.7938  0.9811 -0.6083
17059TIP3    H272593   4.058   0.822   1.397 -1.2115  0.6922 -0.4945
17060TIP3   OH272594   0.535   1.961  11.433  0.5594 -0.0137 -0.6027
17060TIP3    H172595   0.482   1.943  11.510  1.6835 -0.5868  0.0479
17060TIP3    H272596   0.471   1.979  11.364 -0.6917 -4.2455 -0.8243
17061TIP3   OH272597   2.110   0.618  15.397 -0.3521 -0.5400 -0.0661
17061TIP3    H172598   2.052   0.579  15.463 -0.3209 -1.5571 -0.6152
17061TIP3    H272599   2.198   0.609  15.433 -0.4792  0.4393  0.4946
17062TIP3   OH272600   6.755   3.024  17.204  0.1654 -0.0905  0.2001
17062TIP3    H172601   6.826   2.980  17.251 -0.2509 -0.9232  0.0740
17062TIP3    H272602   6.763   3.116  17.228  2.6186  0.2386 -1.4824
17063TIP3   OH272603   0.926   2.968   4.090  0.1420 -0.3260  0.0559
17063TIP3    H172604   0.850   2.988   4.036 -0.3481  0.6064  1.0456
17063TIP3    H272605   0.924   2.873   4.101 -0.6967 -0.3386 -0.1820
17064TIP3   OH272606   5.909   6.617  16.929  0.3548  0.0326  0.4384
17064TIP3    H172607   5.962   6.548  16.968 -1.0546 -1.2971  0.0796
17064TIP3    H272608   5.863   6.657  17.004  1.7178  1.1385  0.7425
17065TIP3   OH272609   4.580   1.710   5.297  0.0378 -0.5540  0.7789
17065TIP3    H172610   4.652   1.673   5.348  0.1781 -1.0333  0.2499
17065TIP3    H272611   4.527   1.634   5.272 -0.5265 -0.2300  0.9674
17066TIP3   OH272612   4.701   2.235  17.131 -0.0729  0.2955  0.0798
17066TIP3    H172613   4.763   2.306  17.116  1.1608 -0.7919 -0.1065
17066TIP3    H272614   4.661   2.257  17.216  2.5482 -0.3224  1.5877
17067TIP3   OH272615   4.683   4.651  10.128  0.2058 -0.4137  0.4616
17067TIP3    H172616   4.685   4.742  10.157 -0.3125 -0.5189  0.8293
17067TIP3    H272617   4.762   4.642  10.074  0.7931 -0.0213  1.2390
17068TIP3   OH272618   3.124   6.367  13.152  0.3198 -0.0724 -0.2851
17068TIP3    H172619   3.070   6.342  13.077  3.1089  0.3657 -2.6293
17068TIP3    H272620   3.156   6.284  13.188 -0.7550 -0.2693  0.2597
17069TIP3   OH272621   4.816   4.518   5.583 -0.3974  0.2105  0.2362
17069TIP3    H172622   4.824   4.437   5.532  0.1151  0.2200  0.2987
17069TIP3    H272623   4.867   4.502   5.662  0.9528  1.1258 -0.4201
17070TIP3   OH272624   2.889   1.995   1.779  0.4017 -0.0639  0.2201
17070TIP3    H172625   2.939   1.999   1.860 -0.2793  0.4093  0.6216
17070TIP3    H272626   2.955   1.999   1.710  1.1168 -2.0144  0.7270
17071TIP3   OH272627   4.136   3.494   4.892  0.0821  0.1540  0.5009
17071TIP3    H172628   4.232   3.494   4.886  0.0007 -0.3474 -1.2810
17071TIP3    H272629   4.111   3.581   4.862 -0.0688 -0.1604 -0.2977
17072TIP3   OH272630   3.459   4.292  13.424  0.1403  0.5427 -0.3789
17072TIP3    H172631   3.524   4.351  13.463  1.8739 -0.0281 -2.2018
17072TIP3    H272632   3.426   4.241  13.497  1.5729  1.0479  0.6706
17073TIP3   OH272633   4.761   0.068  11.979 -0.3250  0.5624 -0.2977
17073TIP3    H172634   4.827   0.116  12.028  0.2223 -2.6955  2.6078
17073TIP3    H272635   4.787   0.076  11.888  3.0941  0.8895  0.5735
17074TIP3   OH272636   1.536   2.718  10.725 -0.6571  0.1738 -0.6625
17074TIP3    H172637   1.550   2.629  10.757 -1.7593 -0.0884 -0.8783
17074TIP3    H272638   1.455   2.746  10.766 -0.9341  0.6442 -1.5088
17075TIP3   OH272639   1.667   1.041  14.841 -0.3102  0.5028  0.1180
17075TIP3    H172640   1.668   1.023  14.935 -0.4338 -0.5357 -0.0662
17075TIP3    H272641   1.585   1.088  14.827  0.3385  1.8453  0.7214
17076TIP3   OH272642   5.672   2.665   2.561 -0.1546  0.4724 -0.1349
17076TIP3    H172643   5.594   2.610   2.573  0.1927  0.4726  2.9904
17076TIP3    H272644   5.646   2.751   2.596  1.2227  0.4315  1.1139
17077TIP3   OH272645   1.366   3.937  13.640  0.0718  0.4818 -0.1848
17077TIP3    H172646   1.362   3.929  13.545 -0.9147 -0.8460 -0.0632
17077TIP3    H272647   1.449   3.982  13.657  0.0817  1.0683 -1.6776
17078TIP3   OH272648   0.499   6.646   1.584  0.3807 -0.0944  0.6575
17078TIP3    H172649   0.414   6.602   1.575  0.1509  0.4708 -0.0237
17078TIP3    H272650   0.482   6.719   1.645 -0.2461  1.5027 -1.3268
17079TIP3   OH272651   1.349   0.920  12.626  0.7350  0.3067  0.3052
17079TIP3    H172652   1.346   0.874  12.710  0.9870  0.1735  0.2434
17079TIP3    H272653   1.437   0.904  12.593 -0.0237 -1.5176 -1.0137
17080TIP3   OH272654   2.926   1.437  16.503  0.1252 -0.0277 -0.6142
17080TIP3    H172655   2.987   1.435  16.577  0.4154  0.2365 -0.8435
17080TIP3    H272656   2.846   1.476  16.540  0.5311  0.8494 -0.6210
17081TIP3   OH272657   1.281   0.396   5.038 -0.1247 -0.1606 -0.1730
17081TIP3    H172658   1.229   0.323   5.073 -2.1145 -0.0326 -2.5498
17081TIP3    H272659   1.367   0.357   5.020  0.6495 -0.5013  3.4149
17082TIP3   OH272660   4.340   0.306  11.416 -0.6528  0.2311 -0.0140
17082TIP3    H172661   4.399   0.235  11.393 -0.9164  0.4837 -1.6322
17082TIP3    H272662   4.252   0.268  11.407 -0.8037  0.7843 -1.1509
17083TIP3   OH272663   2.085   2.213  14.768 -0.1526 -0.5687 -0.1111
17083TIP3    H172664   2.081   2.296  14.720  0.6577 -0.9620 -0.8924
17083TIP3    H272665   2.096   2.238  14.860 -1.4721  0.1962 -0.1504
17084TIP3   OH272666   3.644   0.894  16.402 -0.2851  0.1702  0.0353
17084TIP3    H172667   3.677   0.804  16.393  1.0064  0.6382 -0.1782
17084TIP3    H272668   3.698   0.945  16.341  0.0170  1.3313  1.2188
17085TIP3   OH272669   2.658   3.179   1.161  0.2973  0.2955  0.3051
17085TIP3    H172670   2.593   3.198   1.094 -0.3676 -2.1490  0.1583
17085TIP3    H272671   2.693   3.264   1.185 -2.4939  1.6757 -0.0671
17086TIP3   OH272672   5.841   5.162  13.193 -0.1798 -0.3204  0.1193
17086TIP3    H172673   5.831   5.237  13.134  0.1824 -0.3854 -0.0303
17086TIP3    H272674   5.755   5.150  13.233 -0.1765  0.3490  0.3438
17087TIP3   OH272675   3.523   4.580   4.030 -0.1981 -0.1512  0.4994
17087TIP3    H172676   3.517   4.493   3.990 -1.1411 -0.0171  0.3280
17087TIP3    H272677   3.589   4.569   4.099  0.1245 -0.8455  0.1039
17088TIP3   OH272678   3.140   4.701   5.694  0.6968 -0.0619  0.0419
17088TIP3    H172679   3.083   4.628   5.667  0.5488  0.2968 -0.6471
17088TIP3    H272680   3.104   4.729   5.778  0.4129 -0.4301  0.0479
17089TIP3   OH272681   0.802   6.082   1.960  0.0381 -0.0352 -0.4638
17089TIP3    H172682   0.895   6.061   1.946  0.2429 -0.7441  1.6287
17089TIP3    H272683   0.755   6.015   1.912  0.6303 -0.3113 -0.6715
17090TIP3   OH272684   0.776   1.936  12.004 -0.6613 -0.6066 -0.2688
17090TIP3    H172685   0.730   1.932  12.088  1.2918  3.6884  1.2993
17090TIP3    H272686   0.855   1.884  12.018 -0.2122  0.3058  0.6940
17091TIP3   OH272687   3.766   1.133  11.071 -0.9323 -0.5395 -0.0756
17091TIP3    H172688   3.702   1.190  11.029 -0.3552 -0.4901 -0.9310
17091TIP3    H272689   3.780   1.171  11.157 -0.6017  0.5853 -0.6066
17092TIP3   OH272690   6.351   2.283   1.237 -0.2253 -0.0076 -0.1438
17092TIP3    H172691   6.370   2.257   1.147 -1.4136  0.5509 -0.5805
17092TIP3    H272692   6.289   2.217   1.269  1.8155 -1.4374  1.0317
17093TIP3   OH272693   6.503   1.353   3.159  0.0549 -0.6742 -0.1848
17093TIP3    H172694   6.411   1.343   3.184 -0.6924  0.8974 -2.0521
17093TIP3    H272695   6.539   1.415   3.223 -0.9302  0.7446 -0.9478
17094TIP3   OH272696   0.755   3.807  15.036 -0.4660 -0.5286  0.0088
17094TIP3    H172697   0.729   3.715  15.032  2.5591 -1.4785 -0.1453
17094TIP3    H272698   0.726   3.844  14.953 -1.4399 -1.3981 -0.0553
17095TIP3   OH272699   3.481   0.125  14.154 -0.7076 -0.6211  0.2380
17095TIP3    H172700   3.400   0.172  14.132  0.3933  0.3846 -1.9128
17095TIP3    H272701   3.533   0.189  14.203  0.2794  0.0567 -1.6170
17096TIP3   OH272702   0.229   4.416   0.185 -0.0276  0.1965  0.2747
17096TIP3    H172703   0.149   4.377   0.221  0.1424  0.3200  0.7946
17096TIP3    H272704   0.208   4.432   0.093 -0.3284 -0.4978  0.2159
17097TIP3   OH272705   0.547   3.484  13.550  0.0187  0.4780 -0.4678
17097TIP3    H172706   0.581   3.549  13.489  1.5450  0.8787  0.7578
17097TIP3    H272707   0.595   3.404  13.530  0.2861  0.5236 -0.0302
17098TIP3   OH272708   0.655   2.587   4.816  0.1534  0.0983 -0.0047
17098TIP3    H172709   0.686   2.678   4.823 -0.0130  0.1727 -0.2340
17098TIP3    H272710   0.714   2.547   4.752  3.1394 -1.2072  3.2187
17099TIP3   OH272711   4.126   4.942   3.572 -0.6886 -0.0599  0.6012
17099TIP3    H172712   4.111   4.915   3.482 -0.5152 -0.2708  0.6331
17099TIP3    H272713   4.046   4.917   3.619 -0.0410 -1.7189  0.8927
17100TIP3   OH272714   3.922   3.977   5.369 -0.2637  0.2380 -0.2412
17100TIP3    H172715   3.855   4.002   5.433 -0.1941  1.1311 -0.5109
17100TIP3    H272716   3.873   3.946   5.293 -0.3476 -0.7446  0.1946
17101TIP3   OH272717   1.772   3.730  11.660  0.4765  0.4426 -0.1817
17101TIP3    H172718   1.791   3.724  11.754  1.2868  1.1894 -0.2867
17101TIP3    H272719   1.858   3.730  11.618  0.1839  1.5735 -0.8292
17102TIP3   OH272720   4.041   0.637   5.357  0.3108 -0.7971 -0.1010
17102TIP3    H172721   4.105   0.704   5.330  0.6953 -1.2980 -0.4473
17102TIP3    H272722   3.956   0.680   5.349  0.6417  0.1440  1.1322
17103TIP3   OH272723   5.252   1.577  16.586 -0.3506  0.4871  0.3919
17103TIP3    H172724   5.341   1.612  16.590 -0.7466  1.4445  1.5116
17103TIP3    H272725   5.251   1.506  16.650  1.0537 -3.2979 -3.3198
17104TIP3   OH272726   3.242   0.861  11.852 -0.6516 -0.2382 -0.4310
17104TIP3    H172727   3.305   0.900  11.912  0.7128 -2.5198 -0.2461
17104TIP3    H272728   3.239   0.920  11.777  2.1828 -0.3181 -0.6954
17105TIP3   OH272729   1.611   2.462  10.825  0.0276 -0.1683  0.3590
17105TIP3    H172730   1.526   2.422  10.840  0.2407 -0.1701  1.6364
17105TIP3    H272731   1.644   2.420  10.745 -0.9429 -0.5166  0.1340
17106TIP3   OH272732   4.922   4.489   3.530 -0.2916 -0.7157  0.3102
17106TIP3    H172733   4.930   4.536   3.447  0.7118 -1.6861 -0.1662
17106TIP3    H272734   4.901   4.557   3.594  0.3299  0.2647 -0.4914
17107TIP3   OH272735   1.568   2.069   2.771 -0.0580  0.0941  0.9047
17107TIP3    H172736   1.569   2.034   2.861 -0.8324 -1.0825  0.4835
17107TIP3    H272737   1.521   2.152   2.779 -0.3215 -0.1036  1.5647
17108TIP3   OH272738   5.516   0.517   1.700 -0.2760  0.4345  0.4552
17108TIP3    H172739   5.507   0.507   1.795  0.8846 -1.4718  0.4274
17108TIP3    H272740   5.606   0.490   1.682 -0.4726  0.8027 -1.1857
17109TIP3   OH272741   0.674   5.442  14.018 -0.1857  0.1697 -0.0421
17109TIP3    H172742   0.734   5.367  14.025 -0.6241 -0.1938 -0.1043
17109TIP3    H272743   0.630   5.444  14.103 -0.7072 -0.1046 -0.3023
17110TIP3   OH272744   4.229   4.931   3.921 -0.1748  0.1802  0.1742
17110TIP3    H172745   4.207   4.873   3.994  2.5246  0.5192  1.3865
17110TIP3    H272746   4.183   4.894   3.846 -1.4759 -1.3457  1.6357
17111TIP3   OH272747   2.392   6.398  12.309  0.1830 -1.0672  0.2797
17111TIP3    H172748   2.451   6.416  12.382 -0.2704 -0.7231  0.5664
17111TIP3    H272749   2.410   6.306  12.286  3.0049 -0.1640 -1.6280
17112TIP3   OH272750   6.271   2.528   1.716  0.2281 -0.2451  0.0737
17112TIP3    H172751   6.340   2.594   1.725  0.7343 -0.4042 -1.9395
17112TIP3    H272752   6.212   2.544   1.789  2.4411 -0.1725  1.9744
17113TIP3   OH272753   1.300   2.480   0.845  0.6710  0.1886 -0.1486
17113TIP3    H172754   1.205   2.477   0.837  0.5435  2.4453 -0.1138
17113TIP3    H272755   1.332   2.434   0.767 -0.4715  1.0689 -1.1717
17114TIP3   OH272756   6.225   3.819  13.550 -0.4924 -0.1292  0.5308
17114TIP3    H172757   6.293   3.781  13.495 -0.6398 -0.7594  0.7691
17114TIP3    H272758   6.247   3.789  13.639 -1.4157 -0.8535  0.5255
17115TIP3   OH272759   0.737   5.714   4.280  0.1668 -0.2379  0.2269
17115TIP3    H172760   0.822   5.695   4.240 -0.9752 -1.1040 -2.0051
17115TIP3    H272761   0.741   5.807   4.302  2.4926 -0.7674  2.4272
17116TIP3   OH272762   4.738   1.923  14.037  0.1265 -0.1973 -0.7488
17116TIP3    H172763   4.732   1.916  14.133  0.7423 -0.2784 -0.7143
17116TIP3    H272764   4.697   2.007  14.018  3.0489  1.5201 -0.0597
17117TIP3   OH272765   3.668   2.961   2.630 -0.3588  0.0889 -0.2073
17117TIP3    H172766   3.728   2.971   2.556 -0.3174  1.0441 -0.0548
17117TIP3    H272767   3.657   3.049   2.665 -2.6481  0.1492 -0.8621
17118TIP3   OH272768   4.285   5.786  14.127  0.0875  0.3268 -0.3492
17118TIP3    H172769   4.271   5.865  14.076  0.1015 -0.0578 -0.9677
17118TIP3    H272770   4.199   5.744  14.131 -0.3988  1.4276  1.8187
17119TIP3   OH272771   1.624   6.542  16.619 -0.0952  0.0104 -0.4431
17119TIP3    H172772   1.648   6.626  16.579 -0.5775  0.1925 -0.3710
17119TIP3    H272773   1.563   6.503  16.556  1.4653 -1.1050 -1.3136
17120TIP3   OH272774   2.205   2.902  16.287  0.2372  0.3330  0.2028
17120TIP3    H172775   2.159   2.983  16.262 -0.3373  0.6468  2.0760
17120TIP3    H272776   2.134   2.842  16.310  0.7102  0.0994  1.0702
17121TIP3   OH272777   1.889   3.628  16.667 -0.0487 -0.1814 -0.3034
17121TIP3    H172778   1.811   3.679  16.685  0.4205  0.6695 -0.6193
17121TIP3    H272779   1.955   3.662  16.727  0.3101 -0.3293 -0.6049
17122TIP3   OH272780   3.894   1.636  16.442  0.6758 -0.5692 -0.2463
17122TIP3    H172781   3.908   1.710  16.383 -3.4486 -0.9203 -1.9670
17122TIP3    H272782   3.914   1.671  16.529  2.9946  1.1846 -1.3815
17123TIP3   OH272783   4.145   2.854   3.079  0.3746  0.0022  0.8552
17123TIP3    H172784   4.097   2.833   2.999 -0.1135  1.9769  0.5916
17123TIP3    H272785   4.157   2.769   3.122 -1.2964 -0.8276 -0.2079
17124TIP3   OH272786   2.538   6.132  11.785  0.4169 -0.0677 -0.3141
17124TIP3    H172787   2.557   6.187  11.861  0.3508 -0.3528 -0.0898
17124TIP3    H272788   2.467   6.177  11.740  0.8050  0.3721 -0.4922
17125TIP3   OH272789   3.098   2.377   4.270  0.1428  0.8856  0.4923
17125TIP3    H172790   3.148   2.449   4.309  0.2943  0.1118  1.7756
17125TIP3    H272791   3.161   2.305   4.264 -0.8906 -0.2875  2.6603
17126TIP3   OH272792   5.170   1.391  12.852  0.1820 -0.1934  0.2809
17126TIP3    H172793   5.167   1.387  12.948  0.5529 -0.5011  0.2833
17126TIP3    H272794   5.244   1.448  12.832  0.9155 -1.1536  0.1779
17127TIP3   OH272795   6.294   0.524   1.563 -0.0379  0.3000  0.6353
17127TIP3    H172796   6.293   0.451   1.625  0.2968 -0.3949 -0.1554
17127TIP3    H272797   6.334   0.596   1.611  0.3404 -0.2703  1.1858
17128TIP3   OH272798   0.987   5.855   1.300 -0.1272 -0.2819  0.3017
17128TIP3    H172799   0.964   5.876   1.391  0.9936  1.8328  0.1543
17128TIP3    H272800   0.939   5.774   1.282 -0.2990 -0.8258  2.7939
17129TIP3   OH272801   1.241   0.362   2.442 -0.3136 -0.7221 -0.9059
17129TIP3    H172802   1.238   0.311   2.361  1.4461  0.9846 -2.1274
17129TIP3    H272803   1.327   0.403   2.442 -0.7960  0.4390  1.1516
17130TIP3   OH272804   6.235   3.786  15.050 -0.2675 -0.0382 -0.3438
17130TIP3    H172805   6.282   3.857  15.008 -0.0831  0.6727  0.9987
17130TIP3    H272806   6.236   3.715  14.986  1.4642  0.4037 -0.8613
17131TIP3   OH272807   3.194   1.130   3.341  0.3703  0.6764  0.4045
17131TIP3    H172808   3.267   1.134   3.279  1.6257  1.3623  1.8725
17131TIP3    H272809   3.212   1.053   3.394 -1.5013 -0.7962 -0.9717
17132TIP3   OH272810   5.170   0.955  12.948  0.2691  0.1383  0.0389
17132TIP3    H172811   5.183   0.888  13.015 -1.4771 -1.7777 -1.4058
17132TIP3    H272812   5.206   1.035  12.987  2.2918 -1.5391  1.9256
17133TIP3   OH272813   0.988   6.327  14.689  0.0499  0.6015  0.3658
17133TIP3    H172814   1.004   6.289  14.603 -0.1050 -0.4445  0.7869
17133TIP3    H272815   0.953   6.414  14.670  0.9946  0.7894 -0.6051
17134TIP3   OH272816   0.734   1.359  14.889 -0.2289  0.3756 -0.0260
17134TIP3    H172817   0.736   1.401  14.803 -0.4830 -0.4072 -0.4147
17134TIP3    H272818   0.650   1.314  14.892 -0.5006  0.9135  0.8877
17135TIP3   OH272819   4.005   3.429  15.034 -0.7307 -0.1656  0.2739
17135TIP3    H172820   4.057   3.417  14.955 -1.4293  0.8722 -0.3644
17135TIP3    H272821   4.069   3.428  15.105 -0.2345 -2.7904 -0.0744
17136TIP3   OH272822   3.540   2.586  17.256 -0.2183  0.5483 -0.0137
17136TIP3    H172823   3.553   2.677  17.282 -1.0036  0.2797  1.3870
17136TIP3    H272824   3.499   2.545  17.332  1.5085 -1.3534 -0.0281
17137TIP3   OH272825   1.074   4.499  15.339 -0.1348 -0.3705  0.0814
17137TIP3    H172826   1.045   4.465  15.255 -2.5622  1.1568  0.2124
17137TIP3    H272827   0.996   4.498  15.394  1.2244 -0.6483  2.1201
17138TIP3   OH272828   5.756   2.477  17.058 -0.6934  0.9092 -0.6222
17138TIP3    H172829   5.729   2.554  17.109  1.4872  0.5818  1.1928
17138TIP3    H272830   5.765   2.407  17.124  0.6247  0.0117 -1.7009
17139TIP3   OH272831   1.371   3.878  14.379  0.0571  0.1376 -0.0356
17139TIP3    H172832   1.383   3.967  14.411  0.8673  0.4007 -1.0172
17139TIP3    H272833   1.284   3.878  14.339 -1.3187 -0.4076  2.7182
17140TIP3   OH272834   1.398   1.889  16.664  0.1959  0.3136 -0.1738
17140TIP3    H172835   1.312   1.897  16.705 -0.4114  1.0878 -1.5437
17140TIP3    H272836   1.459   1.926  16.728 -0.9193  3.0184 -0.5314
17141TIP3   OH272837   5.042   4.615  16.630  0.3098 -0.2678 -0.1280
17141TIP3    H172838   5.100   4.691  16.621  0.2670 -0.3375 -1.1565
17141TIP3    H272839   5.050   4.589  16.721 -1.6027  2.5130  0.9824
17142TIP3   OH272840   2.838   6.372  16.709  0.1843 -0.2709  0.2025
17142TIP3    H172841   2.743   6.389  16.705  0.1650 -0.6638 -2.5057
17142TIP3    H272842   2.851   6.336  16.797 -1.7298  2.1155  1.6100
17143TIP3   OH272843   0.294   0.560  15.909 -0.8504 -0.0052 -0.0596
17143TIP3    H172844   0.390   0.550  15.906 -0.8370 -0.1065  0.6044
17143TIP3    H272845   0.261   0.470  15.901 -0.8593 -0.0756  0.6731
17144TIP3   OH272846   5.041   6.005   3.964  0.4364  0.6370 -0.0710
17144TIP3    H172847   4.987   5.936   4.004  0.1350  1.2603  0.6090
17144TIP3    H272848   5.035   5.988   3.870  1.4160 -1.0535  0.1372
17145TIP3   OH272849   3.071   5.317   1.989  0.0198 -0.1864 -0.0496
17145TIP3    H172850   3.145   5.368   1.956  1.9297 -1.6200  1.7295
17145TIP3    H272851   3.108   5.231   2.007 -2.9555 -2.1340 -2.4253
17146TIP3   OH272852   2.735   3.055   5.722 -0.1733 -0.2089 -0.3009
17146TIP3    H172853   2.680   3.133   5.724  0.4634  0.2642 -0.8240
17146TIP3    H272854   2.793   3.065   5.798 -0.2756 -0.3132 -0.2081
17147TIP3   OH272855   6.273   1.861   0.805  0.7825 -0.0230  0.0777
17147TIP3    H172856   6.327   1.796   0.850  0.8762  0.5900  0.8495
17147TIP3    H272857   6.320   1.877   0.723  0.4794 -1.3289 -0.3823
17148TIP3   OH272858   2.396   4.176  15.182 -0.1536 -0.2674  0.4152
17148TIP3    H172859   2.412   4.124  15.261  1.7650  0.3438  0.4839
17148TIP3    H272860   2.465   4.151  15.122  1.2134  2.4870  0.6485
17149TIP3   OH272861   1.144   4.575   2.757 -0.3614  0.5142 -0.0955
17149TIP3    H172862   1.168   4.606   2.670 -2.2565  0.5570 -0.6470
17149TIP3    H272863   1.062   4.620   2.777 -0.3293 -0.0398  1.4079
17150TIP3   OH272864   0.098   0.323   4.321 -0.4614  0.0308  0.4302
17150TIP3    H172865   0.003   0.324   4.322 -0.6505 -2.2079 -2.7132
17150TIP3    H272866   0.122   0.387   4.254  0.3326  1.0353  1.6306
17151TIP3   OH272867   3.019   4.818   1.245  0.8668  0.6951 -0.3745
17151TIP3    H172868   2.940   4.818   1.191  1.4176  3.3496 -1.3322
17151TIP3    H272869   3.088   4.848   1.187  2.4877 -0.8898  0.6291
17152TIP3   OH272870   5.683   4.120   1.221  0.3543 -0.2417  0.4188
17152TIP3    H172871   5.690   4.037   1.269 -0.4449 -0.7706 -0.3366
17152TIP3    H272872   5.591   4.123   1.193 -1.1936  3.2766  4.6360
17153TIP3   OH272873   6.400   4.767  16.092  0.0439  0.2089 -0.2835
17153TIP3    H172874   6.454   4.778  16.014 -1.2705  0.0954 -1.2329
17153TIP3    H272875   6.371   4.676  16.089 -0.4346  0.3427  0.0514
17154TIP3   OH272876   4.020   6.610   3.034  1.1636  0.0229  0.7330
17154TIP3    H172877   3.953   6.550   3.065  0.6687  0.0901 -0.1527
17154TIP3    H272878   3.978   6.695   3.033  1.4523  0.1672  0.7622
17155TIP3   OH272879   0.917   4.163   4.433  0.0997 -0.5474  0.2678
17155TIP3    H172880   0.858   4.217   4.486 -0.9948 -0.6355 -0.7984
17155TIP3    H272881   0.879   4.075   4.438 -0.4957 -0.4160 -1.2506
17156TIP3   OH272882   3.081   2.592  12.398  0.2586 -0.2891 -0.5116
17156TIP3    H172883   3.015   2.523  12.393  1.0381 -1.0862  0.0999
17156TIP3    H272884   3.121   2.582  12.484  0.9605  0.3945 -0.7416
17157TIP3   OH272885   3.116   4.106   5.135 -0.3397  0.1585 -0.4235
17157TIP3    H172886   3.207   4.127   5.153 -0.2238  0.1103 -0.9337
17157TIP3    H272887   3.102   4.020   5.175  0.1572 -0.3446 -1.2952
17158TIP3   OH272888   3.822   0.930   3.550 -0.6389 -0.1758  1.1065
17158TIP3    H172889   3.736   0.891   3.534  0.2386 -1.7523 -0.0083
17158TIP3    H272890   3.849   0.963   3.464 -0.4055  0.9272  1.5898
17159TIP3   OH272891   0.444   5.579  16.202 -0.0809 -0.1163 -0.2785
17159TIP3    H172892   0.409   5.634  16.132 -0.0237  0.2304 -0.0365
17159TIP3    H272893   0.390   5.598  16.278 -0.6397 -1.0769 -0.4258
17160TIP3   OH272894   4.978   5.979   1.753 -0.2770 -0.0370 -0.0115
17160TIP3    H172895   4.948   6.002   1.841 -1.0257 -0.3281 -0.1834
17160TIP3    H272896   5.014   6.060   1.718  0.3216  0.0041  0.6783
17161TIP3   OH272897   0.386   3.876   0.161 -0.0101  0.2116 -0.2930
17161TIP3    H172898   0.414   3.854   0.250  1.5716 -1.1507 -1.0609
17161TIP3    H272899   0.296   3.908   0.170 -0.2194 -0.8272  1.6675
17162TIP3   OH272900   6.757   2.875   2.438  0.0486 -0.2330  0.4653
17162TIP3    H172901   6.709   2.872   2.355 -1.1952  0.1990  1.1401
17162TIP3    H272902   6.824   2.941   2.425 -0.7271  0.4994  0.0932
17163TIP3   OH272903   3.613   1.003   6.711 -1.4184  0.4435 -0.4148
17163TIP3    H172904   3.637   1.042   6.795 -0.8501  0.9054 -0.7778
17163TIP3    H272905   3.618   1.076   6.649 -0.7815 -0.1086 -1.0316
17164TIP3   OH272906   0.056   4.477   1.647 -0.8923 -0.2036 -0.0764
17164TIP3    H172907   0.104   4.402   1.682 -1.0915 -0.3119 -0.0390
17164TIP3    H272908  -0.034   4.447   1.639 -1.1634  0.3232  0.8306
17165TIP3   OH272909   6.139   4.101  13.534  0.3715  0.5185 -0.0222
17165TIP3    H172910   6.186   4.142  13.462 -0.0025  1.0278  0.0186
17165TIP3    H272911   6.164   4.009  13.529  0.4030  0.5578 -0.7610
17166TIP3   OH272912   2.155   4.326  15.114  0.1884  0.5262  0.4198
17166TIP3    H172913   2.201   4.393  15.165  2.1153  0.7093 -1.4103
17166TIP3    H272914   2.223   4.262  15.091  0.0743  1.6042 -3.7308
17167TIP3   OH272915   5.360   1.980   5.175  0.2084  0.0784  0.2204
17167TIP3    H172916   5.323   1.908   5.124  1.5683  0.6112 -1.6690
17167TIP3    H272917   5.297   2.051   5.166 -0.5802 -0.5016  1.1014
17168TIP3   OH272918   3.438   3.620   6.055 -0.0822 -0.1100  0.1036
17168TIP3    H172919   3.357   3.655   6.018 -0.8422 -0.2969  1.5254
17168TIP3    H272920   3.439   3.652   6.145  0.0824 -2.2472  0.9149
17169TIP3   OH272921   3.947   2.075  15.247  0.0006  0.1103  0.1097
17169TIP3    H172922   3.894   2.010  15.293  0.2699 -0.3387 -0.2049
17169TIP3    H272923   3.899   2.157  15.257  0.2166  0.0961  1.4779
17170TIP3   OH272924   4.643   3.946   3.819 -0.7166 -0.4873 -0.7152
17170TIP3    H172925   4.568   4.004   3.815 -0.0022  0.4696 -0.6572
17170TIP3    H272926   4.695   3.979   3.893 -0.6247 -1.6153 -0.2537
17171TIP3   OH272927   3.588   1.994   0.701 -0.7748 -0.2322 -0.0095
17171TIP3    H172928   3.615   2.075   0.657 -0.1242 -0.6079 -0.3039
17171TIP3    H272929   3.666   1.939   0.702 -1.4927 -1.3031 -0.7904
17172TIP3   OH272930   2.319   2.207  12.300 -0.4797  0.0815  0.2690
17172TIP3    H172931   2.255   2.140  12.274 -1.1260  0.7881  0.0133
17172TIP3    H272932   2.288   2.237  12.386 -0.4980  0.4264  0.1428
17173TIP3   OH272933   5.245   6.289   5.527  0.1728  0.7126  0.1513
17173TIP3    H172934   5.319   6.299   5.467  0.1260 -1.0044 -0.2365
17173TIP3    H272935   5.226   6.378   5.556  0.1336  1.6584 -2.4502
17174TIP3   OH272936   0.904   2.132  16.600  0.2211  0.0165  0.0784
17174TIP3    H172937   0.853   2.084  16.665  3.3086  0.0702  2.7623
17174TIP3    H272938   0.884   2.224  16.617 -0.1868 -0.0247 -0.1610
17175TIP3   OH272939   2.022   1.794  15.979 -0.5191  0.0618 -0.1005
17175TIP3    H172940   2.031   1.886  15.957 -0.8171  0.7081  2.2198
17175TIP3    H272941   2.097   1.774  16.035  1.4851 -2.1175 -3.2069
17176TIP3   OH272942   4.467   2.166  16.030 -0.4782  0.0442  0.2079
17176TIP3    H172943   4.489   2.094  15.971  1.6518  0.0381  0.9328
17176TIP3    H272944   4.515   2.241  15.996 -2.6020  1.1553 -0.4785
17177TIP3   OH272945   6.213   1.589   0.724 -0.2241  0.3506 -0.4124
17177TIP3    H172946   6.136   1.583   0.781 -0.7156 -0.8913 -1.1537
17177TIP3    H272947   6.194   1.663   0.666 -0.3695  0.7213  0.1070
17178TIP3   OH272948   3.583   0.989   0.796 -0.1031 -0.4159  0.1606
17178TIP3    H172949   3.545   1.012   0.711 -0.4812  1.8454  0.8673
17178TIP3    H272950   3.512   1.003   0.858  0.6203 -0.5060  1.0176
17179TIP3   OH272951   0.700   0.272   2.283 -0.1114 -0.0476  0.9291
17179TIP3    H172952   0.789   0.282   2.316  0.1092  1.1219  0.0310
17179TIP3    H272953   0.708   0.275   2.188 -1.0935 -0.0951  0.8318
17180TIP3   OH272954   0.091   2.400   0.281 -0.1175 -0.2534 -0.5065
17180TIP3    H172955   0.159   2.404   0.214  1.3718 -2.0965  0.7875
17180TIP3    H272956   0.100   2.313   0.319 -2.8435 -0.3469  0.1451
17181TIP3   OH272957   2.985   6.353  13.938  0.3073  0.2886  0.2261
17181TIP3    H172958   3.076   6.380  13.928  0.1828  0.6703  0.0849
17181TIP3    H272959   2.979   6.316  14.026  0.9243 -1.0553 -0.2735
17182TIP3   OH272960   5.193   5.607  14.452  0.0144 -0.5332  0.3402
17182TIP3    H172961   5.202   5.531  14.509  0.3782 -1.1391 -0.4979
17182TIP3    H272962   5.229   5.679  14.503  0.2012 -1.0317  0.9307
17183TIP3   OH272963   4.359   3.388   2.332  0.1799  0.0371 -0.4773
17183TIP3    H172964   4.419   3.414   2.262  0.6082 -0.1747 -0.1921
17183TIP3    H272965   4.313   3.311   2.298 -0.1509  0.3734 -0.8110
17184TIP3   OH272966   2.986   1.109  14.905 -0.1085  0.0764  0.1189
17184TIP3    H172967   3.074   1.133  14.933  1.2579 -1.3836 -2.4977
17184TIP3    H272968   2.929   1.174  14.946  2.4292  2.6734 -0.1362
17185TIP3   OH272969   3.334   4.797  15.744 -0.1882 -0.2561  0.3466
17185TIP3    H172970   3.361   4.772  15.833  0.8761 -1.5151 -0.3031
17185TIP3    H272971   3.246   4.760  15.735 -0.5209  0.3295  1.0364
17186TIP3   OH272972   2.814   5.409  11.891 -0.5361 -0.2113 -0.2016
17186TIP3    H172973   2.738   5.396  11.835  0.4094 -2.9297 -1.0267
17186TIP3    H272974   2.789   5.370  11.975 -0.4197 -0.2006 -0.1624
17187TIP3   OH272975   1.416   0.228  15.878  0.7758 -1.0727 -0.1973
17187TIP3    H172976   1.510   0.218  15.895  0.9424 -0.3011 -0.6510
17187TIP3    H272977   1.411   0.273  15.794  0.0037 -0.5601  0.1110
17188TIP3   OH272978   0.015   6.317   0.441 -0.1229 -0.4755 -0.4237
17188TIP3    H172979  -0.046   6.262   0.393 -0.5642 -1.5085  1.2374
17188TIP3    H272980   0.063   6.365   0.373 -0.6799 -1.8798 -1.8696
17189TIP3   OH272981   5.148   3.644  16.840 -0.5957 -0.0511 -0.2050
17189TIP3    H172982   5.130   3.685  16.924  0.9507  0.9638 -0.3362
17189TIP3    H272983   5.064   3.643  16.795 -1.1929  0.4880  0.8738
17190TIP3   OH272984   3.320   1.526  13.377  0.0590 -0.2782  0.5647
17190TIP3    H172985   3.408   1.518  13.412  0.8957 -0.7918 -1.5060
17190TIP3    H272986   3.329   1.504  13.284 -1.8760  1.6962 -0.1779
17191TIP3   OH272987   2.568   0.022   1.879  0.3451  0.0353 -0.0939
17191TIP3    H172988   2.643   0.066   1.921  0.4132  0.3808 -0.5639
17191TIP3    H272989   2.596   0.010   1.788 -0.7359  1.5427 -0.6762
17192TIP3   OH272990   4.331   0.010   3.093  0.4124  0.5794 -0.0876
17192TIP3    H172991   4.373   0.076   3.037  1.7618 -0.9112 -0.9339
17192TIP3    H272992   4.299  -0.056   3.032  2.8281 -1.6092  0.8290
17193TIP3   OH272993   3.753   3.678   5.423 -0.0587 -1.1164 -0.4392
17193TIP3    H172994   3.775   3.647   5.511 -0.7516  2.0953  1.0151
17193TIP3    H272995   3.838   3.694   5.381  0.3281 -0.3283  0.5998
17194TIP3   OH272996   5.894   4.388   1.085  0.2511  0.3365  0.0611
17194TIP3    H172997   5.877   4.470   1.039  0.2674 -0.7020 -1.8665
17194TIP3    H272998   5.840   4.394   1.164 -1.5294  1.2433 -1.1573
17195TIP3   OH272999   4.616   2.565  16.627 -0.4421  0.0776 -0.6525
17195TIP3    H173000   4.658   2.509  16.692  0.4473  0.6782 -0.7012
17195TIP3    H273001   4.568   2.504  16.570 -0.1800 -0.5545 -0.1966
17196TIP3   OH273002   0.522   2.025  16.708 -0.3554 -0.7032 -0.6849
17196TIP3    H173003   0.482   2.111  16.697 -0.2316 -0.4741  0.5568
17196TIP3    H273004   0.521   1.987  16.620 -2.9090 -0.5330 -0.8203
17197TIP3   OH273005   3.701   4.146  12.727 -0.2599  0.5727  0.7406
17197TIP3    H173006   3.766   4.170  12.793  0.2133  0.0991  0.4534
17197TIP3    H273007   3.617   4.151  12.773  0.1186 -0.3659  1.5503
17198TIP3   OH273008   3.651   0.767  16.830 -0.4501 -0.1894 -0.0844
17198TIP3    H173009   3.644   0.682  16.874 -2.6910 -0.3922 -0.6946
17198TIP3    H273010   3.624   0.831  16.897  1.9029  0.1993  0.5968
17199TIP3   OH273011   3.647   2.052  14.642 -0.3023  0.0872  0.1298
17199TIP3    H173012   3.564   2.021  14.607  1.0204 -2.1612 -1.2234
17199TIP3    H273013   3.656   2.141  14.608 -1.6033 -0.0724 -0.6642
17200TIP3   OH273014   5.231   0.859   5.243  0.2037 -0.0474  0.2153
17200TIP3    H173015   5.154   0.876   5.297 -0.6942 -1.1017 -0.6845
17200TIP3    H273016   5.234   0.763   5.235  0.6366  0.0544 -1.1068
17201TIP3   OH273017   0.149   2.957   0.577  0.2888 -0.0058 -0.4989
17201TIP3    H173018   0.118   3.043   0.547 -1.1210 -0.5453 -0.6709
17201TIP3    H273019   0.134   2.899   0.503  0.5233 -0.5542 -0.1223
17202TIP3   OH273020   4.868   5.121  12.111  0.4501 -0.3184 -0.0585
17202TIP3    H173021   4.823   5.042  12.083  0.3369 -0.3141  0.1112
17202TIP3    H273022   4.954   5.091  12.141 -0.0592 -0.5487  1.2356
17203TIP3   OH273023   2.427   5.423  11.799 -0.2993 -0.4739  0.1329
17203TIP3    H173024   2.482   5.352  11.768 -0.5591 -0.6730  0.1290
17203TIP3    H273025   2.369   5.383  11.864  0.0842 -0.1093  0.7106
17204TIP3   OH273026   5.928   4.953   1.562 -0.1926  0.6138 -0.2988
17204TIP3    H173027   5.968   4.980   1.644 -0.0743  0.5860 -0.3469
17204TIP3    H273028   5.941   5.027   1.502  0.9744  0.0880 -0.7168
17205TIP3   OH273029   3.529   5.292  17.147  0.5777  0.2400 -0.7464
17205TIP3    H173030   3.511   5.376  17.191  3.1354  1.6807 -2.2399
17205TIP3    H273031   3.585   5.245  17.208  1.9869  1.1338 -1.3167
17206TIP3   OH273032   3.207   4.241   2.291  0.0501 -0.1145  0.2567
17206TIP3    H173033   3.226   4.332   2.314  0.3705  0.4513 -1.9749
17206TIP3    H273034   3.230   4.192   2.369 -0.2724  1.7219  1.5799
17207TIP3   OH273035   1.570   3.599  14.394  0.7341 -0.3272  0.1302
17207TIP3    H173036   1.599   3.528  14.338  0.3822 -1.4089  1.2723
17207TIP3    H273037   1.574   3.677  14.339  0.2377 -1.3706 -1.4298
17208TIP3   OH273038   3.431   1.193   2.072 -0.5322  0.7554 -0.1846
17208TIP3    H173039   3.400   1.106   2.050 -1.1096  0.8207  0.3611
17208TIP3    H273040   3.437   1.238   1.988 -1.9078  0.7366 -0.3164
17209TIP3   OH273041   5.112   2.354  10.547  0.3112  0.9584 -0.1913
17209TIP3    H173042   5.133   2.397  10.464  0.2627  0.6779 -0.3491
17209TIP3    H273043   5.048   2.413  10.588 -1.1765  0.1337 -1.2487
17210TIP3   OH273044   3.090   1.135  15.712  0.1953  0.1166 -1.0479
17210TIP3    H173045   3.070   1.073  15.783  0.9959 -0.4239 -1.2775
17210TIP3    H273046   3.033   1.108  15.641 -1.3129  1.2578 -0.3265
17211TIP3   OH273047   0.815   1.159   1.372 -0.2757 -0.6489 -0.2153
17211TIP3    H173048   0.860   1.199   1.298  0.9285 -0.4029  0.6016
17211TIP3    H273049   0.746   1.106   1.334  0.3802 -0.5995 -1.5100
17212TIP3   OH273050   2.058   4.238   3.486 -0.3156 -0.2787 -0.0823
17212TIP3    H173051   2.034   4.182   3.412 -0.5429 -1.8402  1.1137
17212TIP3    H273052   2.139   4.201   3.519 -0.8265 -0.3431  1.1550
17213TIP3   OH273053   2.070   6.217   2.787  0.4846  0.5699 -0.2187
17213TIP3    H173054   2.089   6.253   2.700 -3.8328  0.1535 -1.5383
17213TIP3    H273055   2.052   6.294   2.841 -1.3467  0.7636 -1.0245
17214TIP3   OH273056   3.811   2.704  16.700 -0.5956 -0.5979  0.2239
17214TIP3    H173057   3.829   2.610  16.703  0.9665 -0.3445 -0.1985
17214TIP3    H273058   3.718   2.711  16.722 -1.1540 -2.3596 -1.3362
17215TIP3   OH273059   2.472   1.568  11.931 -0.2476  0.0993  0.1751
17215TIP3    H173060   2.488   1.662  11.936 -1.1911  0.2741  0.0767
17215TIP3    H273061   2.446   1.553  11.840  0.6802 -0.3960 -0.0233
17216TIP3   OH273062   4.665   0.352  12.111  0.7824 -0.4105  0.2607
17216TIP3    H173063   4.652   0.431  12.162 -0.6998 -0.5885  0.1872
17216TIP3    H273064   4.678   0.283  12.176  0.6091 -0.3469  0.3625
17217TIP3   OH273065   4.609   4.366  15.440 -0.1628 -0.1815  0.5025
17217TIP3    H173066   4.673   4.310  15.482  0.0445 -0.4753 -0.1945
17217TIP3    H273067   4.655   4.449  15.425  0.6873 -0.9823 -1.6836
17218TIP3   OH273068   1.491   3.571   3.552 -0.2863  0.0204  0.0613
17218TIP3    H173069   1.438   3.651   3.555 -1.2362 -0.4581 -2.0097
17218TIP3    H273070   1.526   3.570   3.463  1.3072 -0.9052  0.6670
17219TIP3   OH273071   1.919   5.494  16.563  0.0689  0.3903  0.0205
17219TIP3    H173072   1.893   5.556  16.631  0.2631  0.4620  0.0296
17219TIP3    H273073   2.015   5.497  16.562  0.1440 -0.8428  0.8920
17220TIP3   OH273074   5.292   5.578  12.521 -0.0176  0.1490 -0.5952
17220TIP3    H173075   5.359   5.566  12.588  1.5159 -0.0197 -2.0914
17220TIP3    H273076   5.269   5.671  12.526  0.8299  0.3622 -0.5045
17221TIP3   OH273077   3.065   6.170  14.144  0.1006 -0.4806  0.7621
17221TIP3    H173078   3.146   6.123  14.166 -0.6180 -2.4686 -0.5618
17221TIP3    H273079   3.046   6.142  14.054 -0.4385  2.3482 -0.1058
17222TIP3   OH273080   6.452   4.665  15.328 -0.2350  0.2039  0.4526
17222TIP3    H173081   6.448   4.646  15.421  0.9471  0.3125  0.5439
17222TIP3    H273082   6.479   4.583  15.287  2.0396  0.8366  0.5419
17223TIP3   OH273083   2.537   2.001  14.578 -0.2156  0.6914 -0.5267
17223TIP3    H173084   2.449   1.965  14.590 -0.1090 -0.3580 -2.4892
17223TIP3    H273085   2.554   1.995  14.484  2.5819 -0.7180 -0.0620
17224TIP3   OH273086   4.747   4.711   1.487 -0.0315  0.2415  0.2352
17224TIP3    H173087   4.734   4.644   1.555 -0.1599  0.5304  0.5004
17224TIP3    H273088   4.676   4.773   1.502 -0.2572  0.1324 -0.3825
17225TIP3   OH273089   2.388   3.879   4.200 -0.0694 -0.5211  0.3205
17225TIP3    H173090   2.332   3.845   4.269  0.9543 -1.4726  0.7125
17225TIP3    H273091   2.454   3.932   4.246 -0.8757  0.9760 -0.1735
17226TIP3   OH273092   3.323   2.198   2.145  0.3000  0.1883  0.2050
17226TIP3    H173093   3.353   2.124   2.093 -1.4348 -0.5260  0.1402
17226TIP3    H273094   3.400   2.253   2.155  1.2118 -0.7378 -1.2642
17227TIP3   OH273095   3.806   1.762  11.689  0.6076  0.0798  0.0804
17227TIP3    H173096   3.795   1.795  11.778 -1.7000 -0.2480 -0.0165
17227TIP3    H273097   3.773   1.832  11.633 -0.5953 -0.7568 -0.3178
17228TIP3   OH273098   5.713   4.784  11.077 -0.1465  0.2000  0.8479
17228TIP3    H173099   5.790   4.835  11.103 -0.0349  1.5313 -1.6788
17228TIP3    H273100   5.669   4.840  11.013  0.1000 -2.9378 -2.3602
17229TIP3   OH273101   0.894   5.048   0.129  0.5800  0.5889  0.3059
17229TIP3    H173102   0.821   4.992   0.155 -0.2332  1.5366  0.1295
17229TIP3    H273103   0.929   5.008   0.049  0.6842 -0.2276  0.7443
17230TIP3   OH273104   2.614   4.817   4.441  0.0478  0.1056 -0.1411
17230TIP3    H173105   2.625   4.770   4.359  1.5776 -0.7953  0.5368
17230TIP3    H273106   2.528   4.791   4.473 -0.0715 -0.4444 -0.8889
17231TIP3   OH273107   4.883   2.120  11.069 -0.0891 -0.2871 -0.8233
17231TIP3    H173108   4.837   2.196  11.105  0.2910 -0.9456  1.1499
17231TIP3    H273109   4.973   2.150  11.057 -0.0492 -0.2884 -0.5196
17232TIP3   OH273110   2.557   2.129   1.541 -0.5743  0.0063  0.4434
17232TIP3    H173111   2.495   2.180   1.594 -0.1294  1.1469 -0.1081
17232TIP3    H273112   2.508   2.050   1.517 -1.4477  0.3857  0.9149
17233TIP3   OH273113   3.338   0.286  16.494  0.3167 -0.4499  0.5138
17233TIP3    H173114   3.421   0.240  16.485  0.5339  0.2153 -1.3631
17233TIP3    H273115   3.295   0.245  16.568  2.1764 -1.0279  1.3193
17234TIP3   OH273116   0.709   5.074  13.693  0.0909  0.1269  0.1515
17234TIP3    H173117   0.652   5.051  13.766 -0.3480  0.8412  0.0399
17234TIP3    H273118   0.687   5.011  13.624 -1.2293  0.9632 -0.2169
17235TIP3   OH273119   6.015   1.198   0.741  0.2018 -0.2521  0.6381
17235TIP3    H173120   5.980   1.280   0.707  0.3743 -0.1928  0.6020
17235TIP3    H273121   6.024   1.214   0.835  1.9682  0.4283  0.4020
17236TIP3   OH273122   3.790   3.729  11.491 -0.3485  0.1334 -0.5058
17236TIP3    H173123   3.884   3.710  11.501 -0.4007  0.2981  0.4425
17236TIP3    H273124   3.785   3.824  11.490 -0.5141  0.1251 -0.4415
17237TIP3   OH273125   5.250   4.316   1.773  0.0395 -0.5437  0.1882
17237TIP3    H173126   5.245   4.299   1.867  3.1087 -0.0105  0.5472
17237TIP3    H273127   5.258   4.229   1.734  1.3708 -0.6719  0.6984
17238TIP3   OH273128   0.940   1.350  15.661  0.2644  0.2162  0.1500
17238TIP3    H173129   0.948   1.286  15.731  0.5089  0.3101  0.2091
17238TIP3    H273130   0.991   1.314  15.588  1.7486  1.0729  0.7118
17239TIP3   OH273131   5.378   5.480   5.549 -0.0788  0.1099 -0.1726
17239TIP3    H173132   5.440   5.482   5.621 -1.6173 -2.2726  1.3407
17239TIP3    H273133   5.428   5.511   5.473  2.8552 -1.3634  1.0184
17240TIP3   OH273134   4.928   4.016   4.378  0.0984  0.1829 -0.2247
17240TIP3    H173135   4.984   3.946   4.412 -1.6375 -1.2090 -0.0612
17240TIP3    H273136   4.950   4.022   4.285  2.1932  1.3861  0.2836
17241TIP3   OH273137   3.638   5.526   1.114  0.3073  0.1717  0.0586
17241TIP3    H173138   3.647   5.432   1.102 -2.0634 -0.0520 -0.5553
17241TIP3    H273139   3.623   5.538   1.208  0.8426 -0.0432  0.1688
17242TIP3   OH273140   6.403   1.106   5.081 -0.2784 -0.1468 -0.2090
17242TIP3    H173141   6.329   1.165   5.070 -0.3476 -0.3499 -0.8630
17242TIP3    H273142   6.444   1.102   4.995  1.1612  0.8224  0.3984
17243TIP3   OH273143   3.769   1.563   1.057  0.1070 -0.1393  0.1909
17243TIP3    H173144   3.723   1.600   0.982  1.3292  1.1093  0.0139
17243TIP3    H273145   3.836   1.507   1.019 -0.8294 -1.4675  0.4350
17244TIP3   OH273146   4.879   6.505   3.865 -0.4701  0.1267  0.1840
17244TIP3    H173147   4.883   6.584   3.919 -1.7810  0.1633  0.2739
17244TIP3    H273148   4.944   6.446   3.903 -1.8171 -0.1150  2.2836
17245TIP3   OH273149   5.632   0.124  12.019 -0.1180 -0.3689  0.6079
17245TIP3    H173150   5.567   0.077  12.071  1.5863 -0.8197  2.4470
17245TIP3    H273151   5.688   0.166  12.083  2.0582 -0.8888 -0.8390
17246TIP3   OH273152   1.851   5.473   2.218  0.6119  0.3860  0.1632
17246TIP3    H173153   1.838   5.492   2.125 -0.5229 -1.7100 -0.1545
17246TIP3    H273154   1.829   5.555   2.262  0.3107  1.1530 -1.3524
17247TIP3   OH273155   2.084   4.788  12.960 -0.2046  0.1629  0.0393
17247TIP3    H173156   2.156   4.731  12.934 -0.0571 -0.2430  1.2721
17247TIP3    H273157   2.057   4.831  12.879 -0.3298 -1.6522 -0.9390
17248TIP3   OH273158   0.221   3.616   0.221 -0.0886 -0.3353  0.6749
17248TIP3    H173159   0.209   3.677   0.295 -0.7173  0.0412  0.2638
17248TIP3    H273160   0.317   3.607   0.214  0.1130  1.9274 -0.3034
17249TIP3   OH273161   0.039   0.118   0.595  0.8172  0.4016 -0.2897
17249TIP3    H173162   0.101   0.167   0.649  1.7832 -1.0669  0.0195
17249TIP3    H273163  -0.037   0.104   0.652  1.1923  0.1971  0.1706
17250TIP3   OH273164   1.756   1.716  11.595 -0.4549 -0.0462 -0.1827
17250TIP3    H173165   1.761   1.623  11.617 -2.6081 -0.6385 -1.8279
17250TIP3    H273166   1.847   1.744  11.590  0.2413 -1.8606  1.0833
17251TIP3   OH273167   2.277   6.568   1.118 -0.1960 -0.4043 -0.4505
17251TIP3    H173168   2.310   6.655   1.139 -1.6101 -0.0684  0.5144
17251TIP3    H273169   2.228   6.541   1.196  0.5766 -2.2541 -0.5575
17252TIP3   OH273170   4.066   2.534  17.250  0.3086 -0.3417 -0.1947
17252TIP3    H173171   4.125   2.469  17.287  1.3217 -0.0838 -1.2990
17252TIP3    H273172   4.099   2.618  17.282 -0.5563 -0.3103  0.6393
17253TIP3   OH273173   2.020   6.726   3.551  0.5854  0.2748  0.1866
17253TIP3    H173174   2.104   6.730   3.505  0.7732 -0.7021  0.4050
17253TIP3    H273175   2.045   6.705   3.642  0.0555 -1.9530 -0.1156
17254TIP3   OH273176   2.052   0.647  10.647  0.3701 -0.1839  0.2427
17254TIP3    H173177   1.975   0.672  10.698  0.3344 -0.2031  0.1974
17254TIP3    H273178   2.018   0.595  10.574  0.5683 -1.6553  1.1561
17255TIP3   OH273179   5.319   1.689  12.048 -0.0576 -0.2674 -0.3446
17255TIP3    H173180   5.253   1.731  12.103 -0.5583 -0.5021 -0.7553
17255TIP3    H273181   5.315   1.596  12.072  0.8169 -0.1548  0.3261
17256TIP3   OH273182   1.161   6.547  13.142  0.4034  0.0343  0.0276
17256TIP3    H173183   1.108   6.525  13.066  1.5142 -0.9399 -0.5061
17256TIP3    H273184   1.100   6.585  13.205 -0.5322  0.8853 -1.3484
17257TIP3   OH273185   3.887   4.660   3.579 -0.4234  0.1346  0.0378
17257TIP3    H173186   3.875   4.605   3.656  0.1906  1.6034  1.2490
17257TIP3    H273187   3.977   4.644   3.551 -1.0789 -1.4634 -1.2970
17258TIP3   OH273188   4.729   4.533  12.455  0.1933  0.0711 -0.7201
17258TIP3    H173189   4.708   4.443  12.430  0.1653  0.4753 -2.2534
17258TIP3    H273190   4.761   4.574  12.374  0.7372  1.2853  0.0783
17259TIP3   OH273191   4.691   0.121   1.230  0.0296  0.3967 -0.3181
17259TIP3    H173192   4.707   0.114   1.136  0.8101 -0.2266 -0.1510
17259TIP3    H273193   4.774   0.151   1.266 -0.2724  0.6526  0.1823
17260TIP3   OH273194   5.524   4.522  14.225  0.0283 -0.5012  0.7698
17260TIP3    H173195   5.442   4.516  14.176 -0.2411  1.3472  0.9310
17260TIP3    H273196   5.559   4.433  14.223 -0.1506 -0.6393 -2.4887
17261TIP3   OH273197   4.242   3.740   0.237 -0.3770 -0.4625  0.0872
17261TIP3    H173198   4.193   3.707   0.162  0.2890  1.9671 -1.5446
17261TIP3    H273199   4.175   3.780   0.293 -0.6319 -0.1180 -0.4540
17262TIP3   OH273200   5.916   1.910  13.324 -0.0034 -0.2552 -0.1926
17262TIP3    H173201   5.939   1.951  13.407 -0.5496  1.7269 -0.9675
17262TIP3    H273202   5.862   1.835  13.348  0.1434  0.0721  1.2367
17263TIP3   OH273203   5.084   3.384   0.332  0.6914  0.5891 -0.0075
17263TIP3    H173204   4.990   3.379   0.316  0.4295  1.5896  1.0690
17263TIP3    H273205   5.107   3.475   0.316  1.1994  0.6594  1.0192
17264TIP3   OH273206   4.086   1.409  12.473  0.4993  0.1246  0.1522
17264TIP3    H173207   4.074   1.314  12.464 -0.0670  0.0227  1.7141
17264TIP3    H273208   4.119   1.421  12.562 -1.0240  1.5028  0.5855
17265TIP3   OH273209   4.491   3.767  13.718 -0.0358  0.0311 -0.0464
17265TIP3    H173210   4.485   3.814  13.635 -2.0489 -1.6550 -0.9372
17265TIP3    H273211   4.572   3.717  13.711 -0.4639 -0.5361 -1.2822
17266TIP3   OH273212   1.659   6.708  12.846  0.2074 -0.1102  0.2112
17266TIP3    H173213   1.710   6.629  12.860 -0.0506 -0.1712  0.8072
17266TIP3    H273214   1.617   6.725  12.930 -0.4514  0.1523 -0.1673
17267TIP3   OH273215   4.177   3.345   5.705 -0.2114 -0.4536  0.1149
17267TIP3    H173216   4.262   3.329   5.747  0.3964  0.4297 -0.7334
17267TIP3    H273217   4.115   3.293   5.756  0.7090 -0.4707  1.2591
17268TIP3   OH273218   1.785   2.815   1.037 -0.0149 -0.6721 -0.5123
17268TIP3    H173219   1.783   2.725   1.005 -1.4692  0.7140 -5.1680
17268TIP3    H273220   1.878   2.840   1.032  0.1432 -1.3456 -1.1957
17269TIP3   OH273221   3.666   2.301  11.017 -0.1440 -0.3092 -0.4689
17269TIP3    H173222   3.736   2.270  10.959  1.3854  1.0265  0.5564
17269TIP3    H273223   3.667   2.396  11.007 -1.0287 -0.1862  0.4259
17270TIP3   OH273224   0.567   2.076   2.655 -0.3195  0.5546  0.1083
17270TIP3    H173225   0.574   2.153   2.599  0.7568  1.2350  1.1121
17270TIP3    H273226   0.551   2.112   2.743  0.6308 -0.3176  0.6715
17271TIP3   OH273227   5.076   5.006   2.979 -0.2245  0.3921 -0.0020
17271TIP3    H173228   5.069   4.987   2.886  0.9827  1.5263 -0.3479
17271TIP3    H273229   4.995   4.971   3.017  0.1877 -1.9733 -1.1147
17272TIP3   OH273230   0.470   0.871  13.815  0.1124 -0.4134 -0.1372
17272TIP3    H173231   0.458   0.891  13.908  0.6382  0.3774 -0.2252
17272TIP3    H273232   0.544   0.926  13.789  0.1988 -0.8991 -0.9407
17273TIP3   OH273233   5.371   3.086   3.327  0.2924 -0.0908  0.3809
17273TIP3    H173234   5.410   3.139   3.397  0.7547  0.0462  0.0301
17273TIP3    H273235   5.445   3.038   3.290  0.3225  0.9566 -0.9836
17274TIP3   OH273236   0.132   6.642  11.468  0.1219  0.4730 -0.3775
17274TIP3    H173237   0.076   6.720  11.469  0.4910  0.7543  0.7626
17274TIP3    H273238   0.218   6.674  11.494 -0.0660 -0.5312  1.6978
17275TIP3   OH273239   2.314   0.660  16.470 -0.1363 -0.2888 -0.5053
17275TIP3    H173240   2.339   0.582  16.520 -0.4521  1.0219  1.8297
17275TIP3    H273241   2.357   0.649  16.385  1.8096 -1.8388  0.6006
17276TIP3   OH273242   2.083   4.778   4.020  0.0601 -0.2737  0.0065
17276TIP3    H173243   2.049   4.864   4.045 -0.3535 -0.6627  0.8285
17276TIP3    H273244   2.004   4.725   4.007  0.3252 -0.6416 -0.0981
17277TIP3   OH273245   6.533   2.589  16.287 -0.2804 -0.6215  0.1072
17277TIP3    H173246   6.492   2.517  16.336  0.3260 -1.0336  0.0169
17277TIP3    H273247   6.539   2.556  16.197  0.8906 -0.8514  0.2582
17278TIP3   OH273248   3.812   0.305  15.233  0.0732  0.1205  0.8021
17278TIP3    H173249   3.769   0.320  15.149  0.2468  0.2328  0.7323
17278TIP3    H273250   3.769   0.365  15.293 -1.8912 -1.8059  1.4180
17279TIP3   OH273251   0.279   2.116  15.447  0.1669  0.2491  0.0027
17279TIP3    H173252   0.348   2.058  15.479  0.7195  0.7614 -0.2414
17279TIP3    H273253   0.205   2.099  15.505 -0.2847 -1.9560 -1.1348
17280TIP3   OH273254   2.845   1.907   2.110  0.0721  0.3448 -0.2650
17280TIP3    H173255   2.857   1.903   2.205 -2.1441  0.9488  0.0905
17280TIP3    H273256   2.777   1.843   2.091  0.9676 -0.2631 -1.5813
17281TIP3   OH273257   1.636   2.603  14.630 -0.1333  0.4403  0.2883
17281TIP3    H173258   1.588   2.564  14.557  2.2869 -1.4118 -0.4310
17281TIP3    H273259   1.591   2.687  14.645 -1.6755  0.1998 -2.2675
17282TIP3   OH273260   3.704   2.419   0.256 -0.0576  0.2560 -0.0373
17282TIP3    H173261   3.615   2.451   0.244  0.2281  0.7985 -0.8224
17282TIP3    H273262   3.730   2.386   0.169 -0.5372 -2.6979  0.8435
17283TIP3   OH273263   0.123   0.321  14.020 -0.0214  0.1302 -0.6726
17283TIP3    H173264   0.069   0.340  13.943  0.2181  0.9476 -0.6510
17283TIP3    H273265   0.100   0.231  14.044 -2.0580  0.7662 -0.1103
17284TIP3   OH273266   3.788   1.496   3.486 -0.2584  0.3087  0.7327
17284TIP3    H173267   3.861   1.483   3.425 -1.8823  1.0659 -1.5111
17284TIP3    H273268   3.792   1.588   3.510 -0.0201  0.1630  1.2765
17285TIP3   OH273269   5.223   4.433   6.064  0.5539 -0.2786 -0.3384
17285TIP3    H173270   5.219   4.522   6.030  0.9898 -0.5972 -1.2768
17285TIP3    H273271   5.237   4.443   6.158  1.1797  0.6452 -0.5179
17286TIP3   OH273272   0.728   2.830  16.914  0.4802  0.1374 -0.0388
17286TIP3    H173273   0.633   2.835  16.900  0.2321  0.9860  1.7797
17286TIP3    H273274   0.755   2.921  16.926  1.4271 -0.1642  0.1397
17287TIP3   OH273275   2.586   0.686   3.338  0.4098  0.2914 -0.0978
17287TIP3    H173276   2.518   0.704   3.403  1.9177  0.2116  1.5616
17287TIP3    H273277   2.555   0.608   3.292 -1.3066  1.1011 -0.4152
17288TIP3   OH273278   5.330   1.929   3.762 -0.0164 -0.2864 -0.3148
17288TIP3    H173279   5.365   1.885   3.684  0.7989 -1.0828  0.4730
17288TIP3    H273280   5.341   2.022   3.744  1.7444 -0.4858 -0.4748
17289TIP3   OH273281   4.440   1.790   0.705  0.0382  0.5188  0.0432
17289TIP3    H173282   4.448   1.699   0.676 -1.4335  0.1324  0.7473
17289TIP3    H273283   4.442   1.785   0.800  0.8740  1.3394  0.0796
17290TIP3   OH273284   0.047   2.083   1.798 -0.1953  0.1171 -0.2474
17290TIP3    H173285   0.083   2.172   1.800  0.6288 -0.1873 -0.8721
17290TIP3    H273286  -0.048   2.095   1.792 -0.1065  0.9497 -0.0548
17291TIP3   OH273287   0.622   3.820   4.327  0.9252 -0.6859 -0.2241
17291TIP3    H173288   0.642   3.750   4.265  0.4200 -1.1450  0.1304
17291TIP3    H273289   0.653   3.900   4.283  0.1478 -0.9403 -1.2802
17292TIP3   OH273290   0.282   5.226   1.686 -0.4381 -0.3926 -0.2724
17292TIP3    H173291   0.240   5.288   1.745 -1.7285  2.0634 -3.4605
17292TIP3    H273292   0.215   5.160   1.668 -1.3108  0.8309 -1.6398
17293TIP3   OH273293   5.033   5.811  15.796  0.6742  0.0176  0.3044
17293TIP3    H173294   4.979   5.736  15.772 -1.5524  1.7089 -0.2739
17293TIP3    H273295   5.091   5.824  15.721  0.2119 -0.3662 -0.1278
17294TIP3   OH273296   5.159   5.369   4.500 -0.5685 -0.2872 -0.4158
17294TIP3    H173297   5.113   5.311   4.439  0.3542 -3.1002  1.3680
17294TIP3    H273298   5.238   5.321   4.524  0.1559  1.6421  1.3681
17295TIP3   OH273299   3.359   1.839  16.773  0.2270  0.1252 -0.2267
17295TIP3    H173300   3.425   1.782  16.813  1.2594  1.8734  0.6837
17295TIP3    H273301   3.283   1.832  16.830  0.4460 -0.1261  0.0373
17296TIP3   OH273302   0.208   6.615  13.059  0.2614 -0.0042  0.0512
17296TIP3    H173303   0.203   6.691  13.116  2.4138  0.5143 -0.3726
17296TIP3    H273304   0.272   6.558  13.100 -0.4595 -1.0779 -0.2591
17297TIP3   OH273305   6.557   6.317  10.769 -0.4909 -0.4518  0.2578
17297TIP3    H173306   6.497   6.392  10.768 -0.9139 -0.7855 -0.1616
17297TIP3    H273307   6.503   6.244  10.739 -0.6324 -1.3507  2.5280
17298TIP3   OH273308   4.309   4.228  11.516 -0.3640  0.6007 -0.3066
17298TIP3    H173309   4.234   4.261  11.467 -0.5653  1.2712  0.4371
17298TIP3    H273310   4.271   4.186  11.593  0.0533  1.8412  0.5986
17299TIP3   OH273311   5.242   1.271  15.294 -0.3204 -0.5200  0.2002
17299TIP3    H173312   5.180   1.283  15.366 -0.9492 -1.8786 -0.0750
17299TIP3    H273313   5.257   1.359  15.259  0.8109  0.3348  2.6209
17300TIP3   OH273314   2.498   2.033  16.082 -1.0732  0.6923 -0.1577
17300TIP3    H173315   2.547   1.953  16.065 -2.1463 -0.6609  2.4530
17300TIP3    H273316   2.553   2.082  16.143  1.0285  3.6346 -3.9795
17301TIP3   OH273317   1.181   4.909   1.019 -0.2678  0.0405  0.0562
17301TIP3    H173318   1.090   4.918   1.047 -0.1751  3.3664 -0.1981
17301TIP3    H273319   1.176   4.906   0.923 -0.1344  0.2989  0.0390
17302TIP3   OH273320   5.879   4.567  14.802 -0.4030  0.1090  0.2467
17302TIP3    H173321   5.821   4.627  14.753  0.7863  0.7732 -0.4066
17302TIP3    H273322   5.873   4.597  14.893 -2.1233 -0.7084  0.4390
17303TIP3   OH273323   6.404   0.619  13.606 -0.0075 -0.2079  1.0942
17303TIP3    H173324   6.386   0.534  13.648  0.2154  0.4202  2.5102
17303TIP3    H273325   6.499   0.627  13.605  0.0686 -0.7755 -0.7701
17304TIP3   OH273326   5.545   2.071  11.137  0.4596  0.0391 -0.0729
17304TIP3    H173327   5.499   2.034  11.062 -0.8709 -0.1568  0.7931
17304TIP3    H273328   5.587   1.996  11.179 -0.7080 -0.2429  0.6430
17305TIP3   OH273329   2.318   1.753  10.525  0.2714  0.5231 -0.0649
17305TIP3    H173330   2.338   1.670  10.483  0.4267  0.7403 -0.4235
17305TIP3    H273331   2.289   1.729  10.613 -2.0770 -0.1009 -0.9214
17306TIP3   OH273332   0.955   5.929  11.327  0.6835  0.1810 -0.2587
17306TIP3    H173333   0.962   5.850  11.382 -1.8510  0.8585  1.2330
17306TIP3    H273334   0.899   5.902  11.254  0.2629  0.4166 -0.0320
17307TIP3   OH273335   2.108   5.514   3.489  0.2683  0.4393  0.0938
17307TIP3    H173336   2.114   5.503   3.584 -0.8580  0.9129  0.2295
17307TIP3    H273337   2.199   5.507   3.459  0.5169 -0.8626  1.0632
17308TIP3   OH273338   3.461   4.958  13.730 -0.0623  0.1461 -0.3269
17308TIP3    H173339   3.468   5.032  13.669  0.6087  2.0500  1.8892
17308TIP3    H273340   3.539   4.966  13.786 -1.4628 -0.4343  1.8377
17309TIP3   OH273341   2.132   2.374   5.617  0.4502  0.1439 -0.7965
17309TIP3    H173342   2.140   2.288   5.577 -2.0961 -0.1337 -0.8481
17309TIP3    H273343   2.150   2.360   5.709 -2.6158 -1.0897 -0.2761
17310TIP3   OH273344   2.532   3.805   1.446 -0.4940 -0.3416  0.1421
17310TIP3    H173345   2.498   3.889   1.416 -3.9000 -1.5712  0.1828
17310TIP3    H273346   2.542   3.753   1.366  0.3306 -0.3663  0.2486
17311TIP3   OH273347   5.009   3.947  13.824  0.7981  0.0051 -0.6300
17311TIP3    H173348   4.932   3.962  13.769  0.5016 -1.2977 -0.6007
17311TIP3    H273349   4.972   3.919  13.908  1.3129 -0.9036 -0.7073
17312TIP3   OH273350   6.602   2.978  13.475  0.0720  0.3333  0.0395
17312TIP3    H173351   6.573   2.918  13.544  1.9280 -0.9964 -0.2567
17312TIP3    H273352   6.648   3.048  13.522  1.0858 -0.4238  0.2161
17313TIP3   OH273353   5.060   6.274   1.052 -0.4166  0.4255 -0.2391
17313TIP3    H173354   5.043   6.220   0.975 -1.9592 -0.3915  0.6021
17313TIP3    H273355   4.973   6.302   1.081  0.0680  0.2428  1.5085
17314TIP3   OH273356   5.637   4.744   1.971 -0.5335 -0.4589  0.7973
17314TIP3    H173357   5.592   4.693   1.904  1.4527 -0.6831 -0.4328
17314TIP3    H273358   5.606   4.834   1.958 -1.1598 -0.7151  0.4834
17315TIP3   OH273359   1.229   1.690   3.642 -0.2238 -0.2381 -0.5275
17315TIP3    H173360   1.240   1.745   3.564 -0.1170  0.9398  0.2877
17315TIP3    H273361   1.317   1.659   3.663  0.2970  1.9848  0.8817
17316TIP3   OH273362   1.673   3.173  16.213  0.1185 -0.0491  0.0511
17316TIP3    H173363   1.678   3.160  16.118  0.2522  0.5263 -0.0229
17316TIP3    H273364   1.746   3.232  16.233  0.1037 -0.1843  0.5167
17317TIP3   OH273365   6.342   1.249   1.605 -0.3102 -0.7057  0.3883
17317TIP3    H173366   6.419   1.235   1.660  0.2825 -1.1590 -0.5455
17317TIP3    H273367   6.354   1.336   1.567 -0.2860 -0.7535  0.2862
17318TIP3   OH273368   4.591   6.019   5.046 -0.4200 -0.1535 -0.1736
17318TIP3    H173369   4.639   6.087   5.093  0.9308 -0.8223 -0.5397
17318TIP3    H273370   4.504   6.057   5.031 -0.0560  1.0484  0.5923
17319TIP3   OH273371   6.615   3.400   5.879  0.2187 -0.1718 -0.4256
17319TIP3    H173372   6.688   3.402   5.940 -2.4637  1.0618  3.0724
17319TIP3    H273373   6.544   3.358   5.927 -1.5004 -1.2508 -3.5920
17320TIP3   OH273374   6.190   6.354  16.057  0.1726  0.6115 -0.3152
17320TIP3    H173375   6.125   6.286  16.036  0.3162  0.6178 -0.8006
17320TIP3    H273376   6.267   6.305  16.087  0.4231  0.5331 -1.0677
17321TIP3   OH273377   4.001   4.438   1.095  0.2096 -0.2035 -0.3223
17321TIP3    H173378   3.945   4.371   1.056  0.7776 -0.1230 -1.2966
17321TIP3    H273379   4.050   4.474   1.022  0.6389  0.5874  0.3427
17322TIP3   OH273380   1.702   5.085  12.386 -0.2478 -0.3229 -0.4291
17322TIP3    H173381   1.665   5.014  12.438 -0.8101 -0.1698 -0.6185
17322TIP3    H273382   1.777   5.045  12.341 -1.7946 -1.3926 -2.1911
17323TIP3   OH273383   3.247   4.773  13.833  0.4094  0.5336 -0.1450
17323TIP3    H173384   3.223   4.840  13.768  0.9749  0.8246 -0.0570
17323TIP3    H273385   3.341   4.783  13.844  0.6332 -0.7900 -0.6986
17324TIP3   OH273386   0.301   2.162   6.172 -0.3578 -0.0921 -0.0823
17324TIP3    H173387   0.247   2.107   6.229 -0.9799  0.3358 -0.2492
17324TIP3    H273388   0.354   2.214   6.231  0.8386 -1.4372  0.0815
17325TIP3   OH273389   5.511   5.235   4.057 -0.6011  0.4349  0.2870
17325TIP3    H173390   5.490   5.144   4.076  0.0801  0.5428  1.7044
17325TIP3    H273391   5.606   5.235   4.045 -0.8130  0.6679 -1.5646
17326TIP3   OH273392   4.711   2.513   5.292 -0.1147 -0.1759 -0.0722
17326TIP3    H173393   4.683   2.466   5.370 -1.0733  0.1594 -0.2020
17326TIP3    H273394   4.752   2.593   5.325 -1.3018  0.3917  0.0957
17327TIP3   OH273395   5.717   0.843   1.021 -0.6929  0.3409 -0.4214
17327TIP3    H173396   5.699   0.937   1.015 -0.0292  0.3943 -1.8522
17327TIP3    H273397   5.792   0.829   0.963  1.5141 -0.4875  2.4092
17328TIP3   OH273398   5.669   5.067   5.473  0.2055 -0.2155 -0.5088
17328TIP3    H173399   5.631   5.097   5.390  0.2986  0.5024 -0.2988
17328TIP3    H273400   5.698   5.147   5.516  1.9920 -0.7357 -0.6620
17329TIP3   OH273401   1.346   5.252   0.367 -0.3170 -0.0930  0.4726
17329TIP3    H173402   1.264   5.208   0.388 -1.6283  0.8878 -2.0892
17329TIP3    H273403   1.346   5.330   0.422 -2.7215  1.4655 -1.4967
17330TIP3   OH273404   4.928   4.620  16.125  0.0310 -0.1283  0.5675
17330TIP3    H173405   4.965   4.597  16.210 -0.9314 -0.4113  0.9269
17330TIP3    H273406   4.834   4.628  16.142 -0.4145 -1.8507 -0.8109
17331TIP3   OH273407   0.941   5.653  11.464  0.6015 -0.0832  0.2325
17331TIP3    H173408   0.886   5.613  11.397  0.0024 -0.8049  1.1247
17331TIP3    H273409   0.895   5.636  11.546  0.9302  1.4351  0.7644
17332TIP3   OH273410   0.862   2.217  12.514  0.6307  0.4948 -0.6270
17332TIP3    H173411   0.841   2.179  12.428 -0.7641  0.2000 -0.1827
17332TIP3    H273412   0.840   2.148  12.577  1.3525  0.8183 -0.0034
17333TIP3   OH273413   1.911   5.237   5.614 -0.0409  0.2912 -0.1399
17333TIP3    H173414   1.872   5.267   5.696  0.0790 -1.1872  0.4947
17333TIP3    H273415   2.004   5.258   5.623 -0.1972  1.1249 -0.3826
17334TIP3   OH273416   5.648   2.083   6.897 -0.2770 -0.1680 -0.2564
17334TIP3    H173417   5.560   2.118   6.892 -0.8840 -1.6830 -0.7800
17334TIP3    H273418   5.689   2.107   6.814  0.3359  1.7733  0.5472
17335TIP3   OH273419   6.284   5.783  16.487 -0.1532 -0.0734 -0.1047
17335TIP3    H173420   6.330   5.704  16.515 -1.1897  0.2600  2.8798
17335TIP3    H273421   6.194   5.754  16.471 -0.3216  0.3221  0.0980
17336TIP3   OH273422   3.380   1.677  14.054  0.0754 -0.4849 -0.1327
17336TIP3    H173423   3.423   1.729  14.121 -0.9856 -0.1866  0.3474
17336TIP3    H273424   3.293   1.717  14.046 -0.2689 -1.3377 -0.7433
17337TIP3   OH273425   2.301   3.578   5.696 -0.1341 -0.4254 -0.1498
17337TIP3    H173426   2.397   3.577   5.701 -0.0566  0.3869 -1.1092
17337TIP3    H273427   2.280   3.512   5.631 -0.1561  0.0389 -0.6241
17338TIP3   OH273428   3.778   5.445   5.555 -0.2292 -0.4949 -0.5396
17338TIP3    H173429   3.854   5.429   5.610 -1.7275 -0.8762  1.5319
17338TIP3    H273430   3.768   5.366   5.502 -0.8014 -1.6690  1.2445
17339TIP3   OH273431   6.629   4.453  15.066  0.0867 -0.3408 -0.3420
17339TIP3    H173432   6.561   4.443  15.001 -1.5047  0.8649  1.0416
17339TIP3    H273433   6.698   4.503  15.022 -0.5718 -0.2932 -1.3306
17340TIP3   OH273434   0.475   0.508   3.208 -0.4510 -0.2082 -0.1212
17340TIP3    H173435   0.428   0.472   3.133  0.6186 -0.6372 -0.6103
17340TIP3    H273436   0.546   0.445   3.224  1.5625  1.6982 -1.0843
17341TIP3   OH273437   4.527   5.989   1.882 -0.3382  0.0249 -0.3782
17341TIP3    H173438   4.561   6.030   1.961 -1.6026  0.0251  0.1810
17341TIP3    H273439   4.580   5.909   1.871 -0.6642 -0.3871  0.9099
17342TIP3   OH273440   4.242   3.135  16.107  0.0939 -0.8938  0.1852
17342TIP3    H173441   4.248   3.039  16.116  1.3086 -0.7590  1.0188
17342TIP3    H273442   4.323   3.168  16.146 -0.5103  0.5092  0.3129
17343TIP3   OH273443   1.242   1.951   2.846 -0.2260  0.0484 -0.1653
17343TIP3    H173444   1.155   1.922   2.873  0.0570 -0.1115  0.6196
17343TIP3    H273445   1.271   2.007   2.918  0.3227  0.0925 -0.4195
17344TIP3   OH273446   3.043   2.723   2.118 -0.2120  0.0374  0.4441
17344TIP3    H173447   3.059   2.629   2.123 -1.6219 -0.1641  1.6913
17344TIP3    H273448   3.099   2.753   2.046  1.4372 -1.4835  1.0129
17345TIP3   OH273449   4.927   6.669  12.694 -0.0318  0.8158  0.0648
17345TIP3    H173450   4.862   6.599  12.695  1.8438 -0.9922  0.5847
17345TIP3    H273451   4.949   6.679  12.601 -0.8256  1.2635 -0.0880
17346TIP3   OH273452   0.095   1.574  13.630 -0.0538  0.3226  0.3949
17346TIP3    H173453   0.051   1.498  13.593 -1.8999  1.4049  0.2781
17346TIP3    H273454   0.182   1.541  13.654 -0.6322 -1.6957 -0.0522
17347TIP3   OH273455   5.911   3.723  11.866 -0.2754 -0.5392 -0.9308
17347TIP3    H173456   5.874   3.635  11.864 -2.2450  0.2101 -0.4570
17347TIP3    H273457   5.836   3.779  11.885  1.1931  1.0808  0.4165
17348TIP3   OH273458   1.737   5.887  14.650  0.4145 -0.0276 -0.2614
17348TIP3    H173459   1.824   5.854  14.672  0.5521 -0.8399 -1.8222
17348TIP3    H273460   1.729   5.872  14.555 -1.2679  0.3873 -0.2237
17349TIP3   OH273461   1.762   5.789  14.977  0.5924 -0.0719  0.2829
17349TIP3    H173462   1.836   5.830  15.022  0.2940  0.9221 -0.0934
17349TIP3    H273463   1.803   5.732  14.912  1.0689  1.0016 -0.4015
17350TIP3   OH273464   5.216   1.303   0.015  0.4156  1.1305 -0.1926
17350TIP3    H173465   5.268   1.287  -0.063 -3.0136 -2.9477 -2.0645
17350TIP3    H273466   5.253   1.244   0.081 -0.8354 -0.8033 -1.1236
17351TIP3   OH273467   5.044   6.735   1.151  0.0775 -0.4052  0.4442
17351TIP3    H173468   4.982   6.662   1.144 -1.2744  0.7098  0.4321
17351TIP3    H273469   5.052   6.768   1.062 -0.5902  0.4770  0.7037
17352TIP3   OH273470   5.799   1.731   3.820 -0.1802 -0.1032 -0.2036
17352TIP3    H173471   5.742   1.795   3.778 -0.2206  0.7892  1.1515
17352TIP3    H273472   5.888   1.762   3.802 -0.1754  1.7120  2.2876
17353TIP3   OH273473   3.244   5.881   4.922 -0.0950  0.4091 -0.2823
17353TIP3    H173474   3.199   5.865   5.005  0.1654  1.0945 -0.0000
17353TIP3    H273475   3.226   5.973   4.902  1.1376  0.7055 -0.1661
17354TIP3   OH273476   6.439   1.686  17.004  0.3503 -0.1812 -0.5028
17354TIP3    H173477   6.526   1.725  17.006  0.6722 -0.8476  1.6155
17354TIP3    H273478   6.404   1.707  16.917  1.3018  2.9594 -0.2303
17355TIP3   OH273479   5.442   6.605  12.264  0.3978 -0.1992 -0.0060
17355TIP3    H173480   5.507   6.540  12.290  0.6988 -0.2045 -0.7598
17355TIP3    H273481   5.445   6.607  12.169  0.8746  1.3969  0.0067
17356TIP3   OH273482   5.440   4.623  12.413  0.3280  0.6201  0.6826
17356TIP3    H173483   5.402   4.705  12.382  1.2362  0.6661 -0.3899
17356TIP3    H273484   5.440   4.631  12.508  0.1783  1.7631  0.6029
17357TIP3   OH273485   2.969   2.320  12.567  1.0564 -0.0484  0.4578
17357TIP3    H173486   2.977   2.325  12.472 -0.5169  0.6655  0.3209
17357TIP3    H273487   2.974   2.227  12.587  0.5188 -0.2873 -0.4438
17358TIP3   OH273488   1.107   4.261   4.721  0.0523 -0.0992  0.4103
17358TIP3    H173489   1.138   4.208   4.647 -2.3839 -2.9796  1.2403
17358TIP3    H273490   1.175   4.249   4.788  0.1819 -1.1239  0.1182
17359TIP3   OH273491   2.414   3.259   4.781  0.1565  0.6899  0.2808
17359TIP3    H173492   2.507   3.268   4.806  0.5845  0.6389 -1.2326
17359TIP3    H273493   2.410   3.291   4.691 -1.0369 -0.6363 -0.1672
17360TIP3   OH273494   0.475   3.051   1.775 -0.3027  0.5853  0.2994
17360TIP3    H173495   0.511   2.990   1.710  0.0327 -0.0566  1.0778
17360TIP3    H273496   0.498   3.138   1.741  2.5385  0.2169  1.0251
17361TIP3   OH273497   0.121   6.305   5.298 -0.0776 -0.0406 -0.1909
17361TIP3    H173498   0.203   6.260   5.276  0.0782  0.5450 -0.8437
17361TIP3    H273499   0.106   6.283   5.389 -0.0097 -1.4218 -0.4904
17362TIP3   OH273500   6.318   1.314  12.232  0.6420 -0.1876  0.1183
17362TIP3    H173501   6.339   1.276  12.317 -1.2864 -1.3209  0.1547
17362TIP3    H273502   6.302   1.238  12.175  0.7597  0.5588 -0.9397
17363TIP3   OH273503   2.418   5.016   2.935 -0.0853  0.2121  0.1821
17363TIP3    H173504   2.464   5.008   2.852 -1.1874  0.6095 -0.4930
17363TIP3    H273505   2.362   4.939   2.939 -0.9175  0.7830 -0.0368
17364TIP3   OH273506   4.397   3.319  12.517  0.0757  0.1281 -0.3280
17364TIP3    H173507   4.434   3.386  12.574  1.3155 -1.5778  1.0055
17364TIP3    H273508   4.322   3.361  12.475 -0.6338  1.6439  2.2284
17365TIP3   OH273509   1.437   5.632   0.383  0.0286 -0.0520  0.4364
17365TIP3    H173510   1.401   5.674   0.305 -2.2649  1.8453  2.3528
17365TIP3    H273511   1.365   5.581   0.419  1.6530 -2.6807  0.2975
17366TIP3   OH273512   6.092   2.379   1.362  0.0695  0.3728  0.3411
17366TIP3    H173513   6.165   2.437   1.336  0.7363  1.1986  3.5875
17366TIP3    H273514   6.131   2.318   1.424 -2.2267  1.9966  3.6328
17367TIP3   OH273515   1.111   4.676   5.029  0.0610  0.0564 -0.4805
17367TIP3    H173516   1.185   4.685   4.969  0.3859  1.0372  0.0371
17367TIP3    H273517   1.144   4.620   5.099 -0.4043 -1.3169 -1.3149
17368TIP3   OH273518   6.246   6.091   0.933  0.2511 -0.0605  0.4821
17368TIP3    H173519   6.320   6.074   0.991 -0.1919 -0.5323  0.9306
17368TIP3    H273520   6.258   6.181   0.903 -0.6344  1.0094  3.0314
17369TIP3   OH273521   2.727   3.408  15.894 -0.1108  0.3829  0.0723
17369TIP3    H173522   2.813   3.369  15.878  0.4557  1.1327  1.1690
17369TIP3    H273523   2.740   3.463  15.971 -1.5721  0.5421  0.2222
17370TIP3   OH273524   6.145   4.827   5.926  0.1399  0.3386 -0.4562
17370TIP3    H173525   6.204   4.783   5.865  0.1214 -1.5482  0.8148
17370TIP3    H273526   6.200   4.889   5.973  1.3307 -1.8168  1.1382
17371TIP3   OH273527   3.913   3.651   0.659 -0.1644  0.5801 -0.4199
17371TIP3    H173528   3.847   3.606   0.713  0.3345 -0.4455 -0.6398
17371TIP3    H273529   3.990   3.655   0.715 -0.2397  1.2921 -0.3607
17372TIP3   OH273530   5.899   5.258  11.000  0.8734 -0.3248  0.0549
17372TIP3    H173531   5.853   5.339  10.980  2.6581  0.9379  0.8269
17372TIP3    H273532   5.951   5.277  11.078 -0.8341 -3.1106  2.0736
17373TIP3   OH273533   6.352   5.752   1.021  0.2262 -0.2242 -0.0324
17373TIP3    H173534   6.411   5.764   0.946 -1.2224  0.5688 -1.0934
17373TIP3    H273535   6.362   5.660   1.044  1.2170 -0.3150 -0.7475
17374TIP3   OH273536   6.280   3.704   2.286  0.2092 -0.2787  0.4255
17374TIP3    H173537   6.318   3.749   2.361  0.8834 -2.2946  1.3935
17374TIP3    H273538   6.246   3.773   2.230  1.9371  1.4324  1.3770
17375TIP3   OH273539   3.423   0.431  16.755 -0.0116  0.1151  0.0301
17375TIP3    H173540   3.459   0.485  16.825 -0.7306 -1.3741  1.6418
17375TIP3    H273541   3.443   0.478  16.675  0.6126  2.0300  1.2520
17376TIP3   OH273542   6.367   2.820  13.363 -0.1396  0.3092  0.2279
17376TIP3    H173543   6.435   2.881  13.393  0.6046 -0.1497 -0.5128
17376TIP3    H273544   6.374   2.822  13.268 -0.2042 -0.8342  0.1949
17377TIP3   OH273545   1.299   5.742  10.833 -1.1005 -0.1175  0.4436
17377TIP3    H173546   1.238   5.752  10.760 -0.8148 -1.4455  0.0000
17377TIP3    H273547   1.351   5.665  10.811  0.4946  0.7488  0.9903
17378TIP3   OH273548   2.562   5.369  12.138 -0.1877 -0.1697 -1.0598
17378TIP3    H173549   2.502   5.372  12.064 -1.0296  1.6501 -0.3838
17378TIP3    H273550   2.524   5.303  12.196 -1.8319  1.1956 -0.4811
17379TIP3   OH273551   5.200   6.701   4.077 -0.2333 -0.1070 -0.0502
17379TIP3    H173552   5.247   6.737   4.001 -0.2001 -1.2295 -0.5981
17379TIP3    H273553   5.114   6.742   4.075  0.5501  1.6710  0.7204
17380TIP3   OH273554   3.193   0.790   2.712 -0.3808  0.0171 -0.1335
17380TIP3    H173555   3.156   0.878   2.718 -1.0497 -0.1726 -1.1490
17380TIP3    H273556   3.212   0.765   2.802  2.2147  2.1685  0.0530
17381TIP3   OH273557   1.134   5.098  12.380 -0.4971  0.1102  0.3177
17381TIP3    H173558   1.140   5.014  12.333  2.5729  0.2293  0.2970
17381TIP3    H273559   1.044   5.127  12.365 -0.5251 -1.2149 -3.1548
17382TIP3   OH273560   6.743   3.231   2.822 -0.3295 -0.1130  0.4097
17382TIP3    H173561   6.747   3.287   2.899  2.0145  0.0611  0.2225
17382TIP3    H273562   6.730   3.143   2.857  0.7703 -0.0411  1.0275
17383TIP3   OH273563   0.780   5.964  14.463  0.1082 -0.0857  0.2795
17383TIP3    H173564   0.842   5.904  14.503  1.1468  0.1278 -0.9552
17383TIP3    H273565   0.751   5.920  14.383  0.2369  0.6789 -0.2046
17384TIP3   OH273566   1.965   4.957   6.364  0.8498  0.3190  0.3359
17384TIP3    H173567   1.948   4.973   6.456  0.0931  1.6451 -0.0127
17384TIP3    H273568   1.892   4.901   6.335  1.6132 -0.9408  0.7338
17385TIP3   OH273569   5.872   5.293   2.661 -0.0787 -0.1338  0.3159
17385TIP3    H173570   5.824   5.318   2.582 -1.0565 -0.9218  0.6425
17385TIP3    H273571   5.840   5.353   2.729  1.5327  1.2507 -0.0870
17386TIP3   OH273572   0.990   0.950  13.258 -0.7468 -0.0517 -0.2975
17386TIP3    H173573   0.984   1.043  13.281 -0.3320 -0.2804  0.8357
17386TIP3    H273574   0.969   0.947  13.165  0.7661  1.3777 -0.7546
17387TIP3   OH273575   4.155   6.110  13.730 -0.4854  0.4783  0.0788
17387TIP3    H173576   4.064   6.085  13.716 -0.6101  1.5237 -1.2496
17387TIP3    H273577   4.150   6.195  13.774 -0.1723  0.7888 -0.4731
17388TIP3   OH273578   4.603   5.382  15.085 -0.0679  0.0439  0.2195
17388TIP3    H173579   4.576   5.295  15.055  1.1257  0.0325 -0.9545
17388TIP3    H273580   4.535   5.441  15.051 -0.1409 -0.2840 -0.2154
17389TIP3   OH273581   1.286   5.010  11.140  0.1360  0.5238 -0.2829
17389TIP3    H173582   1.292   5.097  11.102 -0.0285  1.3830  1.5456
17389TIP3    H273583   1.220   4.965  11.087  1.2693  0.9758 -2.1493
17390TIP3   OH273584   2.103   5.997   0.899  0.2169 -0.2354  0.4732
17390TIP3    H173585   2.156   5.930   0.856 -0.0513  0.5975 -1.2587
17390TIP3    H273586   2.167   6.063   0.928  0.3213 -0.2782  0.3457
17391TIP3   OH273587   4.406   5.347   4.102 -0.2054  0.0229  0.4329
17391TIP3    H173588   4.373   5.287   4.035  0.8328 -0.6121  0.4696
17391TIP3    H273589   4.335   5.410   4.115 -1.1970 -0.9916  0.1391
17392TIP3   OH273590   3.220   3.539   5.128 -0.1738  0.1620 -0.5248
17392TIP3    H173591   3.282   3.524   5.057 -0.5691  1.7594 -1.2552
17392TIP3    H273592   3.171   3.457   5.136  2.1798 -1.2426  0.2671
17393TIP3   OH273593   1.894   1.526   4.288 -0.6572 -0.9212  0.3045
17393TIP3    H173594   1.843   1.584   4.231  3.2898  1.5521 -1.0685
17393TIP3    H273595   1.894   1.571   4.373  1.5976  0.7854 -0.5098
17394TIP3   OH273596   4.794   6.486  14.458  0.3486  0.3748  0.1618
17394TIP3    H173597   4.735   6.473  14.533  1.0499  0.1035  0.6737
17394TIP3    H273598   4.735   6.501  14.384 -0.3871 -0.5587  0.5359
17395TIP3   OH273599   2.077   4.197   6.025  0.1461  0.3193 -0.4114
17395TIP3    H173600   2.126   4.277   6.044  0.6040  0.5806 -2.4553
17395TIP3    H273601   1.987   4.217   6.052  0.8741  0.2262  2.3580
17396TIP3   OH273602   1.713   3.315   5.626 -0.0007  0.4358  0.0485
17396TIP3    H173603   1.808   3.326   5.614  0.7898 -4.0253  0.2968
17396TIP3    H273604   1.695   3.355   5.711  2.4358 -1.3126  1.5318
17397TIP3   OH273605   0.274   6.622   4.849 -0.1867 -0.6005  0.0154
17397TIP3    H173606   0.236   6.619   4.761  0.6305  1.2192 -0.4564
17397TIP3    H273607   0.360   6.662   4.837  0.7843 -2.1322  1.4098
17398TIP3   OH273608   5.204   2.825   5.205 -0.2218 -0.2004  0.5895
17398TIP3    H173609   5.290   2.862   5.225 -0.1695 -0.1907  0.3488
17398TIP3    H273610   5.143   2.897   5.220 -0.0000  0.4137 -1.1535
17399TIP3   OH273611   3.676   2.606  10.908  0.5126  0.5931 -0.7058
17399TIP3    H173612   3.761   2.565  10.893  1.0185  0.8690  1.1543
17399TIP3    H273613   3.669   2.673  10.840  1.0188 -0.5283 -1.9028
17400TIP3   OH273614   4.108   6.586   4.569 -0.4047 -0.4595 -0.0572
17400TIP3    H173615   4.104   6.653   4.637  1.9709 -0.0186 -0.2608
17400TIP3    H273616   4.167   6.520   4.605  0.3441 -0.5496 -1.4107
17401TIP3   OH273617   4.415   3.139  11.723 -0.5606  0.0760 -0.4747
17401TIP3    H173618   4.417   3.101  11.635  1.5245 -0.0067 -0.4248
17401TIP3    H273619   4.406   3.064  11.781 -2.9827  0.1931 -0.5905
17402TIP3   OH273620   6.022   3.238   1.844  0.0490 -0.3235 -0.1688
17402TIP3    H173621   6.067   3.156   1.823 -1.3992 -1.6044  1.4262
17402TIP3    H273622   5.946   3.239   1.785 -1.4411 -1.5867  1.5967
17403TIP3   OH273623   0.948   5.091   4.371 -0.2803  0.0208 -0.6514
17403TIP3    H173624   1.016   5.157   4.387 -1.4582  1.2535 -0.5015
17403TIP3    H273625   0.995   5.016   4.335  1.1860  0.7333 -0.3079
17404TIP3   OH273626   0.054   5.610   5.347 -0.0688 -0.7176 -0.4438
17404TIP3    H173627   0.148   5.625   5.345 -0.1762 -0.0808 -1.9496
17404TIP3    H273628   0.016   5.693   5.319 -1.0779 -1.0418 -0.0839
17405TIP3   OH273629   5.681   1.692   5.233 -0.2689 -0.3857 -0.0542
17405TIP3    H173630   5.604   1.691   5.289 -0.5303  0.4941 -0.3847
17405TIP3    H273631   5.755   1.689   5.293 -0.5569 -0.6325  0.2887
17406TIP3   OH273632   2.046   0.339   3.110  0.2431 -0.4699 -0.1541
17406TIP3    H173633   2.108   0.297   3.170 -0.4501  0.0753  0.9617
17406TIP3    H273634   1.963   0.295   3.128 -0.4372  1.1596  0.8350
17407TIP3   OH273635   3.622   0.791   1.735 -0.0978  0.4210  0.0637
17407TIP3    H173636   3.658   0.831   1.656  2.2210  1.5272  1.5600
17407TIP3    H273637   3.664   0.704   1.739 -1.0946 -0.0987 -0.4791
17408TIP3   OH273638   4.340   5.678  12.875 -0.9392 -0.0595 -0.2342
17408TIP3    H173639   4.400   5.671  12.800 -1.1740 -3.6289 -0.2669
17408TIP3    H273640   4.388   5.637  12.947 -0.9183  2.8722  1.5443
17409TIP3   OH273641   6.217   1.474  15.116 -0.6235  0.0728 -0.2161
17409TIP3    H173642   6.216   1.388  15.074 -0.1472  0.0700 -0.2202
17409TIP3    H273643   6.189   1.534  15.047  1.7152  0.2922 -1.0406
17410TIP3   OH273644   4.003   4.184  12.324  0.0234 -0.2739 -0.1276
17410TIP3    H173645   4.041   4.242  12.259 -1.2847  1.9342  0.9657
17410TIP3    H273646   4.066   4.185  12.397  0.4983 -1.1124 -0.5074
17411TIP3   OH273647   3.536   2.094   1.007  0.1897  0.5510  0.3759
17411TIP3    H173648   3.456   2.128   1.048  0.5848 -0.5006  2.1147
17411TIP3    H273649   3.594   2.076   1.080  0.5022 -2.5481 -0.5035
17412TIP3   OH273650   0.115   4.209   5.163 -0.2439  0.5101  0.0724
17412TIP3    H173651   0.109   4.114   5.160  0.5083  0.4405  0.4791
17412TIP3    H273652   0.126   4.231   5.255 -0.8545  1.0237  0.0288
17413TIP3   OH273653   3.961   2.447  13.482 -0.3073 -0.3889 -0.4190
17413TIP3    H173654   3.936   2.442  13.574  0.7175 -0.4286 -0.1293
17413TIP3    H273655   3.987   2.358  13.458 -0.2182 -0.3056 -0.6440
17414TIP3   OH273656   2.766   1.919   0.250  0.2062 -0.1372  0.8541
17414TIP3    H173657   2.702   1.933   0.320 -1.9481  0.0491 -1.0343
17414TIP3    H273658   2.756   1.827   0.226 -0.8273  0.3425 -0.7307
17415TIP3   OH273659   5.676   0.352  13.370 -0.2837 -0.3101 -0.4986
17415TIP3    H173660   5.680   0.281  13.434  1.4493  0.2670  0.0874
17415TIP3    H273661   5.617   0.416  13.409 -0.9426 -0.9011 -0.4971
17416TIP3   OH273662   4.600   0.984  14.603 -0.4027  0.3671 -0.0033
17416TIP3    H173663   4.660   0.910  14.601  1.5891  1.8758 -2.4517
17416TIP3    H273664   4.564   0.983  14.692  1.8249 -1.7385  0.9945
17417TIP3   OH273665   3.886   4.351  17.111  0.4268  0.5993 -0.3733
17417TIP3    H173666   3.910   4.264  17.143  1.6156  0.8804 -0.4433
17417TIP3    H273667   3.968   4.387  17.077 -0.0419  1.7670 -0.3008
17418TIP3   OH273668   4.646   6.325  14.083 -0.0864  0.0354 -0.0242
17418TIP3    H173669   4.681   6.360  14.002 -1.2668 -0.8141 -0.9366
17418TIP3    H273670   4.621   6.403  14.134  0.0583  0.5656 -0.7468
17419TIP3   OH273671   5.757   0.589   3.558  0.5731 -0.5035  0.2461
17419TIP3    H173672   5.716   0.598   3.472  2.6712  0.5091 -0.7055
17419TIP3    H273673   5.726   0.665   3.608  1.9885  0.8073 -0.7947
17420TIP3   OH273674   5.797   3.957   3.928 -0.5597 -0.0014  0.2202
17420TIP3    H173675   5.735   3.995   3.991  1.9843  1.1888  2.2208
17420TIP3    H273676   5.793   3.863   3.943 -1.7750  0.0691  0.3965
17421TIP3   OH273677   2.006   1.816  11.580  0.9422 -0.4865 -0.4908
17421TIP3    H173678   2.022   1.755  11.507 -4.2867 -0.1420 -2.3716
17421TIP3    H273679   2.016   1.903  11.542 -3.6661 -0.2508 -1.7698
17422TIP3   OH273680   2.789   2.936  11.728 -0.0343  0.8032 -0.7428
17422TIP3    H173681   2.790   2.841  11.730 -0.4507  0.8015  0.7967
17422TIP3    H273682   2.818   2.959  11.639  2.5149 -0.6967 -0.4012
17423TIP3   OH273683   6.431   1.073   5.387 -0.1498  0.0844 -0.6794
17423TIP3    H173684   6.521   1.063   5.419 -0.6796 -0.2956  0.8060
17423TIP3    H273685   6.411   0.989   5.345 -0.1585 -0.2478 -0.0294
17424TIP3   OH273686   5.717   4.393  11.245  0.3038 -0.3210 -0.2283
17424TIP3    H173687   5.802   4.417  11.209  1.0097 -1.8004  0.3826
17424TIP3    H273688   5.716   4.298  11.243 -1.7944 -0.3336 -1.2236
17425TIP3   OH273689   3.308   4.421  11.038  0.2942  0.4288  0.0450
17425TIP3    H173690   3.311   4.345  11.098  1.2281 -0.8259 -1.5131
17425TIP3    H273691   3.397   4.428  11.005  0.4125  2.7361  0.7044
17426TIP3   OH273692   1.664   1.472   4.936 -0.1344  0.1277  0.1854
17426TIP3    H173693   1.656   1.399   4.997 -3.2957  2.2091  2.5895
17426TIP3    H273694   1.612   1.447   4.861 -3.7705  0.8268  2.2451
17427TIP3   OH273695   3.816   6.117  12.000 -0.0441 -0.2495 -0.2269
17427TIP3    H173696   3.809   6.109  11.905  4.2173  0.1674 -0.7707
17427TIP3    H273697   3.894   6.067  12.024 -0.7513 -0.0624  3.0508
17428TIP3   OH273698   5.047   6.518  14.379 -0.1116 -0.2064  0.1079
17428TIP3    H173699   5.050   6.485  14.289  0.4724  0.0712  0.0223
17428TIP3    H273700   4.956   6.508  14.405 -0.0782 -1.2735 -0.1465
17429TIP3   OH273701   2.178   6.630   5.111  0.3255 -0.1181 -0.3133
17429TIP3    H173702   2.176   6.610   5.017  2.8901  0.9127 -0.6548
17429TIP3    H273703   2.229   6.560   5.150 -0.7561 -0.5568  0.3716
17430TIP3   OH273704   0.215   5.025  12.357  0.7187  0.0739 -0.7424
17430TIP3    H173705   0.309   5.040  12.364  0.5905  1.2510 -1.3820
17430TIP3    H273706   0.175   5.103  12.395 -0.0251 -0.6919  0.1292
17431TIP3   OH273707   1.714   2.714   2.531 -0.2868  0.3299 -0.6344
17431TIP3    H173708   1.722   2.801   2.569 -1.0235  0.0858  0.1020
17431TIP3    H273709   1.768   2.717   2.452  1.2367  0.8671  0.3939
17432TIP3   OH273710   2.984   1.491  15.462 -0.1714  0.5723  0.5583
17432TIP3    H173711   2.973   1.582  15.492 -1.5419  0.0606  1.6850
17432TIP3    H273712   3.071   1.466  15.494 -0.5697  0.8798  1.9429
17433TIP3   OH273713   1.086   1.313   5.820  0.7183  0.2044  0.0541
17433TIP3    H173714   1.177   1.293   5.799  0.4308 -2.3130  0.7849
17433TIP3    H273715   1.055   1.235   5.866 -1.7181  1.1355  0.1434
17434TIP3   OH273716   0.307   0.690   3.711  0.0048 -0.3764 -0.0318
17434TIP3    H173717   0.334   0.668   3.621  0.9830 -2.4223  0.7009
17434TIP3    H273718   0.388   0.718   3.753 -0.7153  2.0989 -0.1305
17435TIP3   OH273719   3.533   0.200  15.155 -0.3348  0.1393  0.3806
17435TIP3    H173720   3.507   0.193  15.064  3.8625  0.1700 -1.0172
17435TIP3    H273721   3.494   0.124  15.197 -2.1923  0.0149 -1.4152
17436TIP3   OH273722   1.042   1.600   1.618 -0.0008 -0.2901 -0.3951
17436TIP3    H173723   1.056   1.678   1.673  1.6770 -1.1746  0.5161
17436TIP3    H273724   1.000   1.537   1.676  0.5316 -0.7561 -0.5049
17437TIP3   OH273725   2.004   0.930   3.098 -0.0061  0.6200 -0.3951
17437TIP3    H173726   1.972   0.910   3.010  0.8382 -0.1502 -0.5458
17437TIP3    H273727   1.929   0.969   3.142 -0.6835  0.2756 -1.2032
17438TIP3   OH273728   1.503   3.477  14.618 -0.1751 -0.2065  0.4279
17438TIP3    H173729   1.528   3.536  14.548 -0.1274 -0.4151  0.2664
17438TIP3    H273730   1.560   3.500  14.691 -1.6747  1.4812  1.1416
17439TIP3   OH273731   0.605   1.318   4.204  0.5957 -0.3615 -0.1908
17439TIP3    H173732   0.615   1.389   4.268  0.4777 -0.3452 -0.1900
17439TIP3    H273733   0.566   1.246   4.254 -1.7350  0.4205 -0.7346
17440TIP3   OH273734   4.779   0.511  17.105 -0.0029  0.1287 -0.0816
17440TIP3    H173735   4.749   0.461  17.030 -0.1189  0.0188  0.0378
17440TIP3    H273736   4.857   0.464  17.136 -0.1720 -0.0368  0.0946
17441TIP3   OH273737   4.323   0.334   1.938  0.2421  0.0647 -0.2774
17441TIP3    H173738   4.274   0.378   1.869  0.2817 -2.7621 -2.2829
17441TIP3    H273739   4.409   0.317   1.899  1.8117  2.0913  2.0385
17442TIP3   OH273740   3.680   4.893   1.217  0.1887 -0.1005  0.5563
17442TIP3    H173741   3.764   4.886   1.171  0.3848  0.6563  0.7710
17442TIP3    H273742   3.703   4.936   1.300 -0.2149 -1.0892  1.1958
17443TIP3   OH273743   0.346   5.782  16.051 -0.3234 -0.0484 -0.3661
17443TIP3    H173744   0.329   5.747  15.964  2.1849  0.9606 -1.3474
17443TIP3    H273745   0.283   5.853  16.062 -2.3791 -1.7939 -0.2250
17444TIP3   OH273746   4.085   3.123   1.976  0.3752  1.0160  0.5148
17444TIP3    H173747   4.131   3.075   2.046  2.7820  1.9873 -0.3037
17444TIP3    H273748   3.992   3.112   1.998  0.9227 -1.0917  2.2587
17445TIP3   OH273749   0.005   6.471  13.956  0.1813  0.0362  0.1246
17445TIP3    H173750  -0.009   6.441  14.046 -2.0362  2.5883  0.7690
17445TIP3    H273751   0.083   6.527  13.962  0.7129 -0.6969  0.1845
17446TIP3   OH273752   0.603   1.065  15.674 -0.9148 -0.3471 -0.2855
17446TIP3    H173753   0.603   1.159  15.692  1.2471  0.1597 -2.3072
17446TIP3    H273754   0.684   1.051  15.624 -0.3705 -3.5662  1.2399
17447TIP3   OH273755   2.986   3.733   2.622  0.2079 -0.0632 -0.1549
17447TIP3    H173756   3.079   3.737   2.646  0.2521 -1.3395 -0.0415
17447TIP3    H273757   2.971   3.814   2.573  1.7673 -0.5312 -1.5351
17448TIP3   OH273758   4.249   4.469   4.764  0.4726  0.2441  0.7199
17448TIP3    H173759   4.265   4.560   4.736  0.2971 -0.5227 -2.2253
17448TIP3    H273760   4.333   4.439   4.797  1.6794  0.4016 -1.8876
17449TIP3   OH273761   3.148   3.398   3.497  0.0374  0.5790  0.0484
17449TIP3    H173762   3.230   3.442   3.521  0.1462 -0.2777  1.3278
17449TIP3    H273763   3.080   3.460   3.524  0.2179  0.4665  0.7799
17450TIP3   OH273764   1.517   4.963  14.047  0.1736 -0.2928 -0.0418
17450TIP3    H173765   1.593   5.016  14.023 -0.5224  1.0036  0.5425
17450TIP3    H273766   1.552   4.897  14.106  0.8397  0.3463  0.2962
17451TIP3   OH273767   0.389   2.000  14.371  0.2561 -0.1595 -0.2804
17451TIP3    H173768   0.432   2.018  14.288  1.0824 -1.7177 -0.2141
17451TIP3    H273769   0.453   1.950  14.421 -0.3801  0.4042  1.1497
17452TIP3   OH273770   6.762   0.994   2.879  0.2882 -0.0511 -0.5257
17452TIP3    H173771   6.788   1.077   2.918  1.8923 -1.5910  1.9875
17452TIP3    H273772   6.817   0.986   2.800  0.2214  1.1614 -0.7117
17453TIP3   OH273773   4.833   4.856  14.048  0.3235  0.2839  0.2338
17453TIP3    H173774   4.792   4.919  14.108  0.8962 -0.3535  1.3365
17453TIP3    H273775   4.902   4.906  14.004  0.8217  0.4359  1.1516
17454TIP3   OH273776   3.951   5.062   1.073 -0.1125 -0.3385  0.4167
17454TIP3    H173777   4.008   5.135   1.095  0.2608 -0.7044  0.6660
17454TIP3    H273778   4.008   4.985   1.071 -0.3809 -0.5305 -0.4877
17455TIP3   OH273779   6.457   4.582   1.200 -0.1663  0.0256  0.6081
17455TIP3    H173780   6.533   4.613   1.150 -1.1153  2.3398  0.4490
17455TIP3    H273781   6.387   4.576   1.135 -0.6898  0.1880  1.1550
17456TIP3   OH273782   4.045   0.641  17.039 -0.4232  0.1446 -0.0005
17456TIP3    H173783   4.082   0.723  17.007  1.1518 -0.3371  0.5087
17456TIP3    H273784   3.986   0.668  17.110  0.1573  0.8328  0.2342
17457TIP3   OH273785   4.467   6.760  12.993  0.2066  0.1334  0.4858
17457TIP3    H173786   4.383   6.722  13.018  0.9017 -0.0931  2.6725
17457TIP3    H273787   4.486   6.824  13.061  1.9490 -0.0555  0.2332
17458TIP3   OH273788   2.974   1.961   5.852  0.0456 -0.0957 -0.0475
17458TIP3    H173789   3.047   1.959   5.913 -0.6257 -1.2737  0.7811
17458TIP3    H273790   2.942   1.870   5.851 -1.3883  0.3831 -0.3700
17459TIP3   OH273791   1.285   3.511   0.080 -0.0502  0.3316 -0.1288
17459TIP3    H173792   1.286   3.438   0.017 -0.7060 -0.1841  0.4463
17459TIP3    H273793   1.378   3.527   0.100  0.1268  0.0376 -0.6892
17460TIP3   OH273794   5.084   4.781  15.388 -0.0419 -0.3741 -0.5512
17460TIP3    H173795   5.093   4.772  15.293 -0.3227  0.9349 -0.7308
17460TIP3    H273796   5.166   4.823  15.415  0.1801 -1.0479 -0.1529
17461TIP3   OH273797   1.360   2.450   1.108  0.0658  0.0197 -0.3238
17461TIP3    H173798   1.388   2.463   1.018  0.5141 -0.2705 -0.2290
17461TIP3    H273799   1.278   2.499   1.115  0.1323  0.2077 -0.8300
17462TIP3   OH273800   3.033   1.915   3.410  0.3615 -0.2949 -0.1116
17462TIP3    H173801   3.047   1.844   3.474  1.7621 -0.8554 -0.9965
17462TIP3    H273802   3.097   1.981   3.434  0.8273 -0.4668 -0.8610
17463TIP3   OH273803   0.089   2.466  15.866 -0.6035  0.2420 -0.2081
17463TIP3    H173804   0.100   2.426  15.953  0.3870  2.1434  0.6040
17463TIP3    H273805   0.085   2.392  15.806  1.6264 -1.1195  1.1658
17464TIP3   OH273806   5.741   6.393  16.704  0.5686  0.3893  0.4141
17464TIP3    H173807   5.689   6.467  16.671 -0.6023  0.8078  2.9393
17464TIP3    H273808   5.832   6.423  16.700  0.2457  1.3212 -0.1166
17465TIP3   OH273809   6.421   0.896   0.969 -0.2316  0.6350 -0.4244
17465TIP3    H173810   6.465   0.910   0.885  0.4963  0.3428 -0.1003
17465TIP3    H273811   6.449   0.809   0.996 -0.4867  0.7172  0.1099
17466TIP3   OH273812   2.802   3.939  13.993 -0.0621  0.0499  0.0991
17466TIP3    H173813   2.808   3.929  14.088 -3.3523  0.6025  0.5073
17466TIP3    H273814   2.859   4.013  13.972  0.5573  0.0425  1.6690
17467TIP3   OH273815   2.265   0.825   3.077 -0.0377  0.0044 -0.4877
17467TIP3    H173816   2.175   0.855   3.084 -0.0874 -0.1943 -0.2369
17467TIP3    H273817   2.258   0.735   3.044  0.0367 -0.2005  0.0399
17468TIP3   OH273818   6.261   2.425  15.977  0.3585 -0.1877 -0.6075
17468TIP3    H173819   6.324   2.370  15.930 -0.1385  0.4650 -2.1128
17468TIP3    H273820   6.176   2.399  15.940  0.0850  1.3465 -1.1118
17469TIP3   OH273821   0.146   3.018   1.010 -0.3408 -0.7667  0.5772
17469TIP3    H173822   0.192   3.088   1.057 -0.9041 -1.1877  1.8179
17469TIP3    H273823   0.202   2.997   0.936  0.4902  0.0768  0.9547
17470TIP3   OH273824   0.748   2.892  15.939  0.0919 -0.1674  0.0260
17470TIP3    H173825   0.746   2.987  15.925 -1.7558 -0.0765  0.7069
17470TIP3    H273826   0.660   2.862  15.917  0.7979 -1.8237 -0.6886
17471TIP3   OH273827   1.718   2.588  13.954  0.2704 -0.2198 -0.1242
17471TIP3    H173828   1.748   2.617  13.868  1.1191 -0.5765  0.0465
17471TIP3    H273829   1.712   2.669  14.006  0.5101 -0.0928 -0.2930
17472TIP3   OH273830   5.338   1.356   2.191 -0.5088 -0.1690 -0.1017
17472TIP3    H173831   5.290   1.323   2.267 -0.0452 -0.0763  0.2339
17472TIP3    H273832   5.270   1.384   2.130 -0.8828 -0.0667  0.3582
17473TIP3   OH273833   5.904   5.595  12.745 -0.1113 -0.6786  0.1477
17473TIP3    H173834   5.994   5.626  12.758  0.3631 -1.4461 -1.1329
17473TIP3    H273835   5.877   5.635  12.663 -0.5088 -1.3896 -0.0753
17474TIP3   OH273836   5.606   3.263   5.953 -0.2221  0.3345 -0.9845
17474TIP3    H173837   5.585   3.248   6.045  2.2782  0.5176 -0.3091
17474TIP3    H273838   5.588   3.356   5.940  0.4618  0.5809 -0.3143
17475TIP3   OH273839   2.312   0.151  16.866 -0.1429  0.0059 -0.0031
17475TIP3    H173840   2.338   0.133  16.956 -1.4397  1.0450  0.6254
17475TIP3    H273841   2.217   0.139  16.866 -0.2284  0.5325 -1.0950
17476TIP3   OH273842   4.562   1.697   2.982 -0.7829 -0.0795 -0.5003
17476TIP3    H173843   4.513   1.717   3.062  2.6109  1.6747  1.3867
17476TIP3    H273844   4.514   1.742   2.912 -1.5080  2.2145  1.3284
17477TIP3   OH273845   3.430   4.102  14.434  0.2121 -0.4737  0.1952
17477TIP3    H173846   3.395   4.019  14.401 -0.2793  0.0697 -0.6802
17477TIP3    H273847   3.372   4.168  14.398  0.7624  0.2775  0.6703
17478TIP3   OH273848   0.100   3.065   5.215  0.2466 -0.2569  0.7070
17478TIP3    H173849   0.175   3.011   5.189 -0.3711  0.0581 -1.9201
17478TIP3    H273850   0.027   3.002   5.222  0.5117 -0.4290  2.4194
17479TIP3   OH273851   4.644   3.438   0.756  0.1277 -0.5903  0.4211
17479TIP3    H173852   4.637   3.533   0.743 -0.6254 -0.7437 -0.3400
17479TIP3    H273853   4.737   3.424   0.776  0.0668  0.4161  1.5671
17480TIP3   OH273854   3.808   1.782  13.147 -0.2066  0.3944  0.5599
17480TIP3    H173855   3.808   1.705  13.203  0.9215 -0.7878 -1.0114
17480TIP3    H273856   3.750   1.759  13.075  0.7448  0.7053 -0.3151
17481TIP3   OH273857   1.290   1.334  12.164  0.0044 -0.5034  1.1988
17481TIP3    H173858   1.340   1.254  12.151  0.9036  0.5286 -2.8945
17481TIP3    H273859   1.348   1.391  12.214  1.3025 -0.7896  0.0571
17482TIP3   OH273860   1.994   5.537   5.517 -0.1713  0.2983 -0.6116
17482TIP3    H173861   1.913   5.585   5.533 -0.4268 -0.6702  1.2223
17482TIP3    H273862   2.061   5.585   5.566  0.1309  0.3940 -1.1117
17483TIP3   OH273863   2.730   1.152   4.136  0.3657  0.1433 -0.0853
17483TIP3    H173864   2.790   1.132   4.065 -0.6688 -0.3390 -0.8580
17483TIP3    H273865   2.747   1.243   4.158  1.4494 -0.0238 -0.2029
17484TIP3   OH273866   2.980   1.442   5.553 -0.3882 -0.3059 -0.1047
17484TIP3    H173867   2.999   1.354   5.520 -0.5434 -0.9157  1.3927
17484TIP3    H273868   2.921   1.429   5.626 -0.5820  1.0720  0.0155
17485TIP3   OH273869   6.156   6.050  13.149  0.3934  0.1984  0.1478
17485TIP3    H173870   6.152   5.986  13.220  0.3306  1.7706  1.6374
17485TIP3    H273871   6.244   6.040  13.113  0.5470 -0.4054  0.6698
17486TIP3   OH273872   0.274   0.417  14.243 -0.2410 -0.0222  0.0876
17486TIP3    H173873   0.308   0.502  14.212  0.2175 -0.2092  0.0734
17486TIP3    H273874   0.222   0.384  14.169  1.3031 -0.7227 -0.7347
17487TIP3   OH273875   4.389   5.671   4.346 -0.2563 -0.0486  0.6143
17487TIP3    H173876   4.321   5.679   4.279 -0.5232 -0.8391  0.7755
17487TIP3    H273877   4.442   5.750   4.336 -1.1877  0.5736  0.4815
17488TIP3   OH273878   3.756   3.101  11.000  0.2159  0.2725  0.1645
17488TIP3    H173879   3.696   3.175  10.990 -1.0241 -0.7940 -0.7613
17488TIP3    H273880   3.749   3.053  10.918  1.5432 -0.4848  0.4639
17489TIP3   OH273881   5.010   3.377  14.564 -0.2769 -0.0154  0.1728
17489TIP3    H173882   4.929   3.335  14.534  0.8933 -1.7385 -0.7591
17489TIP3    H273883   5.015   3.458  14.514 -0.5278 -0.7890 -1.1688
17490TIP3   OH273884   4.328   4.619   4.413  0.7116 -0.0237  0.2215
17490TIP3    H173885   4.241   4.582   4.427  1.4886 -1.9867  0.2258
17490TIP3    H273886   4.333   4.634   4.319  0.5817 -0.4994  0.1362
17491TIP3   OH273887   6.601   0.349   5.568  0.7409  0.6412  0.5869
17491TIP3    H173888   6.573   0.272   5.518  0.5745  0.6199  0.7103
17491TIP3    H273889   6.520   0.381   5.609  1.1616 -0.4526  2.3917
17492TIP3   OH273890   6.268   1.844  16.839 -0.5197 -0.8816 -0.3373
17492TIP3    H173891   6.202   1.801  16.785 -0.5161 -0.6765 -0.5055
17492TIP3    H273892   6.232   1.932  16.856 -0.5406 -0.9591  0.0276
17493TIP3   OH273893   5.244   4.612   5.859 -0.2488 -0.3241  0.2459
17493TIP3    H173894   5.212   4.693   5.900 -2.4851 -1.7344  1.4489
17493TIP3    H273895   5.280   4.641   5.776 -0.4037  1.9947  0.9062
17494TIP3   OH273896   6.161   3.537  15.529  0.3902  0.3873  0.4614
17494TIP3    H173897   6.231   3.538  15.463 -0.1786  0.0727 -0.1563
17494TIP3    H273898   6.082   3.516  15.480 -0.2252  1.2055  1.0823
17495TIP3   OH273899   0.061   4.942   2.064 -0.0882  0.3523  0.1016
17495TIP3    H173900   0.014   4.859   2.067 -1.5258  1.1443  0.3991
17495TIP3    H273901   0.031   4.984   1.984 -0.7236  1.3174  0.8172
17496TIP3   OH273902   2.586   3.962  16.563 -0.5323 -0.7776  0.0472
17496TIP3    H173903   2.491   3.965  16.557 -0.4978  1.3141 -0.4274
17496TIP3    H273904   2.609   4.040  16.614  0.9346 -0.9176 -0.3509
17497TIP3   OH273905   6.052   1.471  16.890  0.1566  0.8920  0.0089
17497TIP3    H173906   6.032   1.395  16.836 -0.8549 -0.2714  1.9292
17497TIP3    H273907   5.988   1.537  16.861  0.8092  0.9320 -1.4221
17498TIP3   OH273908   2.147   2.533   1.407 -0.0179  0.6764  0.0130
17498TIP3    H173909   2.127   2.444   1.379 -1.3897  0.7306  0.7428
17498TIP3    H273910   2.160   2.527   1.502 -1.8124  1.4822  0.3572
17499TIP3   OH273911   4.711   4.020   5.896  0.2504  0.1281 -0.7865
17499TIP3    H173912   4.797   3.978   5.885 -1.4666 -3.9133 -0.3893
17499TIP3    H273913   4.697   4.022   5.990  0.0435  1.1530 -0.8283
17500TIP3   OH273914   0.777   6.555  16.632 -0.0121 -0.3450 -0.2109
17500TIP3    H173915   0.765   6.606  16.711 -0.4203 -0.6313 -0.0835
17500TIP3    H273916   0.728   6.602  16.565  0.9230  0.2894 -0.4705
17501TIP3   OH273917   1.402   1.513   4.164 -0.0100 -0.0849 -0.2152
17501TIP3    H173918   1.461   1.575   4.208 -1.9869  0.9725  1.1078
17501TIP3    H273919   1.376   1.452   4.233  2.8697 -3.3681 -1.7523
17502TIP3   OH273920   0.724   1.614  14.776 -0.0757 -0.1137 -0.1954
17502TIP3    H173921   0.748   1.643  14.688  0.6907  1.6198  0.5400
17502TIP3    H273922   0.808   1.598  14.819 -0.3392  1.2066  0.8793
17503TIP3   OH273923   6.155   5.709   2.771 -0.3275  0.5560 -0.5353
17503TIP3    H173924   6.203   5.781   2.729  1.8712 -0.5318 -0.0497
17503TIP3    H273925   6.153   5.732   2.864 -0.8009  0.6311 -0.5659
17504TIP3   OH273926   6.162   1.039   2.116  0.2438 -0.0776 -0.2444
17504TIP3    H173927   6.181   0.984   2.040 -0.9077 -0.8570  0.0088
17504TIP3    H273928   6.165   1.128   2.082 -2.2934 -0.4570 -1.7544
17505TIP3   OH273929   3.667   0.628   3.182  0.2380  0.3785 -0.3094
17505TIP3    H173930   3.726   0.696   3.148  0.4091  0.6104  0.4293
17505TIP3    H273931   3.580   0.668   3.176  0.5936  2.0155  3.0855
17506TIP3   OH273932   4.414   0.021   5.652  0.0992 -0.6152 -0.2188
17506TIP3    H173933   4.440   0.113   5.663 -1.1529 -0.1783 -0.6787
17506TIP3    H273934   4.335   0.012   5.706  1.4086 -2.0368  1.5518
17507TIP3   OH273935   0.789   2.760   0.547 -0.6174 -0.0598  0.3758
17507TIP3    H173936   0.762   2.833   0.602  0.0591  0.0225  0.5960
17507TIP3    H273937   0.832   2.699   0.607  1.8465  0.8813 -0.3294
17508TIP3   OH273938   1.968   4.321   4.156  0.4841 -0.3038  0.4232
17508TIP3    H173939   2.022   4.289   4.084  2.1028 -0.4250  1.6315
17508TIP3    H273940   1.885   4.273   4.147  2.4680 -4.4896  1.6850
17509TIP3   OH273941   1.767   2.067  12.178  0.0084 -0.5633 -0.3633
17509TIP3    H173942   1.758   2.135  12.245 -0.4233 -0.6901 -0.2931
17509TIP3    H273943   1.854   2.030  12.194 -0.0647 -0.5457  0.0901
17510TIP3   OH273944   5.747   5.909   3.858 -0.8075  0.4867  0.5242
17510TIP3    H173945   5.689   5.903   3.934 -2.3071 -1.7148 -0.6807
17510TIP3    H273946   5.688   5.904   3.782  0.5198  3.7016 -0.8858
17511TIP3   OH273947   3.780   4.103   3.863  0.5016  0.8504 -0.1155
17511TIP3    H173948   3.745   4.036   3.804 -1.2569  1.0712  0.6127
17511TIP3    H273949   3.743   4.081   3.948  2.0272  1.2431  0.6785
17512TIP3   OH273950   5.755   3.477   2.564  0.5654 -0.0983 -0.0059
17512TIP3    H173951   5.774   3.400   2.510  1.1427 -0.1936  0.3285
17512TIP3    H273952   5.807   3.547   2.524 -0.7658  0.3927 -0.9580
17513TIP3   OH273953   6.147   5.683   5.943  0.2502 -0.2616  0.6444
17513TIP3    H173954   6.172   5.687   5.851  0.5673 -0.8857  0.7024
17513TIP3    H273955   6.170   5.770   5.977 -1.2817  0.5068 -0.2031
17514TIP3   OH273956   3.934   6.543  13.319 -0.6626  0.7942 -0.6623
17514TIP3    H173957   4.001   6.610  13.305 -0.4215  0.3990 -1.5087
17514TIP3    H273958   3.855   6.592  13.339  0.1568  1.2418  1.7912
17515TIP3   OH273959   3.561   3.370   2.416  0.3946  0.0250 -0.4797
17515TIP3    H173960   3.543   3.286   2.373 -0.0930  0.5084 -1.2464
17515TIP3    H273961   3.530   3.436   2.354 -2.8393  0.7264  1.6125
17516TIP3   OH273962   0.042   0.978  11.317 -0.3296 -0.6367  0.3420
17516TIP3    H173963   0.020   0.908  11.378  2.6551 -1.6865  0.3959
17516TIP3    H273964   0.118   1.021  11.357  1.3404 -0.9600 -2.2447
17517TIP3   OH273965   4.953   3.981  13.415  0.0885 -0.4818  0.1051
17517TIP3    H173966   5.013   3.979  13.340 -1.6432  2.3194 -1.4995
17517TIP3    H273967   4.956   4.071  13.446 -0.0477 -1.3210  2.8435
17518TIP3   OH273968   4.824   2.890   3.376  0.0695 -0.0000  0.5397
17518TIP3    H173969   4.833   2.795   3.384  0.3616 -0.0503 -0.3123
17518TIP3    H273970   4.732   2.907   3.398 -0.2681 -0.6093 -0.3794
17519TIP3   OH273971   2.029   5.343  11.525 -0.2832  0.0924  0.4463
17519TIP3    H173972   2.064   5.409  11.586  1.9748  0.8095 -1.4747
17519TIP3    H273973   2.051   5.259  11.566 -0.6107  0.5259  1.5488
17520TIP3   OH273974   2.789   4.043   1.215 -0.3515  0.1273  0.7572
17520TIP3    H173975   2.864   4.063   1.159  0.4010 -2.9204  0.4759
17520TIP3    H273976   2.803   4.095   1.294  1.7870  0.0842  0.4726
17521TIP3   OH273977   4.499   0.587  14.850 -0.3902 -0.3579 -0.4119
17521TIP3    H173978   4.417   0.616  14.890  0.0305  2.0684 -1.1541
17521TIP3    H273979   4.563   0.588  14.921 -0.2246  1.4095 -0.5401
17522TIP3   OH273980   3.547   2.234   1.928 -0.1175  0.5173 -0.5350
17522TIP3    H173981   3.489   2.310   1.926  0.3522  0.8662 -1.8868
17522TIP3    H273982   3.632   2.269   1.900  0.0944 -0.5042 -1.2004
17523TIP3   OH273983   1.925   2.675  12.982  0.3273 -0.4885  0.2782
17523TIP3    H173984   1.848   2.642  13.028 -1.0846  0.7898 -1.0881
17523TIP3    H273985   1.999   2.647  13.036 -1.1880  0.0321  2.7559
17524TIP3   OH273986   3.804   2.990   0.538  0.0997 -0.4700 -0.2218
17524TIP3    H173987   3.818   3.064   0.597  1.3161  0.1845 -1.2777
17524TIP3    H273988   3.726   3.013   0.488  0.9304  0.4960 -1.1034
17525TIP3   OH273989   4.159   5.220   1.576 -0.3626  0.2317  0.2319
17525TIP3    H173990   4.067   5.241   1.557 -0.5543 -1.5887 -1.0678
17525TIP3    H273991   4.207   5.258   1.503 -0.0175  1.3727  1.0223
17526TIP3   OH273992   4.501   2.436   2.188 -0.3487  0.0935 -0.0045
17526TIP3    H173993   4.577   2.493   2.203 -0.0944  0.3769 -2.0615
17526TIP3    H273994   4.529   2.350   2.219  1.2160 -0.0230 -1.5536
17527TIP3   OH273995   5.802   6.633   5.860 -0.1875 -0.3164 -0.8721
17527TIP3    H173996   5.868   6.579   5.817 -0.0512 -1.2918  0.4698
17527TIP3    H273997   5.845   6.663   5.941 -1.0834 -0.2391 -0.4085
17528TIP3   OH273998   4.164   1.284   1.110  0.8014  0.5523  0.2494
17528TIP3    H173999   4.134   1.280   1.200 -2.0600  3.0411 -0.4592
17528TIP3    H274000   4.185   1.193   1.088 -0.6472 -0.4660  2.6930
17529TIP3   OH274001   2.255   6.382  13.996 -0.0333  0.3588 -0.0888
17529TIP3    H174002   2.293   6.381  14.084 -1.2242  0.8961  0.4515
17529TIP3    H274003   2.162   6.364  14.009  0.2475 -2.7179 -1.5404
17530TIP3   OH274004   0.982   3.182  11.298  0.2052 -0.2117  0.3329
17530TIP3    H174005   1.037   3.181  11.220 -0.7786 -2.0696 -0.4132
17530TIP3    H274006   0.907   3.128  11.275 -1.0854  0.7991  1.9173
17531TIP3   OH274007   4.287   0.381  12.650  0.2525  0.1233 -0.9860
17531TIP3    H174008   4.284   0.304  12.706 -1.8409  0.8399  0.0002
17531TIP3    H274009   4.251   0.352  12.566 -0.1457 -0.0862 -0.7469
17532TIP3   OH274010   6.706   3.163  13.895 -0.4061  0.2496  0.3418
17532TIP3    H174011   6.717   3.172  13.990  1.2547  0.1471  0.2009
17532TIP3    H274012   6.742   3.076  13.875  1.5677  1.2117 -0.6337
17533TIP3   OH274013   4.956   3.699   1.995  0.6575  0.4682 -0.0599
17533TIP3    H174014   4.891   3.665   2.057  0.4725  1.9151  0.5828
17533TIP3    H274015   4.909   3.705   1.912  0.6212 -0.5711 -0.1222
17534TIP3   OH274016   2.475   4.606  11.368 -0.9522  0.5746  0.1758
17534TIP3    H174017   2.440   4.660  11.439 -2.3742 -0.9256  0.6713
17534TIP3    H274018   2.403   4.548  11.345 -0.1426  0.2538 -1.7441
17535TIP3   OH274019   1.363   4.593  12.102  0.0959  0.2474  0.0695
17535TIP3    H174020   1.372   4.502  12.073 -1.0969 -0.4640  1.7577
17535TIP3    H274021   1.342   4.641  12.022  3.3947 -0.4019 -1.4034
17536TIP3   OH274022   2.038   4.108   4.875  0.7082  0.2603 -0.3162
17536TIP3    H174023   2.124   4.115   4.916  0.6801  2.0720 -0.5026
17536TIP3    H274024   1.978   4.147   4.938  0.2878  0.6548 -0.9532
17537TIP3   OH274025   1.530   6.645   1.641 -0.3462  0.0964  0.0889
17537TIP3    H174026   1.464   6.579   1.619 -0.5773  0.4448 -0.2726
17537TIP3    H274027   1.547   6.631   1.734  1.2169 -1.9115 -0.4308
17538TIP3   OH274028   5.246   6.294  14.854 -0.0291 -0.0824  0.1123
17538TIP3    H174029   5.241   6.363  14.920 -1.2290 -1.1018  1.1370
17538TIP3    H274030   5.155   6.263  14.844  0.3265 -0.8317 -1.0600
17539TIP3   OH274031   1.081   0.103   4.731  0.1441 -0.1064  0.5507
17539TIP3    H174032   1.077   0.188   4.687  0.5461  0.6267  1.8849
17539TIP3    H274033   1.041   0.042   4.668  2.4163  0.5037 -1.6549
17540TIP3   OH274034   2.674   2.529  12.007 -0.7804  0.5605  0.0777
17540TIP3    H174035   2.604   2.483  12.054 -1.1095  1.2449  0.2774
17540TIP3    H274036   2.750   2.523  12.064 -0.4865 -0.7075 -0.4040
17541TIP3   OH274037   2.358   4.882  13.061  0.3826  0.1411  0.0346
17541TIP3    H174038   2.267   4.896  13.034  0.9655  1.7931 -1.2910
17541TIP3    H274039   2.409   4.904  12.983  1.9039 -2.0034  0.3351
17542TIP3   OH274040   2.244   5.394   4.394  0.2469 -0.4427 -0.3953
17542TIP3    H174041   2.218   5.427   4.480 -0.2919 -0.0127 -0.7184
17542TIP3    H274042   2.337   5.415   4.387 -0.3097  2.0987 -1.0607
17543TIP3   OH274043   2.648   1.716  13.528  0.7733 -0.6716  0.1628
17543TIP3    H174044   2.575   1.725  13.467  1.0248 -0.1811 -0.0703
17543TIP3    H274045   2.714   1.779  13.497  1.1545 -0.8608  0.5711
17544TIP3   OH274046   4.733   4.297   0.699  0.0197  0.3247  0.3192
17544TIP3    H174047   4.703   4.349   0.624 -2.5509  0.5523  1.3884
17544TIP3    H274048   4.804   4.350   0.737 -1.4703  2.3527  0.4659
17545TIP3   OH274049   1.013   6.244   5.501  0.2292  0.9988 -0.6209
17545TIP3    H174050   1.009   6.335   5.532  0.4092  0.9573 -0.4737
17545TIP3    H274051   0.927   6.208   5.519  0.6322  0.6643  0.7707
17546TIP3   OH274052   0.574   5.448   2.102  0.2521  0.2077  0.1888
17546TIP3    H174053   0.625   5.386   2.153  0.1196  0.2920  0.4263
17546TIP3    H274054   0.483   5.420   2.113  0.2823 -0.2934 -0.7075
17547TIP3   OH274055   2.564   4.114   5.491 -0.6409  0.5218  0.3605
17547TIP3    H174056   2.621   4.155   5.426  2.1180 -1.5266  1.2900
17547TIP3    H274057   2.476   4.139   5.465  0.3081  0.1215 -3.9494
17548TIP3   OH274058   5.146   5.909  13.268 -0.6276 -0.7376  0.2001
17548TIP3    H174059   5.061   5.868  13.251 -1.0314  0.1295  0.0714
17548TIP3    H274060   5.198   5.840  13.310 -1.9183 -0.8380  1.7459
17549TIP3   OH274061   5.871   5.678   2.730 -0.0561 -0.0903  0.5469
17549TIP3    H174062   5.832   5.751   2.681 -1.1570 -1.6869 -1.0724
17549TIP3    H274063   5.961   5.707   2.746  0.1815  0.8061 -1.9231
17550TIP3   OH274064   4.749   6.382  14.881  0.0805  0.1016 -0.1487
17550TIP3    H174065   4.660   6.365  14.910 -0.1457  0.0189 -0.8844
17550TIP3    H274066   4.764   6.475  14.901 -0.1837  0.1232 -0.0574
17551TIP3   OH274067   3.877   3.911  13.498 -0.8643 -0.1727 -0.2470
17551TIP3    H174068   3.865   3.952  13.583  0.9638  1.4104 -0.6949
17551TIP3    H274069   3.825   3.831  13.502 -1.2087  0.1180  2.1533
17552TIP3   OH274070   3.930   5.883  15.141 -0.1332  0.3501 -0.0636
17552TIP3    H174071   3.846   5.890  15.187  0.7069 -0.5987  1.7445
17552TIP3    H274072   3.982   5.824  15.196  2.2145  2.0148 -0.3407
17553TIP3   OH274073   4.788   3.762   3.386 -0.3929 -0.8385  0.3061
17553TIP3    H174074   4.789   3.667   3.378 -0.6283 -0.7911 -0.3210
17553TIP3    H274075   4.719   3.781   3.449  1.0752 -1.1887  2.1051
17554TIP3   OH274076   5.931   1.856   4.910  0.4670 -0.1479  0.0324
17554TIP3    H174077   5.895   1.940   4.940  1.7390 -0.1611  1.7547
17554TIP3    H274078   5.990   1.880   4.838 -1.3362  0.0727 -1.4604
17555TIP3   OH274079   2.982   0.051   0.438  0.0937  0.1813 -0.2265
17555TIP3    H174080   3.052  -0.003   0.401  0.1512  0.1909 -0.1324
17555TIP3    H274081   2.901   0.009   0.408  0.1230 -0.4790  0.5805
17556TIP3   OH274082   4.317   0.905  13.429  0.2709  0.9780 -0.6894
17556TIP3    H174083   4.253   0.957  13.478 -1.9731  0.9892 -3.4112
17556TIP3    H274084   4.392   0.964  13.419  0.1433  1.5389  1.1952
17557TIP3   OH274085   2.483   6.153   5.383 -0.1512  0.3635  0.5765
17557TIP3    H174086   2.500   6.169   5.476 -1.1193  1.9208  0.5296
17557TIP3    H274087   2.506   6.235   5.340 -0.1693 -0.1774 -0.5019
17558TIP3   OH274088   6.650   2.030   4.916  0.1537 -0.5551  0.2590
17558TIP3    H174089   6.685   1.956   4.966  0.9419 -0.8214 -0.6661
17558TIP3    H274090   6.678   2.107   4.965 -1.9288 -0.8329  2.0655
17559TIP3   OH274091   4.308   5.311  15.271  0.4888 -0.0271 -0.3409
17559TIP3    H174092   4.371   5.260  15.322 -0.4335 -0.9422 -0.0792
17559TIP3    H274093   4.313   5.274  15.183  1.8647  1.3526 -0.8654
17560TIP3   OH274094   3.438   5.768   5.489  0.2455 -0.2181 -0.0628
17560TIP3    H174095   3.527   5.785   5.519  0.2827 -0.4730 -0.0274
17560TIP3    H274096   3.383   5.784   5.566  0.4148 -1.6328  0.3653
17561TIP3   OH274097   4.300   2.133   6.055 -0.1384  0.4271 -0.6786
17561TIP3    H174098   4.286   2.146   5.961  0.5342  1.2995 -0.6662
17561TIP3    H274099   4.214   2.144   6.094 -0.2661  0.9590 -1.1015
17562TIP3   OH274100   1.218   4.113   4.512 -0.0392 -0.3640 -0.0834
17562TIP3    H174101   1.305   4.128   4.475 -0.0375 -1.6378 -0.6428
17562TIP3    H274102   1.159   4.165   4.457  0.3560  0.5805  0.3555
17563TIP3   OH274103   3.255   5.347  14.708 -0.2551  0.1874 -0.3846
17563TIP3    H174104   3.307   5.427  14.709 -1.3392  0.9343 -1.2034
17563TIP3    H274105   3.165   5.377  14.724 -0.8884 -0.6642 -2.0883
17564TIP3   OH274106   4.734   0.670   1.453  0.0429  0.2434  0.2025
17564TIP3    H174107   4.825   0.656   1.480 -0.0101  0.6697  0.6197
17564TIP3    H274108   4.717   0.762   1.472 -0.5737  0.0886  0.4431
17565TIP3   OH274109   4.924   3.957  11.559 -0.5529  0.2713 -0.1900
17565TIP3    H174110   5.017   3.980  11.561 -1.1605  2.9260  1.5723
17565TIP3    H274111   4.918   3.878  11.614  0.5969  0.3173  0.0241
17566TIP3   OH274112   3.919   6.650  11.219 -0.1296  0.6055 -0.0366
17566TIP3    H174113   3.921   6.600  11.138  1.0415 -0.7126  0.7592
17566TIP3    H274114   3.841   6.705  11.212 -2.1300 -2.0778 -0.5394
17567TIP3   OH274115   6.690   0.527  15.453 -0.2572  0.1043 -0.1073
17567TIP3    H174116   6.625   0.530  15.523  0.0342 -1.4569  0.2480
17567TIP3    H274117   6.768   0.490  15.493  0.6865  1.3671 -0.6929
17568TIP3   OH274118   0.574   1.968  16.448 -0.0361  0.2430  0.2048
17568TIP3    H174119   0.657   1.970  16.402 -0.9642  0.4329 -1.5209
17568TIP3    H274120   0.534   1.884  16.423 -0.7514  0.5456  0.3046
17569TIP3   OH274121   3.504   3.143  10.804  0.4499 -0.3967  0.6221
17569TIP3    H174122   3.495   3.222  10.857  2.1878 -0.4089  0.9859
17569TIP3    H274123   3.556   3.170  10.728 -2.0654 -0.3563 -1.2335
17570TIP3   OH274124   5.814   2.939   1.600 -0.0916  0.0875  0.2315
17570TIP3    H174125   5.804   2.962   1.692  0.5940  0.4179  0.2359
17570TIP3    H274126   5.725   2.923   1.569 -0.6490  2.8603  0.1967
17571TIP3   OH274127   3.820   1.469  12.071  0.3064  0.2245 -0.1628
17571TIP3    H174128   3.806   1.490  12.163 -1.9440  0.4010 -0.4833
17571TIP3    H274129   3.755   1.522  12.024  0.8381 -0.4857 -1.7813
17572TIP3   OH274130   5.165   0.118   6.157  0.0581  0.7523 -0.2469
17572TIP3    H174131   5.235   0.123   6.092  0.5111  1.6246  0.2884
17572TIP3    H274132   5.204   0.070   6.230  0.2445  1.5713  0.2074
17573TIP3   OH274133   0.912   2.439  13.076  0.1163 -0.0167 -0.0396
17573TIP3    H174134   0.950   2.521  13.108 -0.8119  0.5951 -0.4684
17573TIP3    H274135   0.944   2.373  13.137  1.5219  0.5324 -0.1448
17574TIP3   OH274136   2.616   5.199   2.973 -0.1803 -0.4562  1.0716
17574TIP3    H174137   2.669   5.127   3.007 -1.0171 -0.7464  1.8180
17574TIP3    H274138   2.527   5.164   2.972 -0.3322 -0.1202 -0.5148
17575TIP3   OH274139   0.364   0.138  15.052 -0.6414  0.2831  0.4660
17575TIP3    H174140   0.429   0.208  15.058  1.4726 -1.0808 -3.1864
17575TIP3    H274141   0.291   0.177  15.004  0.4380  0.1302 -1.3693
17576TIP3   OH274142   4.884   0.553  11.669 -0.1462  0.3135  0.3000
17576TIP3    H174143   4.814   0.569  11.607  0.6565  1.9323 -0.2727
17576TIP3    H274144   4.903   0.460  11.663 -1.4940  0.0683 -0.3221
17577TIP3   OH274145   3.704   0.100   4.598  0.0050  0.0179 -0.9656
17577TIP3    H174146   3.738   0.127   4.512 -0.8307  1.2894 -0.9286
17577TIP3    H274147   3.734   0.168   4.658  3.1116 -2.3140  0.4256
17578TIP3   OH274148   4.528   2.659  14.094  0.0156  0.3096  0.2124
17578TIP3    H174149   4.537   2.569  14.063  0.2334  1.0493 -2.0478
17578TIP3    H274150   4.450   2.692  14.050  1.0942  1.8322 -0.6237
17579TIP3   OH274151   3.235   6.508  15.966  0.1503 -0.0297  0.2261
17579TIP3    H174152   3.180   6.438  16.001 -0.3609 -0.3412 -1.1484
17579TIP3    H274153   3.321   6.468  15.954 -0.8599 -1.4920 -3.5509
17580TIP3   OH274154   1.167   2.889  15.668  0.3129 -0.3522  0.7968
17580TIP3    H174155   1.115   2.929  15.598  0.7608  1.5189  1.4686
17580TIP3    H274156   1.251   2.935  15.664  0.2706 -0.0611  2.6857
17581TIP3   OH274157   2.174   2.174   3.029  0.3554  0.2466  0.2405
17581TIP3    H174158   2.103   2.203   3.086 -1.3190  1.2354 -2.1708
17581TIP3    H274159   2.237   2.246   3.030 -0.3348  0.8762 -0.1687
17582TIP3   OH274160   4.805   4.234   5.730 -0.0008  0.4158  0.0324
17582TIP3    H174161   4.784   4.167   5.794 -1.8647  2.5011  1.7689
17582TIP3    H274162   4.776   4.198   5.646 -0.2704 -1.1968  0.7962
17583TIP3   OH274163   3.749   6.333   6.207  0.0030 -0.1882  0.6329
17583TIP3    H174164   3.842   6.351   6.221  0.2695 -1.3434  0.4407
17583TIP3    H274165   3.705   6.413   6.234  1.0769  0.4951  0.4181
17584TIP3   OH274166   2.765   0.676   4.012  0.2309  0.0656 -0.7074
17584TIP3    H174167   2.672   0.667   3.993 -0.1357 -0.8823  1.3292
17584TIP3    H274168   2.769   0.733   4.088  1.3217  0.1191 -0.7876
17585TIP3   OH274169   4.686   3.095  13.277  0.1738 -0.1496 -0.0168
17585TIP3    H174170   4.642   3.011  13.267  2.7954 -1.4816 -1.5034
17585TIP3    H274171   4.730   3.089  13.361 -1.7268  0.8875  1.1225
17586TIP3   OH274172   5.404   6.698  14.808  0.2721 -0.4889  0.6092
17586TIP3    H174173   5.489   6.728  14.774 -0.3709  0.4401 -0.2313
17586TIP3    H274174   5.388   6.615  14.763  0.1576 -0.0402 -0.1944
17587TIP3   OH274175   6.368   2.671  15.948  0.0134 -0.1958 -0.0316
17587TIP3    H174176   6.449   2.627  15.922 -0.1875 -0.4047 -0.3131
17587TIP3    H274177   6.324   2.609  16.005  0.8594  0.6021  1.5492
17588TIP3   OH274178   1.478   5.001  16.567 -0.2133  0.1911 -0.2121
17588TIP3    H174179   1.513   4.915  16.543  0.2757  0.4817 -0.5642
17588TIP3    H274180   1.392   4.982  16.605  0.6291 -0.6020  1.4118
17589TIP3   OH274181   5.406   3.671   5.384  0.4133 -0.1099 -0.8201
17589TIP3    H174182   5.408   3.582   5.420 -0.8905  0.0603 -0.2828
17589TIP3    H274183   5.444   3.725   5.453  0.1875 -0.1095 -0.6948
17590TIP3   OH274184   3.849   5.721   5.768 -0.5401 -0.8346  0.9462
17590TIP3    H174185   3.881   5.731   5.858 -0.4368 -0.2456  0.8498
17590TIP3    H274186   3.893   5.643   5.735  0.8692 -0.0055  0.7925
17591TIP3   OH274187   2.943   0.331  12.538 -0.2151  0.3345  0.0218
17591TIP3    H174188   2.922   0.389  12.611 -1.9832 -1.0820  0.7395
17591TIP3    H274189   2.996   0.262  12.578  0.9210  0.8378 -0.5865
17592TIP3   OH274190   2.141   0.023   0.301  0.5142 -0.2413 -0.3947
17592TIP3    H174191   2.184  -0.022   0.374 -1.1299 -1.8601 -0.3530
17592TIP3    H274192   2.059  -0.025   0.288 -0.6913  1.9269 -1.3018
17593TIP3   OH274193   3.587   3.350   5.046  0.2064  0.2409  0.2195
17593TIP3    H174194   3.529   3.379   4.975 -0.7101 -1.4208  0.2295
17593TIP3    H274195   3.658   3.414   5.047 -1.0582  1.7292 -0.5215
17594TIP3   OH274196   4.934   3.039  14.484 -0.1102  0.1481 -0.4816
17594TIP3    H174197   4.896   3.122  14.514  1.0729 -0.2612  2.5749
17594TIP3    H274198   4.887   2.972  14.535  2.2493 -0.6031  0.8528
17595TIP3   OH274199   2.643   2.081  15.501  0.9706 -0.4099 -0.5883
17595TIP3    H174200   2.698   2.022  15.450 -1.1469 -1.4846 -1.7577
17595TIP3    H274201   2.655   2.054  15.592  1.0405 -1.7642 -0.9908
17596TIP3   OH274202   2.094   5.387  16.832  0.0865 -0.2062 -0.3420
17596TIP3    H174203   2.137   5.439  16.764 -0.7466 -0.3937 -1.0348
17596TIP3    H274204   2.040   5.324  16.784 -1.3133  0.3125  0.4752
17597TIP3   OH274205   3.529   4.020   6.038  0.4359  0.2600 -0.3013
17597TIP3    H174206   3.610   4.071   6.031  2.4690 -2.1837  2.7892
17597TIP3    H274207   3.496   4.039   6.126 -0.7140 -1.0462 -0.4259
17598TIP3   OH274208   1.937   2.073   0.386 -0.2308  0.6781 -0.5157
17598TIP3    H174209   1.845   2.073   0.414 -0.4315  1.3351 -1.1455
17598TIP3    H274210   1.933   2.057   0.292  0.2075  2.1522 -0.7988
17599TIP3   OH274211   5.136   4.959  10.656  0.0834  0.0539 -0.0258
17599TIP3    H174212   5.109   4.885  10.710 -0.3401 -0.3288 -0.7460
17599TIP3    H274213   5.088   4.948  10.573  0.8154  0.5508 -0.5339
17600TIP3   OH274214   1.947   2.237  15.193 -0.3284 -0.5228  0.9012
17600TIP3    H174215   1.976   2.224  15.283 -1.2463  0.3887  1.3512
17600TIP3    H274216   1.863   2.191  15.188 -0.3228 -0.4971  0.5435
17601TIP3   OH274217   2.363   6.656  17.092 -0.8193 -0.3367 -0.0809
17601TIP3    H174218   2.322   6.620  17.171  1.0321  0.0904  1.1631
17601TIP3    H274219   2.433   6.712  17.126 -0.9657  1.1110 -2.0304
17602TIP3   OH274220   4.930   5.769   5.853 -0.1790 -0.1100 -0.0030
17602TIP3    H174221   4.948   5.684   5.894  0.9604 -0.0815 -0.4127
17602TIP3    H274222   4.991   5.829   5.894  0.6906  0.0049 -1.4094
17603TIP3   OH274223   4.646   6.092  16.749 -0.1992 -0.1357 -0.3170
17603TIP3    H174224   4.685   6.032  16.813 -0.6389  0.5080  0.5736
17603TIP3    H274225   4.684   6.066  16.665 -1.3453 -2.5433 -0.1834
17604TIP3   OH274226   6.324   0.468   0.267 -0.5446  0.1502  0.0901
17604TIP3    H174227   6.235   0.465   0.303 -0.6962 -0.0861 -0.3036
17604TIP3    H274228   6.318   0.529   0.193 -0.2181  0.6880  0.5013
17605TIP3   OH274229   6.279   4.553   3.693 -0.4386  0.6064 -0.1596
17605TIP3    H174230   6.249   4.488   3.629 -1.6426  1.2977 -0.3437
17605TIP3    H274231   6.372   4.536   3.703 -0.5633 -0.5967 -0.8396
17606TIP3   OH274232   4.526   1.638  15.321 -0.1002  0.2996  0.1898
17606TIP3    H174233   4.592   1.672  15.259 -0.1919 -0.2617 -0.2280
17606TIP3    H274234   4.564   1.654  15.407  1.0320 -0.8508 -0.0611
17607TIP3   OH274235   0.787   2.127   1.920  0.1869  0.0487  0.2667
17607TIP3    H174236   0.841   2.139   1.999 -1.0635  0.6582  1.0577
17607TIP3    H274237   0.702   2.100   1.954 -0.9865  2.3136 -0.7254
17608TIP3   OH274238   4.176   3.813   0.767  0.0847 -0.1689  0.6788
17608TIP3    H174239   4.110   3.881   0.774  0.8422  0.6690 -0.1676
17608TIP3    H274240   4.220   3.829   0.684  2.0554 -0.0576  1.6754
17609TIP3   OH274241   2.241   6.462   2.010  0.0444 -0.2963 -0.5884
17609TIP3    H174242   2.248   6.435   2.102 -2.4611  0.2128 -0.1434
17609TIP3    H274243   2.266   6.385   1.960 -1.1819 -1.5203  0.5835
17610TIP3   OH274244   0.795   6.197   2.819  0.1078  0.3141 -0.5173
17610TIP3    H174245   0.708   6.157   2.810 -0.3034  0.9059  0.5729
17610TIP3    H274246   0.801   6.221   2.912  0.2932  2.7846 -1.0862
17611TIP3   OH274247   6.710   5.577   2.710 -0.2847 -0.1865  0.0871
17611TIP3    H174248   6.636   5.636   2.727  0.6090  1.4947 -1.4439
17611TIP3    H274249   6.694   5.544   2.622  0.1747 -0.8186  0.2323
17612TIP3   OH274250   0.512   2.417  12.487  0.1663 -0.2991  0.1428
17612TIP3    H174251   0.530   2.345  12.427 -2.8862 -1.1260  0.0732
17612TIP3    H274252   0.419   2.437  12.475  0.9330  4.1049 -0.2549
17613TIP3   OH274253   6.405   1.740   6.379 -0.7980  0.6456 -0.0001
17613TIP3    H174254   6.431   1.685   6.453 -1.7979  3.0843  2.3057
17613TIP3    H274255   6.373   1.821   6.418 -1.7494  1.9519 -3.1180
17614TIP3   OH274256   1.058   1.457   1.877 -0.2684  0.5260  0.1721
17614TIP3    H174257   0.965   1.439   1.879  0.0110 -1.1251 -0.2244
17614TIP3    H274258   1.076   1.501   1.960 -1.5542  1.8305 -0.2088
17615TIP3   OH274259   0.976   1.174  12.467 -0.6860 -0.7128  0.3025
17615TIP3    H174260   1.011   1.262  12.452 -1.5421 -0.5741 -1.0728
17615TIP3    H274261   0.972   1.165  12.562  0.6430  0.2243  0.4650
17616TIP3   OH274262   2.476   4.041  14.729 -0.3362 -0.0502 -0.1936
17616TIP3    H174263   2.449   4.078  14.645 -0.3363 -2.5806 -1.3787
17616TIP3    H274264   2.572   4.051  14.729 -0.4064  0.7593 -0.0432
17617TIP3   OH274265   3.317   1.016  14.864  0.2139 -0.1071  0.1863
17617TIP3    H174266   3.263   0.964  14.923 -1.2353 -0.0230 -1.0101
17617TIP3    H274267   3.363   0.951  14.810  0.3085 -0.1556  0.3229
17618TIP3   OH274268   3.716   0.176  17.256  0.1366  0.3599 -0.2256
17618TIP3    H174269   3.745   0.202  17.343  0.4825  0.0339 -0.2427
17618TIP3    H274270   3.746   0.247  17.199  1.7000 -0.3780 -0.3765
17619TIP3   OH274271   3.824   3.647  14.640  0.0389  0.0525  0.2043
17619TIP3    H174272   3.770   3.617  14.568  0.4939  0.0014 -0.1216
17619TIP3    H274273   3.808   3.742  14.644  1.5019  0.4134 -1.2714
17620TIP3   OH274274   1.752   2.730   4.644 -0.0363 -0.1503 -0.4633
17620TIP3    H174275   1.658   2.751   4.650 -0.6201 -2.7806  1.9431
17620TIP3    H274276   1.754   2.640   4.612  1.4463 -1.1304  2.1095
17621TIP3   OH274277   0.913   0.254   1.604 -0.0558 -0.1206 -0.4966
17621TIP3    H174278   0.984   0.191   1.600 -1.2299 -1.5449 -0.0142
17621TIP3    H274279   0.947   0.333   1.562  1.5692 -0.9668 -0.8176
17622TIP3   OH274280   1.244   3.932  10.498 -0.4521  0.1716  0.8721
17622TIP3    H174281   1.174   3.971  10.446 -0.2554 -0.0361  0.4470
17622TIP3    H274282   1.200   3.871  10.557 -0.8766  1.7202  2.2374
17623TIP3   OH274283   6.414   3.317   0.680  0.0262 -0.0028  0.0787
17623TIP3    H174284   6.338   3.341   0.734  0.2527  0.1311  0.3406
17623TIP3    H274285   6.379   3.310   0.592 -0.1817  0.6493  0.1006
17624TIP3   OH274286   0.858   5.979   4.440  0.2006 -0.4174 -0.2607
17624TIP3    H174287   0.878   5.969   4.347 -0.1909  0.1153 -0.4065
17624TIP3    H274288   0.942   6.002   4.480  0.3123 -0.3510 -0.5312
17625TIP3   OH274289   3.164   1.471   3.475 -0.0619  0.1062  0.5815
17625TIP3    H174290   3.206   1.552   3.504  1.4602 -0.8859  1.3274
17625TIP3    H274291   3.217   1.442   3.401 -0.1812 -0.5421  0.7443
17626TIP3   OH274292   0.137   5.117   0.615  0.4230  0.0354  0.2563
17626TIP3    H174293   0.128   5.151   0.704 -0.0211  0.3019  0.1173
17626TIP3    H274294   0.075   5.170   0.563  0.7576 -0.0420 -0.2283
17627TIP3   OH274295   2.654   0.524   0.483  0.4054  0.3628  0.1649
17627TIP3    H174296   2.650   0.511   0.577 -1.0930 -0.3933  0.0192
17627TIP3    H274297   2.578   0.478   0.448 -1.5554  4.0529 -1.0263
17628TIP3   OH274298   0.990   4.859   1.357  0.3693  0.3511  0.2942
17628TIP3    H174299   1.085   4.851   1.367  0.2896 -3.2337 -0.3516
17628TIP3    H274300   0.978   4.916   1.282  2.2293 -1.5636 -1.6069
17629TIP3   OH274301   1.869   4.235   5.081  0.3275 -0.4014 -0.3539
17629TIP3    H174302   1.864   4.318   5.129 -2.5482 -0.5754 -0.2144
17629TIP3    H274303   1.860   4.168   5.148 -1.3749 -0.6994 -0.8406
17630TIP3   OH274304   3.082   1.153   3.860  0.1296  0.2826 -0.0428
17630TIP3    H174305   3.052   1.217   3.796  1.6606  0.0220 -1.0744
17630TIP3    H274306   3.001   1.113   3.893 -0.8017  1.9560 -0.1636
17631TIP3   OH274307   1.482   2.521  11.526  0.5158  0.4323  0.4968
17631TIP3    H174308   1.563   2.567  11.501  1.1529 -1.6016 -1.5468
17631TIP3    H274309   1.435   2.509  11.444 -0.7324 -0.4881  1.3175
17632TIP3   OH274310   5.942   6.091   3.803 -0.6170  0.0386  0.2669
17632TIP3    H174311   5.879   6.162   3.794 -0.3274  0.2932  0.2205
17632TIP3    H274312   5.891   6.016   3.833 -0.9587  0.2098  0.1097
17633TIP3   OH274313   2.320   1.883   3.416 -0.2304  0.0732  0.0996
17633TIP3    H174314   2.313   1.802   3.365 -1.2058  0.1317  0.1194
17633TIP3    H274315   2.394   1.868   3.475 -0.0148 -0.5652 -0.3228
17634TIP3   OH274316   5.154   2.116   0.953  0.5371  0.2116  0.0512
17634TIP3    H174317   5.106   2.078   1.027  0.4254 -0.4804 -0.3649
17634TIP3    H274318   5.114   2.202   0.941  0.6280  0.3801  0.8609
17635TIP3   OH274319   1.826   1.118   1.664  0.0907  0.2454  0.1362
17635TIP3    H174320   1.835   1.031   1.702 -1.2529  0.3831  0.8196
17635TIP3    H274321   1.794   1.102   1.575 -2.6309  0.0509  1.0580
17636TIP3   OH274322   6.618   3.004   1.449 -0.0842  0.7605  0.0467
17636TIP3    H174323   6.694   3.054   1.419  0.1602  1.2783  1.4391
17636TIP3    H274324   6.612   2.930   1.388  0.3558  1.7566 -1.2447
17637TIP3   OH274325   5.657   4.800  16.515  0.3337 -0.3394 -0.3157
17637TIP3    H174326   5.661   4.705  16.526 -0.3250 -0.2460  0.9602
17637TIP3    H274327   5.575   4.825  16.557 -0.0205  0.6879 -1.5817
17638TIP3   OH274328   0.832   4.822   5.394 -0.9450  0.4602  0.8877
17638TIP3    H174329   0.827   4.898   5.336  1.7880  0.3067  0.2846
17638TIP3    H274330   0.803   4.854   5.479  0.3762  2.3060  0.7018
17639TIP3   OH274331   0.616   4.889   1.589 -0.0492 -0.5985  0.4987
17639TIP3    H174332   0.707   4.867   1.609  0.0154  0.9443  2.1959
17639TIP3    H274333   0.614   4.985   1.593 -1.5143 -0.5547 -0.6917
17640TIP3   OH274334   4.951   4.603  10.046  0.0577 -0.7164 -0.4183
17640TIP3    H174335   5.011   4.561  10.108 -0.2062  1.6595  1.5796
17640TIP3    H274336   4.979   4.570   9.961  1.8912 -2.4066  0.7440
17641TIP3   OH274337   3.480   1.417   1.104  0.6812 -0.6329 -0.4869
17641TIP3    H174338   3.506   1.502   1.068 -0.0198  0.4792  1.4716
17641TIP3    H274339   3.396   1.398   1.063  1.1073 -0.6600 -1.3545
17642TIP3   OH274340   5.475   4.967   5.648 -0.2436  0.5938  0.3331
17642TIP3    H174341   5.502   4.984   5.738  2.6594 -0.8390 -0.1429
17642TIP3    H274342   5.518   5.035   5.597  1.3083 -0.8042 -0.3018
17643TIP3   OH274343   2.388   3.120   2.521  0.0020 -0.5324 -0.1151
17643TIP3    H174344   2.446   3.162   2.584 -0.0762 -1.6026  0.6942
17643TIP3    H274345   2.437   3.046   2.487 -0.3758 -0.6215 -0.4889
17644TIP3   OH274346   1.693   5.794  15.621 -0.1415 -0.2573  0.4223
17644TIP3    H174347   1.769   5.849  15.640 -0.6666 -0.0344  2.1394
17644TIP3    H274348   1.684   5.797  15.526  1.6681  0.1274  0.2307
17645TIP3   OH274349   3.490   4.364   0.442  0.1191  0.3389  0.7758
17645TIP3    H174350   3.501   4.443   0.496  0.0665 -0.5373  2.1239
17645TIP3    H274351   3.577   4.347   0.406 -0.1671  1.7961 -0.7134
17646TIP3   OH274352   2.343   6.252  16.916  0.0654  0.6526  0.1859
17646TIP3    H174353   2.249   6.251  16.929 -0.0656  0.2427 -0.7303
17646TIP3    H274354   2.355   6.293  16.830  0.7231  0.7729  0.3313
17647TIP3   OH274355   6.197   0.672  16.255  0.5619 -0.1274  0.1502
17647TIP3    H174356   6.160   0.740  16.311  0.7465 -0.1410  0.2868
17647TIP3    H274357   6.236   0.720  16.181 -1.7688 -0.1908 -1.2437
17648TIP3   OH274358   1.670   2.972   0.518  0.4655 -0.1424 -0.6215
17648TIP3    H174359   1.622   2.937   0.593  0.9526  0.0956 -0.1940
17648TIP3    H274360   1.713   2.897   0.479  1.2524 -0.0779  0.1056
17649TIP3   OH274361   5.328   3.905   3.179  0.1666 -0.5257 -0.4735
17649TIP3    H174362   5.332   3.820   3.136 -0.7640 -2.3514  2.7256
17649TIP3    H274363   5.418   3.938   3.175  0.6834 -1.9297 -1.2659
17650TIP3   OH274364   1.408   0.095   2.031 -0.2617  0.4006 -0.9796
17650TIP3    H174365   1.397   0.074   2.124  1.1869  1.1405 -0.6109
17650TIP3    H274366   1.453   0.179   2.031  0.7778 -0.1240 -2.3384
17651TIP3   OH274367   1.877   5.877   4.006  0.2213  0.1399  0.9997
17651TIP3    H174368   1.957   5.879   4.057  0.9930  2.5686 -0.1708
17651TIP3    H274369   1.906   5.863   3.915 -0.5894  1.4664  0.5038
17652TIP3   OH274370   4.924   0.800  14.548  0.1171  0.2724 -0.3357
17652TIP3    H174371   4.933   0.867  14.479  0.1764  2.4641  1.6660
17652TIP3    H274372   5.014   0.778  14.572  0.1186 -1.2702 -1.5696
17653TIP3   OH274373   5.587   5.314  14.752  0.3417  0.0116 -0.2505
17653TIP3    H174374   5.600   5.314  14.847 -1.2004 -2.4497  0.0472
17653TIP3    H274375   5.664   5.268  14.717 -0.1051 -1.0040  0.0546
17654TIP3   OH274376   5.547   1.317  15.886 -0.6709 -0.1083  0.3616
17654TIP3    H174377   5.459   1.339  15.915 -0.0631  1.7998  0.9394
17654TIP3    H274378   5.595   1.299  15.967 -0.3325 -0.3283  0.1165
17655TIP3   OH274379   4.358   4.980  11.211  0.7630  0.3126 -0.5101
17655TIP3    H174380   4.301   4.930  11.153  1.0041 -0.7672  0.1502
17655TIP3    H274381   4.307   5.057  11.234  0.4067  0.4182 -1.6128
17656TIP3   OH274382   2.565   1.612  16.753 -0.4738  0.3280  0.2870
17656TIP3    H174383   2.503   1.654  16.812 -0.5639 -1.0335  1.2307
17656TIP3    H274384   2.549   1.518  16.765 -0.3149 -0.0006 -1.7442
17657TIP3   OH274385   0.244   1.913   4.738 -0.0987  0.0841 -0.0834
17657TIP3    H174386   0.161   1.915   4.689 -0.7108  0.5298  0.9591
17657TIP3    H274387   0.226   1.857   4.813  1.0355 -1.1368 -0.6777
17658TIP3   OH274388   1.653   6.394   5.313 -0.4758  0.3371  0.1502
17658TIP3    H174389   1.662   6.299   5.320  0.1643  0.3982  0.2397
17658TIP3    H274390   1.583   6.416   5.375 -0.9618 -0.1219 -0.2232
17659TIP3   OH274391   3.194   3.993   3.070  0.1642  1.5137  0.0786
17659TIP3    H174392   3.146   3.929   3.017 -1.2977  2.1224  0.6094
17659TIP3    H274393   3.126   4.049   3.106  1.0934  1.1708  2.5580
17660TIP3   OH274394   6.741   5.995  12.091  0.1704 -0.0748  0.1285
17660TIP3    H174395   6.710   6.079  12.125  0.4691 -0.1148  0.5051
17660TIP3    H274396   6.704   5.990  12.003 -1.0468 -0.2032  0.6262
17661TIP3   OH274397   1.018   0.862  15.763  0.5324 -0.4067 -0.4907
17661TIP3    H174398   1.068   0.830  15.687 -1.1088 -0.2596 -1.6807
17661TIP3    H274399   1.004   0.785  15.817  0.5960 -0.7714 -0.9893
17662TIP3   OH274400   3.339   1.295  16.429  0.0342  0.5069  0.5311
17662TIP3    H174401   3.359   1.385  16.454 -1.1637  0.8417  0.3521
17662TIP3    H274402   3.415   1.266  16.379 -0.1233  1.8852 -0.5658
17663TIP3   OH274403   0.803   2.098   0.453 -0.5925 -0.0539  0.7553
17663TIP3    H174404   0.760   2.031   0.400  0.4927  0.3968 -0.7740
17663TIP3    H274405   0.892   2.102   0.418 -0.6231  2.1836  0.8098
17664TIP3   OH274406   3.334   5.166  13.525 -0.0690 -0.0222 -0.0126
17664TIP3    H174407   3.378   5.251  13.537  0.8665 -0.4702 -0.1897
17664TIP3    H274408   3.391   5.118  13.465 -0.2937 -0.9943  0.5444
17665TIP3   OH274409   5.178   2.213  15.292 -0.7019 -0.8545 -0.0171
17665TIP3    H174410   5.139   2.285  15.242 -0.7704 -0.9390 -0.0869
17665TIP3    H274411   5.133   2.215  15.376 -0.7612 -0.8666 -0.0490
17666TIP3   OH274412   2.525   2.982  14.246  0.0593  0.4066 -0.0995
17666TIP3    H174413   2.448   2.952  14.295  1.8182 -3.6514  0.4963
17666TIP3    H274414   2.509   2.953  14.157  0.7617 -0.2591 -0.0171
17667TIP3   OH274415   4.217   2.818   5.929  0.5836 -0.4721  0.2037
17667TIP3    H174416   4.267   2.769   5.994 -1.1123  0.1280  2.0906
17667TIP3    H274417   4.225   2.909   5.957 -1.0863 -0.3115  0.2781
17668TIP3   OH274418   0.122   5.265   5.997  0.2046  0.5042 -0.1691
17668TIP3    H174419   0.066   5.261   5.919  1.5899 -1.1324 -1.1449
17668TIP3    H274420   0.081   5.205   6.059  0.2981  0.1249 -0.4720
17669TIP3   OH274421   3.072   4.265   2.783  0.4504 -0.0670 -0.0530
17669TIP3    H174422   3.058   4.253   2.877  0.3831 -2.1717 -0.2689
17669TIP3    H274423   2.983   4.263   2.746  0.5631 -1.8712 -0.3495
17670TIP3   OH274424   1.519   0.224   5.269  0.1564  0.1221 -0.0280
17670TIP3    H174425   1.445   0.266   5.314  0.3229  1.2310 -0.7349
17670TIP3    H274426   1.489   0.135   5.252 -1.1550  0.6396 -0.5718
17671TIP3   OH274427   0.090   5.541  15.171  0.4255 -0.6590  0.2440
17671TIP3    H174428   0.105   5.621  15.120 -0.8862  0.2634  1.2352
17671TIP3    H274429   0.178   5.508  15.190  0.9895  0.4692 -0.3079
17672TIP3   OH274430   2.539   2.623  14.640 -0.3434 -0.5012  0.1430
17672TIP3    H174431   2.599   2.575  14.582  0.3720  0.4084  0.0963
17672TIP3    H274432   2.566   2.597  14.728  1.1011  0.9440  0.1844
17673TIP3   OH274433   2.624   6.751   3.275 -0.6273 -0.1122  0.1252
17673TIP3    H174434   2.703   6.726   3.322 -0.9431  1.0944  1.3690
17673TIP3    H274435   2.578   6.810   3.335 -2.0238 -0.0646 -0.9328
17674TIP3   OH274436   1.382   0.951   2.411 -0.5178  0.2788  0.4813
17674TIP3    H174437   1.431   1.023   2.371  0.2749 -0.1548  0.6531
17674TIP3    H274438   1.377   0.884   2.342  0.2172 -0.1743  0.8583
17675TIP3   OH274439   0.772   5.097   5.218  0.2895 -0.5696  0.1466
17675TIP3    H174440   0.800   5.184   5.187 -0.0794  0.4479  2.4410
17675TIP3    H274441   0.691   5.080   5.171  1.0516 -0.3271 -1.3384
17676TIP3   OH274442   5.709   3.466   0.846 -0.6934 -0.1916  0.1720
17676TIP3    H174443   5.628   3.512   0.870 -0.3980  0.0697  0.6670
17676TIP3    H274444   5.747   3.521   0.777 -0.6654 -0.0259  0.3169
17677TIP3   OH274445   5.107   1.389   1.563  0.3996 -0.2516 -0.4090
17677TIP3    H174446   5.185   1.354   1.607  0.4735 -1.8884 -1.7304
17677TIP3    H274447   5.140   1.461   1.509  0.5104  0.9071  1.1421
17678TIP3   OH274448   2.575   6.026   4.078  0.2640 -0.0982 -0.0076
17678TIP3    H174449   2.627   5.946   4.071  0.2720 -0.0706 -0.2468
17678TIP3    H274450   2.518   6.010   4.154  1.1606  0.1786  0.7429
17679TIP3   OH274451   2.966   6.419   4.986 -0.2479 -0.3337 -0.1351
17679TIP3    H174452   3.055   6.449   5.001 -0.6759  0.8264  0.1595
17679TIP3    H274453   2.955   6.344   5.044  0.7794 -0.9721 -0.7443
17680TIP3   OH274454   4.779   4.649   1.839  0.2731  0.4429 -0.3878
17680TIP3    H174455   4.698   4.604   1.861  1.4264 -1.1760  0.7825
17680TIP3    H274456   4.795   4.709   1.912  1.6148 -1.4400  0.9727
17681TIP3   OH274457   3.945   0.125  14.808  0.1521 -0.1866  0.8060
17681TIP3    H174458   3.853   0.099  14.815  0.0030  0.2917  0.6920
17681TIP3    H274459   3.994   0.052  14.846 -0.2606 -0.5467  0.6533
17682TIP3   OH274460   5.807   0.119  13.965  0.0296 -0.6880  0.0891
17682TIP3    H174461   5.720   0.081  13.977 -0.0404 -0.1766  1.2987
17682TIP3    H274462   5.860   0.080  14.035  0.3117  0.3381  0.4668
17683TIP3   OH274463   6.078   2.880   3.713 -0.4354  0.3390  0.0789
17683TIP3    H174464   6.163   2.924   3.702 -0.2138  0.0160  0.4840
17683TIP3    H274465   6.087   2.798   3.664 -0.5000  0.2857  0.1564
17684TIP3   OH274466   1.178   3.629  11.724 -0.1962 -0.2655  0.5827
17684TIP3    H174467   1.117   3.677  11.667 -1.5327 -1.5494  0.8647
17684TIP3    H274468   1.156   3.658  11.812  0.4712  0.1906  0.6064
17685TIP3   OH274469   5.548   5.514   0.476  0.4733 -0.2336  0.0764
17685TIP3    H174470   5.629   5.565   0.467  0.8677 -0.7741  0.5392
17685TIP3    H274471   5.529   5.485   0.387 -0.1913  1.3691 -0.3329
17686TIP3   OH274472   0.946   5.475   6.007 -0.0511  0.1954 -0.2105
17686TIP3    H174473   0.892   5.534   6.059 -0.0574  0.0243 -0.0228
17686TIP3    H274474   1.025   5.462   6.058  0.4487  0.9390 -0.7679
17687TIP3   OH274475   3.365   2.883   2.301  0.5007 -0.4031 -0.1683
17687TIP3    H174476   3.273   2.893   2.328  0.2888  0.0009 -0.9951
17687TIP3    H274477   3.367   2.918   2.212  1.7571  0.9105  0.3396
17688TIP3   OH274478   1.039   5.580   1.981  0.0073  0.2777 -0.3981
17688TIP3    H174479   1.002   5.533   2.056 -1.7883 -1.7910 -2.4659
17688TIP3    H274480   0.964   5.621   1.939  0.7335 -0.0384 -2.0571
17689TIP3   OH274481   5.698   2.204   0.745  0.0759  0.4914 -0.8140
17689TIP3    H174482   5.779   2.202   0.797  0.0236  0.9805 -0.7126
17689TIP3    H274483   5.723   2.245   0.663  0.4091 -1.2463 -1.6322
17690TIP3   OH274484   3.732   2.098   1.185 -0.0331 -0.3041 -0.3564
17690TIP3    H174485   3.766   2.164   1.125  1.2347 -1.4806 -0.9914
17690TIP3    H274486   3.698   2.147   1.259  0.5669  1.0593 -0.9620
17691TIP3   OH274487   2.955   5.133   4.066  0.5092 -0.0112  0.2238
17691TIP3    H174488   2.878   5.138   4.008  0.4775 -0.6723  0.2090
17691TIP3    H274489   3.030   5.131   4.007  0.5478  0.6499  0.2386
17692TIP3   OH274490   5.485   2.528   3.457 -0.5325 -0.3575  0.1445
17692TIP3    H174491   5.534   2.510   3.376 -1.0200  0.8057 -0.4210
17692TIP3    H274492   5.468   2.622   3.455 -0.2726 -0.2497  1.7766
17693TIP3   OH274493   6.674   6.234  15.901  0.1536 -0.0512  0.3579
17693TIP3    H174494   6.756   6.184  15.908  0.8263  0.9778  0.0719
17693TIP3    H274495   6.689   6.294  15.828 -0.6140  0.6092  0.7264
17694TIP3   OH274496   4.108   3.100  11.915 -0.1655  0.2032 -0.4602
17694TIP3    H174497   4.118   3.010  11.945  1.4089 -0.2239 -2.0933
17694TIP3    H274498   4.036   3.098  11.853  0.5836 -0.1841 -1.3350
17695TIP3   OH274499   3.463   3.485  13.130 -0.4103  0.1358 -0.6662
17695TIP3    H174500   3.384   3.538  13.143 -0.5202 -0.4008  1.1501
17695TIP3    H274501   3.454   3.448  13.042 -2.1059  0.2149 -0.5455
17696TIP3   OH274502   3.391   3.351  17.000  0.2659  0.2326  0.6110
17696TIP3    H174503   3.440   3.431  16.981  0.9973 -0.2007  0.6169
17696TIP3    H274504   3.305   3.366  16.961  0.8705  0.4398 -0.7256
17697TIP3   OH274505   1.020   3.351   0.316 -0.4127 -0.4460  0.4398
17697TIP3    H174506   1.055   3.285   0.257  0.2586 -0.1039  0.4449
17697TIP3    H274507   1.059   3.433   0.286 -1.4333 -0.0116  0.2795
17698TIP3   OH274508   0.019   4.308  11.153  0.0992  0.3224 -0.2376
17698TIP3    H174509   0.008   4.234  11.212  2.0223  0.0311 -0.1777
17698TIP3    H274510   0.080   4.367  11.198  0.9685  0.4788 -1.5554
17699TIP3   OH274511   5.510   4.454   2.754  0.2956  0.0698  0.3459
17699TIP3    H174512   5.421   4.424   2.734  0.7878 -1.9772  0.9901
17699TIP3    H274513   5.499   4.545   2.782 -1.6751 -0.3212  0.9796
17700TIP3   OH274514   5.391   2.190  12.375  0.2895 -0.2364  0.5062
17700TIP3    H174515   5.380   2.101  12.340 -0.6064  0.6104 -1.5421
17700TIP3    H274516   5.318   2.239  12.337 -0.0340  1.0888  2.7019
17701TIP3   OH274517   6.685   3.555  13.132 -0.1780 -0.1596 -0.0790
17701TIP3    H174518   6.702   3.634  13.080 -0.3101  0.0933  0.2516
17701TIP3    H274519   6.686   3.587  13.223  1.0704 -0.7682  0.1385
17702TIP3   OH274520   3.669   6.338   5.930  0.0257 -0.5913  0.0590
17702TIP3    H174521   3.606   6.268   5.916  0.4424 -0.9065 -0.2447
17702TIP3    H274522   3.680   6.341   6.025 -1.5829  0.4790  0.2521
17703TIP3   OH274523   0.483   0.541   2.066  0.2449  0.0097  0.5015
17703TIP3    H174524   0.395   0.508   2.049 -1.0280  3.1338  0.3437
17703TIP3    H274525   0.504   0.510   2.154 -2.2713  1.4743  1.7273
17704TIP3   OH274526   5.649   2.568   0.320  0.3638  0.7484  0.3011
17704TIP3    H174527   5.616   2.657   0.316  1.8263  1.2756 -0.7348
17704TIP3    H274528   5.723   2.566   0.259  1.7812 -0.5630  1.9527
17705TIP3   OH274529   2.412   4.777   0.020  0.1443 -0.0276 -0.2448
17705TIP3    H174530   2.334   4.832   0.011  1.5467  1.8781 -1.4814
17705TIP3    H274531   2.387   4.694  -0.020 -0.7370  1.1523 -2.3257
17706TIP3   OH274532   3.478   3.061   3.741  0.0302 -0.2423 -0.5414
17706TIP3    H174533   3.435   3.147   3.747 -0.6019 -0.4584 -1.6703
17706TIP3    H274534   3.542   3.061   3.812 -0.4967  0.8622 -0.0444
17707TIP3   OH274535   1.800   3.816  11.046  0.0492  0.3333 -0.0192
17707TIP3    H174536   1.825   3.843  11.134  0.1009  2.5195 -0.6590
17707TIP3    H274537   1.847   3.875  10.988 -3.2362  1.8464 -1.3987
17708TIP3   OH274538   5.635   3.370  15.527  0.0234  0.1081  0.1309
17708TIP3    H174539   5.581   3.325  15.592  0.1144 -0.6778 -0.3387
17708TIP3    H274540   5.609   3.462  15.535 -0.8643 -0.1556  0.4090
17709TIP3   OH274541   1.858   2.074   3.601  0.0676  0.6280  0.4452
17709TIP3    H174542   1.932   2.013   3.600  1.8637  2.6742  1.5819
17709TIP3    H274543   1.807   2.049   3.678 -0.7101 -1.0511 -0.5693
17710TIP3   OH274544   0.228   5.575   0.611  0.1141 -0.3507  0.6095
17710TIP3    H174545   0.300   5.634   0.633  0.0285  0.1971 -0.4936
17710TIP3    H274546   0.247   5.546   0.521 -0.4311 -1.1231  0.7312
17711TIP3   OH274547   2.698   1.247   2.641 -0.7505  0.0574  0.0259
17711TIP3    H174548   2.682   1.153   2.631 -1.1982 -0.0258  1.3424
17711TIP3    H274549   2.706   1.279   2.552 -1.5101 -1.0776 -0.4820
17712TIP3   OH274550   3.014   1.249  12.149  0.1258  0.9285  0.0472
17712TIP3    H174551   3.075   1.262  12.077 -0.3025  0.0105 -0.5051
17712TIP3    H274552   2.939   1.305  12.128 -0.6578 -0.4494 -1.0486
17713TIP3   OH274553   6.251   3.869  16.392  0.6167 -0.0812 -0.1553
17713TIP3    H174554   6.204   3.821  16.460 -0.4896 -0.4523 -1.1557
17713TIP3    H274555   6.261   3.805  16.321 -0.2559  0.9445 -1.2303
17714TIP3   OH274556   5.211   1.234  13.522 -0.1588 -0.1908  0.0020
17714TIP3    H174557   5.265   1.313  13.527  0.3525 -0.5648  0.5362
17714TIP3    H274558   5.132   1.261  13.475  0.7923  0.1986 -1.4512
17715TIP3   OH274559   5.094   3.341  13.154 -0.0909  0.0143  0.4254
17715TIP3    H174560   5.146   3.263  13.175 -0.9665 -0.8525 -0.5024
17715TIP3    H274561   5.079   3.335  13.059  0.0801  1.4919  0.2751
17716TIP3   OH274562   2.670   5.994  15.740 -0.0980  0.2029  0.1538
17716TIP3    H174563   2.640   5.967  15.653  2.2016  0.7240 -0.8880
17716TIP3    H274564   2.631   6.081  15.752 -1.1444 -0.2434  0.0387
17717TIP3   OH274565   6.584   1.942   3.072 -0.6206  0.3398 -0.6533
17717TIP3    H174566   6.559   1.871   3.012 -0.1675  1.2189 -1.9399
17717TIP3    H274567   6.668   1.973   3.038 -0.0932  0.5204  0.7814
17718TIP3   OH274568   4.396   5.052   2.360 -0.2193  0.1440  0.0754
17718TIP3    H174569   4.302   5.042   2.373 -0.7054  3.5303  0.0267
17718TIP3    H274570   4.427   5.097   2.438  1.3061 -0.4703 -0.1330
17719TIP3   OH274571   2.822   5.017   5.821  0.2121 -0.0829 -0.0147
17719TIP3    H174572   2.866   5.035   5.738 -3.0022  0.2872 -1.8222
17719TIP3    H274573   2.767   4.941   5.802 -3.0340  1.8981  0.6571
17720TIP3   OH274574   5.973   5.904   1.827 -0.1238  0.3915 -0.7348
17720TIP3    H174575   6.029   5.942   1.895 -0.1923  2.2299 -1.6312
17720TIP3    H274576   5.923   5.837   1.872 -1.5332  2.7963  1.5851
17721TIP3   OH274577   6.430   6.626  15.064 -0.2336  0.3422 -0.3182
17721TIP3    H174578   6.367   6.680  15.015 -1.6203 -0.1790  0.8136
17721TIP3    H274579   6.377   6.556  15.101  1.2518 -0.8204 -0.3221
17722TIP3   OH274580   2.671   5.056   0.429 -0.0763 -0.1175  0.2685
17722TIP3    H174581   2.586   5.019   0.454  0.6155 -0.6007  2.0666
17722TIP3    H274582   2.649   5.141   0.392 -1.3448 -0.1266  0.9092
17723TIP3   OH274583   2.574   4.028   0.528 -0.1629 -0.3653  0.7630
17723TIP3    H174584   2.484   4.031   0.497 -0.6993  1.7330  2.2851
17723TIP3    H274585   2.612   4.111   0.499  1.5981 -1.5527 -0.5777
17724TIP3   OH274586   0.111   4.930   3.699  0.1811  0.2703  0.0555
17724TIP3    H174587   0.160   4.972   3.769 -2.4453 -0.2034  2.3711
17724TIP3    H274588   0.034   4.986   3.687 -0.5108 -0.8362 -0.8711
17725TIP3   OH274589   5.528   5.726  15.562  0.5478  0.2045 -0.7846
17725TIP3    H174590   5.527   5.809  15.515 -2.0213  1.3580  1.0527
17725TIP3    H274591   5.608   5.729  15.615  1.4651  0.6029 -2.1500
17726TIP3   OH274592   1.941   1.769   6.546  0.1704 -0.4823  0.5420
17726TIP3    H174593   1.917   1.758   6.638 -2.2315  1.7861  0.2926
17726TIP3    H274594   1.861   1.750   6.497  1.0336 -0.3470 -0.9938
17727TIP3   OH274595   4.361   0.454   1.662  0.0510  0.5105  0.1375
17727TIP3    H174596   4.325   0.536   1.626  0.9952  1.2298  0.8025
17727TIP3    H274597   4.449   0.477   1.690 -0.9573  0.2929  3.9521
17728TIP3   OH274598   3.213   5.543  16.606 -0.3560  0.3077  0.0176
17728TIP3    H174599   3.149   5.525  16.675 -0.2432 -1.9665 -0.3988
17728TIP3    H274600   3.298   5.528  16.648 -0.2878 -1.0686 -0.5562
17729TIP3   OH274601   3.141   6.038   1.310  0.6636 -0.3139 -0.5641
17729TIP3    H174602   3.066   6.093   1.287  0.2572 -0.6547 -0.0589
17729TIP3    H274603   3.112   5.949   1.289  1.4076 -0.3337 -1.6215
17730TIP3   OH274604   6.388   1.187   0.634  0.3286  0.5215  0.3134
17730TIP3    H174605   6.317   1.135   0.672  0.7183 -0.1494  0.1373
17730TIP3    H274606   6.383   1.272   0.679  1.1639 -0.4298  2.3273
17731TIP3   OH274607   2.248   5.883  13.197 -0.1987 -0.4831 -0.3561
17731TIP3    H174608   2.254   5.789  13.217 -0.1977 -0.2654  0.7238
17731TIP3    H274609   2.154   5.899  13.188 -0.3819 -0.1956  1.5875
17732TIP3   OH274610   3.221   0.793  13.155  0.2005  0.4835 -0.5350
17732TIP3    H174611   3.166   0.869  13.172  0.4810  0.8602 -1.2633
17732TIP3    H274612   3.163   0.731  13.111 -0.2352 -0.0553  0.7536
17733TIP3   OH274613   4.433   2.508  14.346 -0.3571 -0.1587 -0.1850
17733TIP3    H174614   4.450   2.490  14.254  3.6295 -1.5183  0.6231
17733TIP3    H274615   4.376   2.437  14.374 -0.4536 -0.5360 -1.2877
17734TIP3   OH274616   4.058   4.493  10.593  0.8838 -0.0440  0.0632
17734TIP3    H174617   3.980   4.452  10.556  0.1895  0.4331  0.9664
17734TIP3    H274618   4.129   4.432  10.573  0.4619 -0.0424 -1.5927
17735TIP3   OH274619   3.903   5.292   4.247 -0.2074  0.3042  0.1955
17735TIP3    H174620   3.976   5.237   4.219  0.8688  1.2222  1.0774
17735TIP3    H274621   3.849   5.302   4.169  1.1825  0.4733 -0.7965
17736TIP3   OH274622   0.310   4.225  12.321 -0.4429  0.6296 -0.2864
17736TIP3    H174623   0.344   4.292  12.262 -1.1641  0.8660 -0.4457
17736TIP3    H274624   0.386   4.197  12.373 -0.0443  1.2304 -0.5392
17737TIP3   OH274625   4.319   0.027  14.907  0.0613  0.0841 -0.2459
17737TIP3    H174626   4.368  -0.003  14.831 -2.0074 -1.3519 -1.1055
17737TIP3    H274627   4.234  -0.017  14.900 -1.2848  2.2230  1.2838
17738TIP3   OH274628   5.627   3.140   3.105  0.1867  0.4090  0.1063
17738TIP3    H174629   5.636   3.216   3.048  0.8625 -0.6940 -1.3167
17738TIP3    H274630   5.713   3.129   3.144  0.1423  0.2394  0.1567
17739TIP3   OH274631   3.168   1.463   1.486  0.4654 -0.5506 -0.0605
17739TIP3    H174632   3.105   1.404   1.444  0.9894 -0.9232 -0.3358
17739TIP3    H274633   3.247   1.455   1.433  0.6001  0.2803 -0.0055
17740TIP3   OH274634   1.718   1.856  10.781  0.3230 -0.0434  0.1127
17740TIP3    H174635   1.794   1.896  10.824 -0.8684  0.2137  2.0913
17740TIP3    H274636   1.741   1.763  10.774 -0.2649 -0.5462  3.4178
17741TIP3   OH274637   6.284   1.692  12.263  0.2158 -0.8724 -0.1961
17741TIP3    H174638   6.277   1.696  12.358  1.4914 -1.5563 -0.0380
17741TIP3    H274639   6.304   1.781  12.236  3.5120 -1.2272  0.6110
17742TIP3   OH274640   5.072   4.477   0.059 -0.1369 -0.0679  0.0321
17742TIP3    H174641   4.988   4.505   0.095  0.4689  0.7203  0.8668
17742TIP3    H274642   5.136   4.499   0.127  0.8626  0.1680 -0.9564
17743TIP3   OH274643   3.803   2.373   1.947 -0.1285 -0.1109 -0.0851
17743TIP3    H174644   3.789   2.366   2.042 -0.1978 -0.4826 -0.1213
17743TIP3    H274645   3.898   2.379   1.938 -0.1779  1.1064  0.0787
17744TIP3   OH274646   4.814   6.606   3.574 -0.2088 -0.0298 -0.1785
17744TIP3    H174647   4.865   6.611   3.493 -2.3508  1.0211 -1.5648
17744TIP3    H274648   4.867   6.654   3.638  2.1219 -1.9293 -0.5232
17745TIP3   OH274649   2.227   4.104  13.878  0.7180  0.4293 -0.3360
17745TIP3    H174650   2.178   4.109  13.959  0.4995  0.9124 -0.4936
17745TIP3    H274651   2.316   4.080  13.905  0.8272  1.2853  0.1213
17746TIP3   OH274652   1.418   0.878   0.597  0.4609  0.3384  0.5342
17746TIP3    H174653   1.377   0.834   0.523  0.6026  2.1818 -0.7015
17746TIP3    H274654   1.372   0.961   0.604  2.2040  1.3362  0.8017
17747TIP3   OH274655   2.440   0.299   0.352 -0.1566 -0.3919  0.1062
17747TIP3    H174656   2.375   0.368   0.362  0.8976  0.5686  0.5030
17747TIP3    H274657   2.466   0.278   0.442  1.5161  0.6653 -0.0888
17748TIP3   OH274658   3.334   0.776  16.949  0.1074  0.4830 -0.5637
17748TIP3    H174659   3.400   0.797  17.016  1.2743  0.2886 -1.6131
17748TIP3    H274660   3.295   0.860  16.926  1.5271  0.9347 -1.4563
17749TIP3   OH274661   6.280   5.482  11.926 -0.3033 -0.9666 -0.6472
17749TIP3    H174662   6.353   5.528  11.884 -0.8939 -0.0599 -0.7048
17749TIP3    H274663   6.216   5.551  11.945 -0.7265 -1.5965  0.2998
17750TIP3   OH274664   0.156   4.412  17.174  0.0806  0.1143 -0.0699
17750TIP3    H174665   0.251   4.398  17.175  0.0383 -0.1270  1.0233
17750TIP3    H274666   0.126   4.365  17.096  0.9265  0.7336 -0.8038
17751TIP3   OH274667   4.274   1.233  13.870 -0.1227  0.2639  0.2692
17751TIP3    H174668   4.279   1.141  13.896 -2.4516  0.1106  0.4395
17751TIP3    H274669   4.321   1.237  13.786 -2.8799 -1.9434 -1.5934
17752TIP3   OH274670   4.233   1.035  11.076 -0.1065  0.4325 -0.3061
17752TIP3    H174671   4.223   0.942  11.055  0.1163  0.7157 -1.8045
17752TIP3    H274672   4.233   1.078  10.990 -1.6725  1.9674  0.4278
17753TIP3   OH274673   5.627   6.566   0.344  0.2592 -0.2930 -0.1544
17753TIP3    H174674   5.634   6.578   0.249 -1.4377 -0.0169 -0.2699
17753TIP3    H274675   5.687   6.494   0.363  1.5682  0.4429 -1.2238
17754TIP3   OH274676   2.274   6.208   0.938  0.3547 -0.0044 -0.6035
17754TIP3    H174677   2.361   6.248   0.940  1.1701 -1.6356 -1.3539
17754TIP3    H274678   2.254   6.190   1.030  0.4835  1.0238 -0.3668
17755TIP3   OH274679   3.932   1.467  12.989  0.2436 -0.4147 -0.9105
17755TIP3    H174680   3.871   1.425  13.049  1.1427 -1.2789 -0.5639
17755TIP3    H274681   3.892   1.457  12.902 -1.7364  2.0723 -0.3689
17756TIP3   OH274682   1.482   3.388   1.923 -0.1991 -0.4957  0.2713
17756TIP3    H174683   1.469   3.379   2.018 -0.7189 -2.3045  0.0570
17756TIP3    H274684   1.568   3.349   1.908 -0.0680 -0.1041  0.0099
17757TIP3   OH274685   5.342   6.486   2.321 -0.2037 -0.0934  0.0944
17757TIP3    H174686   5.324   6.547   2.249 -0.2974 -0.1434  0.0757
17757TIP3    H274687   5.386   6.540   2.387  0.7800 -0.2600 -0.4033
17758TIP3   OH274688   4.963   2.521   2.629  0.3497 -0.3692  0.4127
17758TIP3    H174689   4.915   2.455   2.578  0.3047  0.3426 -0.4865
17758TIP3    H274690   5.055   2.504   2.609  0.2817  0.6878 -0.9188
17759TIP3   OH274691   2.116   6.270   2.493 -0.0658 -0.8781 -0.1434
17759TIP3    H174692   2.057   6.220   2.438  1.3016 -0.9504 -1.6271
17759TIP3    H274693   2.105   6.361   2.464  0.4426 -0.8721 -0.3229
17760TIP3   OH274694   5.422   2.243  15.608  0.7055  0.3842 -0.0459
17760TIP3    H174695   5.424   2.329  15.565  1.9686  0.6608  0.5035
17760TIP3    H274696   5.422   2.263  15.701 -0.2607 -0.2216  0.0923
17761TIP3   OH274697   3.980   1.015  10.897 -0.3365  0.4655 -0.0156
17761TIP3    H174698   3.921   1.068  10.952 -0.5503 -0.6238  0.8549
17761TIP3    H274699   3.925   0.943  10.865  0.5212 -0.7126  1.0111
17762TIP3   OH274700   3.293   3.271   3.757  0.1984 -0.1215 -0.5366
17762TIP3    H174701   3.320   3.357   3.725 -0.6719  0.9873  1.4864
17762TIP3    H274702   3.209   3.254   3.714 -0.8201  1.2139  0.8201
17763TIP3   OH274703   1.070   4.059  16.545  0.6827  0.0660 -0.1475
17763TIP3    H174704   1.128   4.133  16.563  1.5373 -0.3324 -1.1673
17763TIP3    H274705   1.127   3.982  16.553 -0.2609 -0.5198  1.2112
17764TIP3   OH274706   4.327   3.094  14.062  0.1876 -0.2866  0.1287
17764TIP3    H174707   4.381   3.173  14.053 -0.4954  0.0653 -1.1080
17764TIP3    H274708   4.324   3.057  13.974 -1.6720 -0.2463  0.1416
17765TIP3   OH274709   0.659   2.413  12.930  0.3305  0.0278 -0.1720
17765TIP3    H174710   0.696   2.412  12.842  2.2502  0.7409  0.5721
17765TIP3    H274711   0.735   2.423  12.988 -0.9371  0.2869  1.5271
17766TIP3   OH274712   4.313   0.806   0.609 -0.3204  0.8018 -0.0579
17766TIP3    H174713   4.311   0.896   0.643  0.6962  0.2558  1.5743
17766TIP3    H274714   4.222   0.779   0.607 -0.5827  1.6356  0.0951
17767TIP3   OH274715   2.610   6.328  10.955 -0.4435  0.8226  0.0873
17767TIP3    H174716   2.559   6.409  10.963 -0.4829  0.7999  0.0689
17767TIP3    H274717   2.701   6.355  10.967 -0.4637  0.8577  0.1556
17768TIP3   OH274718   2.865   3.031  11.484 -0.0496 -0.3631 -0.3603
17768TIP3    H174719   2.843   3.094  11.415  1.6608 -0.5822 -1.1699
17768TIP3    H274720   2.957   3.011  11.468 -0.0539 -1.6156  1.0642
17769TIP3   OH274721   0.114   5.221  11.013 -0.2380 -0.3568  0.7692
17769TIP3    H174722   0.164   5.303  11.017  1.2154 -1.1864  0.2961
17769TIP3    H274723   0.027   5.244  11.045 -0.6434  1.9582 -1.6479
17770TIP3   OH274724   4.644   2.741  14.343  0.2564  0.0922  0.0218
17770TIP3    H174725   4.581   2.789  14.397  1.5989  1.9367  0.0325
17770TIP3    H274726   4.590   2.694  14.279 -1.1656  0.7274  0.7133
17771TIP3   OH274727   0.117   1.165   6.040 -0.1255 -0.2263 -0.3324
17771TIP3    H174728   0.036   1.204   6.006  1.0705  0.7660 -2.1839
17771TIP3    H274729   0.127   1.084   5.990  0.3371 -0.0324 -0.5591
17772TIP3   OH274730   5.228   2.511  12.042 -0.0762  0.1938  0.0964
17772TIP3    H174731   5.185   2.540  12.122  0.0827  0.7058  0.0007
17772TIP3    H274732   5.269   2.590  12.006  0.4156 -0.1606 -0.1403
17773TIP3   OH274733   4.645   3.250  16.499 -0.0471  0.0582 -0.4557
17773TIP3    H174734   4.644   3.161  16.465  1.4133  0.1999 -0.9764
17773TIP3    H274735   4.578   3.296  16.448  1.1184 -0.0828 -2.2354
17774TIP3   OH274736   2.632   3.364  16.755 -0.5019  0.2399 -0.0156
17774TIP3    H174737   2.622   3.447  16.707  0.4268  1.0821  1.1666
17774TIP3    H274738   2.558   3.363  16.816 -0.8459 -0.1031 -0.4325
17775TIP3   OH274739   1.070   3.238  12.337  0.4939  0.3013 -0.2715
17775TIP3    H174740   1.058   3.150  12.374 -1.3904  0.0039 -1.4108
17775TIP3    H274741   1.066   3.296  12.413 -2.1813 -0.3558  0.2017
17776TIP3   OH274742   0.311   3.481  14.612 -0.1750  0.3075  0.2935
17776TIP3    H174743   0.231   3.451  14.568  0.9088 -1.0492 -0.8558
17776TIP3    H274744   0.330   3.412  14.675  0.6690  0.0679 -0.2113
17777TIP3   OH274745   0.492   1.054   1.648 -0.3789 -0.5076  0.2042
17777TIP3    H174746   0.468   1.116   1.717  0.7372 -0.5814  0.6765
17777TIP3    H274747   0.466   1.097   1.567  0.7609  0.7805  0.4939
17778TIP3   OH274748   6.719   2.396  14.583  0.1008 -0.3813 -0.8575
17778TIP3    H174749   6.638   2.446  14.576  0.6653  0.5687 -0.8597
17778TIP3    H274750   6.785   2.461  14.607  1.0705 -0.9490 -1.8913
17779TIP3   OH274751   3.698   3.059   3.964  0.2609 -0.3011 -0.7367
17779TIP3    H174752   3.645   3.042   4.042 -2.4762  0.0949 -2.3885
17779TIP3    H274753   3.700   3.155   3.957 -1.7933 -0.2981 -2.4717
17780TIP3   OH274754   2.403   4.676   2.351  0.7076 -1.2243 -0.2445
17780TIP3    H174755   2.318   4.631   2.360 -0.1505  0.1291 -1.2299
17780TIP3    H274756   2.457   4.639   2.421 -1.1481 -1.0996  1.3207
17781TIP3   OH274757   5.278   1.526  15.211 -0.6931 -0.0258 -0.0462
17781TIP3    H174758   5.266   1.578  15.291  2.0031 -0.6827  0.9032
17781TIP3    H274759   5.356   1.564  15.170 -1.0888 -0.7497 -1.5169
17782TIP3   OH274760   0.610   5.338   5.377  0.0825  0.3666 -0.0333
17782TIP3    H174761   0.647   5.418   5.341 -0.0184  0.5348  0.2359
17782TIP3    H274762   0.646   5.268   5.323 -0.8509  0.6886 -1.1082
17783TIP3   OH274763   2.418   6.588   3.126  0.2155 -0.1628 -0.3719
17783TIP3    H174764   2.491   6.644   3.152  1.8282 -1.8970 -0.8972
17783TIP3    H274765   2.357   6.590   3.200  1.4055  0.3335  0.6228
17784TIP3   OH274766   1.924   5.634  11.343 -0.4418  0.4444  0.3561
17784TIP3    H174767   1.989   5.660  11.278 -0.7988  2.0060  0.5912
17784TIP3    H274768   1.854   5.594  11.292 -0.7008  1.6229 -0.2340
17785TIP3   OH274769   2.776   0.254  12.322  0.1945  0.4593 -0.4154
17785TIP3    H174770   2.855   0.251  12.268  0.6013 -0.7978  0.2045
17785TIP3    H274771   2.807   0.286  12.407  0.0018  0.1892 -0.2414
17786TIP3   OH274772   6.647   1.889  12.235 -0.1079 -0.2291  0.4158
17786TIP3    H174773   6.568   1.898  12.181  0.0795  0.0486  0.1878
17786TIP3    H274774   6.701   1.964  12.211  0.6027 -0.8916 -0.0542
17787TIP3   OH274775   0.534   0.051   4.533  0.3189  0.0751 -0.0335
17787TIP3    H174776   0.602   0.055   4.601 -0.2331 -3.3130  0.8878
17787TIP3    H274777   0.546  -0.034   4.492 -0.7264  1.1592 -2.8342
17788TIP3   OH274778   6.386   5.650   4.741 -0.3970  0.9444  0.4062
17788TIP3    H174779   6.412   5.582   4.679 -1.2420  2.2848 -1.5342
17788TIP3    H274780   6.322   5.607   4.798 -1.7302  0.3232 -1.4469
17789TIP3   OH274781   2.882   4.665   2.968  0.1097 -0.3824 -0.0588
17789TIP3    H174782   2.800   4.709   2.989 -0.3230 -0.3955 -1.5582
17789TIP3    H274783   2.855   4.580   2.932  0.7827 -0.4771 -0.3596
17790TIP3   OH274784   1.370   0.979  16.660  0.4556 -0.0373 -0.1015
17790TIP3    H174785   1.300   1.039  16.634  0.0596 -1.1079 -1.6223
17790TIP3    H274786   1.415   1.024  16.732 -1.4618  0.9053  0.5692
17791TIP3   OH274787   4.480   1.601   1.323 -0.2153 -0.5209 -0.1310
17791TIP3    H174788   4.459   1.669   1.259  0.4080 -1.0885 -0.9645
17791TIP3    H274789   4.417   1.531   1.306 -2.8199  0.9149  2.6431
17792TIP3   OH274790   1.242   2.559   2.452  0.3798 -0.0002 -0.0390
17792TIP3    H174791   1.275   2.618   2.520  1.5969  0.2767 -0.8473
17792TIP3    H274792   1.269   2.600   2.369 -2.0014  0.2546 -0.7816
17793TIP3   OH274793   4.767   0.076  16.166  0.1704  0.0735  0.0408
17793TIP3    H174794   4.700   0.049  16.229 -0.5336  0.8340 -0.3607
17793TIP3    H274795   4.750   0.169  16.152  1.9222  0.5101  0.6523
17794TIP3   OH274796   5.654   4.356   4.892  0.0398  0.8693 -0.0540
17794TIP3    H174797   5.697   4.440   4.907 -0.8176  1.0331  1.8477
17794TIP3    H274798   5.596   4.345   4.968 -2.3020  0.0680 -1.8307
17795TIP3   OH274799   2.527   1.821   4.629 -0.2032 -0.2240  0.4626
17795TIP3    H174800   2.543   1.895   4.571 -2.6315  3.1963  3.6706
17795TIP3    H274801   2.449   1.778   4.593  0.9970 -1.0922 -1.2098
17796TIP3   OH274802   0.150   4.500  14.572 -0.4654  0.4028  0.3919
17796TIP3    H174803   0.100   4.487  14.491  1.9898  0.9501 -1.3321
17796TIP3    H274804   0.117   4.583  14.607 -1.3567  0.3126 -0.1833
17797TIP3   OH274805   2.433   3.354  10.953 -0.5864 -0.2287  0.0784
17797TIP3    H174806   2.509   3.401  10.921 -0.1945 -0.7914  0.1766
17797TIP3    H274807   2.359   3.390  10.903 -0.3264  0.6335  0.2997
17798TIP3   OH274808   6.190   0.824  16.900  0.3075 -0.4937  0.2163
17798TIP3    H174809   6.192   0.728  16.897  0.6974 -0.4826  0.0072
17798TIP3    H274810   6.277   0.850  16.871  0.7512 -0.1092  1.7895
17799TIP3   OH274811   5.117   1.994  12.327  0.7198  0.0634  0.3884
17799TIP3    H174812   5.124   2.063  12.262 -0.9009  0.0743  0.1909
17799TIP3    H274813   5.124   1.913  12.277  0.2815  0.0781  0.2990
17800TIP3   OH274814   0.001   5.137   1.900 -0.0258  0.6999  0.6258
17800TIP3    H174815   0.058   5.185   1.960 -0.4959  1.2299  0.6561
17800TIP3    H274816  -0.074   5.195   1.887 -0.8374 -0.2331  1.0540
17801TIP3   OH274817   0.238   2.547  12.729  0.0696 -0.4371  0.0017
17801TIP3    H174818   0.288   2.604  12.787 -0.0212 -1.7242  1.3970
17801TIP3    H274819   0.197   2.483  12.787 -1.9098 -0.3951 -1.2685
17802TIP3   OH274820   0.469   3.991   3.449 -0.2691  0.5451 -0.4435
17802TIP3    H174821   0.395   4.052   3.441  0.5267  1.3269 -2.5852
17802TIP3    H274822   0.505   3.985   3.361  1.2830 -1.0541  0.2296
17803TIP3   OH274823   3.447   3.669  17.165 -0.0285 -0.1453  0.0126
17803TIP3    H174824   3.428   3.760  17.142 -0.8819 -0.2828  0.1490
17803TIP3    H274825   3.477   3.630  17.082 -0.8410 -0.0456 -0.3398
17804TIP3   OH274826   2.698   0.259  11.508 -0.4121 -0.0951  0.2860
17804TIP3    H174827   2.658   0.207  11.439 -1.2009  0.6991  0.1244
17804TIP3    H274828   2.659   0.226  11.589  0.2477 -0.7851  0.3336
17805TIP3   OH274829   5.839   5.952  12.027 -0.3881  0.0689  0.1168
17805TIP3    H174830   5.869   5.887  11.963 -1.1010  0.1917 -0.3609
17805TIP3    H274831   5.860   6.036  11.988 -0.9988  0.1481 -0.0496
17806TIP3   OH274832   2.000   3.474  13.839 -0.2180 -0.9725  0.4204
17806TIP3    H174833   2.060   3.530  13.789  0.7607 -1.6422  0.8288
17806TIP3    H274834   1.934   3.446  13.775 -0.7657  0.6669  0.2124
17807TIP3   OH274835   2.925   6.173   3.698  0.1186 -0.1686 -0.3951
17807TIP3    H174836   2.933   6.082   3.726 -0.8066 -0.3548 -0.6760
17807TIP3    H274837   2.830   6.188   3.694  0.2423  1.2386  1.0375
17808TIP3   OH274838   2.213   1.378  16.634  0.5954 -0.0823 -0.3911
17808TIP3    H174839   2.200   1.304  16.575  0.5460 -1.7695  1.6202
17808TIP3    H274840   2.124   1.403  16.660  0.6663 -0.1637 -0.0735
17809TIP3   OH274841   3.278   0.918  12.488  0.0261 -0.2686  0.5754
17809TIP3    H174842   3.295   0.881  12.575 -0.1271  1.6333  1.4609
17809TIP3    H274843   3.363   0.951  12.459  0.0283 -0.6922  0.0813
17810TIP3   OH274844   5.505   5.014  13.781 -0.1717 -0.1276  0.0883
17810TIP3    H174845   5.482   5.081  13.716 -2.9330 -3.2381 -2.4936
17810TIP3    H274846   5.564   4.955  13.734  2.5152  0.4824  2.4206
17811TIP3   OH274847   1.273   5.809  15.379 -0.1988  0.9441 -0.4748
17811TIP3    H174848   1.353   5.834  15.426  1.0602 -0.9750 -1.4425
17811TIP3    H274849   1.215   5.884  15.389  1.3583  2.0389  1.0670
17812TIP3   OH274850   6.703   1.844   2.844  0.5130  0.1128 -0.0104
17812TIP3    H174851   6.793   1.854   2.874  0.4774  1.2649 -0.2535
17812TIP3    H274852   6.701   1.758   2.802  1.4577  0.0174  0.1298
17813TIP3   OH274853   5.767   3.580  16.257  0.1156  0.7147  0.8726
17813TIP3    H174854   5.773   3.522  16.333 -2.6206 -0.3820  0.3540
17813TIP3    H274855   5.841   3.556  16.202  0.6074 -0.3294  1.9446
17814TIP3   OH274856   6.059   0.736  12.489  0.3748  0.2152 -0.3552
17814TIP3    H174857   6.042   0.731  12.583  0.4654  0.3886 -0.3288
17814TIP3    H274858   6.150   0.707  12.480  0.1507 -0.4844 -0.4692
17815TIP3   OH274859   3.179   4.984  13.639 -0.5182 -0.1236 -0.4667
17815TIP3    H174860   3.156   4.948  13.553 -0.4187 -0.9680 -0.1486
17815TIP3    H274861   3.235   5.059  13.618 -0.4730 -0.3318 -1.1447
17816TIP3   OH274862   0.665   3.461  17.078 -0.1648  0.0027 -0.1308
17816TIP3    H174863   0.614   3.383  17.102 -1.3812  0.2055 -1.8296
17816TIP3    H274864   0.601   3.532  17.077  0.7077  0.8189  0.3048
17817TIP3   OH274865   5.795   2.078   3.883 -0.4406  0.2131  0.5519
17817TIP3    H174866   5.708   2.115   3.871 -0.2192  1.6061  2.6598
17817TIP3    H274867   5.826   2.060   3.795 -2.2321  1.1988 -0.3301
17818TIP3   OH274868   4.024   1.928   5.631 -0.4938 -0.0570  0.3726
17818TIP3    H174869   3.934   1.950   5.607 -0.8718 -0.9214  0.9710
17818TIP3    H274870   4.056   1.873   5.559 -0.7115 -0.4243  0.5620
17819TIP3   OH274871   1.207   6.738  15.156  0.6369  0.4200 -1.1997
17819TIP3    H174872   1.291   6.710  15.193  0.6933 -0.9660 -2.3148
17819TIP3    H274873   1.154   6.659  15.156 -0.5011  1.1651 -1.0312
17820TIP3   OH274874   5.979   5.883   0.437 -0.1095 -0.6763  0.2521
17820TIP3    H174875   5.969   5.914   0.527 -2.7932 -0.8449  0.1049
17820TIP3    H274876   5.972   5.961   0.383 -2.6325 -0.9421  0.0755
17821TIP3   OH274877   5.551   1.148  13.791  0.4146  0.3949  0.1144
17821TIP3    H174878   5.559   1.061  13.751  2.1491  0.2217  0.7481
17821TIP3    H274879   5.535   1.130  13.884 -0.1628  0.7771  0.0943
17822TIP3   OH274880   6.402   4.537  14.612  0.0591 -0.1953  0.1657
17822TIP3    H174881   6.411   4.509  14.521  0.3725  2.7622 -0.8215
17822TIP3    H274882   6.308   4.530  14.629 -0.1576  0.2098 -0.7712
17823TIP3   OH274883   0.212   1.057  16.448  0.1846  0.0845  0.0613
17823TIP3    H174884   0.158   0.980  16.429  0.4812  0.5314 -3.3400
17823TIP3    H274885   0.149   1.128  16.458  0.0078 -0.0861  0.1740
17824TIP3   OH274886   6.003   4.778   2.790  0.2074 -0.4512  0.0211
17824TIP3    H174887   6.069   4.708   2.795 -0.7112 -1.2947  0.8000
17824TIP3    H274888   5.938   4.753   2.855 -1.6313 -0.4254 -1.7250
17825TIP3   OH274889   4.870   2.435  17.150 -0.1839 -0.3635  0.1514
17825TIP3    H174890   4.844   2.523  17.122  1.0877  0.3753  1.1658
17825TIP3    H274891   4.904   2.447  17.239  0.4222 -1.8109  0.1480
17826TIP3   OH274892   2.601   4.994  12.213 -0.4500 -0.3092  0.3259
17826TIP3    H174893   2.666   4.940  12.259  0.4956 -0.4553 -1.1243
17826TIP3    H274894   2.548   4.931  12.164 -0.4773 -0.0521  0.0211
17827TIP3   OH274895   5.700   3.644   5.992  0.2990  0.6461  0.0311
17827TIP3    H174896   5.698   3.641   6.088  2.4079 -0.0851  0.1113
17827TIP3    H274897   5.608   3.651   5.966 -0.2926  1.3603  2.1084
17828TIP3   OH274898   3.198   4.126   3.935  0.1592  0.6282 -0.5147
17828TIP3    H174899   3.122   4.121   3.994 -0.3448  0.5925 -1.1594
17828TIP3    H274900   3.274   4.118   3.993 -0.3436 -0.7981 -0.0131
17829TIP3   OH274901   3.021   0.610   5.734 -0.0084  0.1830 -0.6172
17829TIP3    H174902   2.972   0.534   5.766  1.1516 -0.1447  0.4366
17829TIP3    H274903   3.097   0.616   5.792  0.2350  1.7941 -1.0574
17830TIP3   OH274904   2.787   2.227  13.350 -0.2973 -0.1607 -0.2820
17830TIP3    H174905   2.807   2.301  13.408 -0.0742  0.0444 -0.6183
17830TIP3    H274906   2.696   2.240  13.325 -0.0956  0.3149 -0.7899
17831TIP3   OH274907   2.054   5.147  10.339  0.2078 -0.0122  0.1779
17831TIP3    H174908   2.084   5.109  10.421  0.6555  0.2272  0.1323
17831TIP3    H274909   2.132   5.189  10.302 -0.3865  1.4428  0.5091
17832TIP3   OH274910   6.668   1.864   6.484 -0.3096  0.4411 -0.5531
17832TIP3    H174911   6.684   1.831   6.572  1.4183  1.4026 -0.4529
17832TIP3    H274912   6.573   1.857   6.472 -0.5318 -0.0548  1.2283
17833TIP3   OH274913   0.849   1.569  13.366  0.2644  0.3281  0.4372
17833TIP3    H174914   0.819   1.528  13.285  1.9549  2.2226 -1.2625
17833TIP3    H274915   0.942   1.546  13.372  0.7371  2.0523  0.5351
17834TIP3   OH274916   1.556   2.112  15.996  0.0644 -0.1706 -0.0202
17834TIP3    H174917   1.610   2.190  15.987 -0.1370 -0.1785 -1.8454
17834TIP3    H274918   1.618   2.041  16.013  0.5978 -0.0450 -1.2750
17835TIP3   OH274919   5.739   6.350  11.622 -0.2304  0.4015  0.4416
17835TIP3    H174920   5.685   6.302  11.559 -1.8140  1.6791  0.7367
17835TIP3    H274921   5.678   6.374  11.692  1.0048  0.9071  1.3848
17836TIP3   OH274922   4.145   0.042  11.151 -0.7245 -0.2139  0.0629
17836TIP3    H174923   4.071  -0.011  11.181  1.1306 -2.8406  0.2983
17836TIP3    H274924   4.217   0.017  11.209  0.4855  2.0323 -0.3541
17837TIP3   OH274925   4.030   0.748   6.031  0.2476 -0.2061 -0.1598
17837TIP3    H174926   4.047   0.655   6.043 -0.3933 -0.1972  0.9278
17837TIP3    H274927   4.033   0.761   5.936  0.5447 -1.2896 -0.3109
17838TIP3   OH274928   5.466   0.345  14.509  0.2530 -0.0238 -0.0989
17838TIP3    H174929   5.409   0.384  14.443  1.8545  0.0114 -1.5395
17838TIP3    H274930   5.420   0.357  14.591 -1.6575  0.2627 -1.1577
17839TIP3   OH274931   5.737   2.998   6.499  0.1126  0.5040  0.0592
17839TIP3    H174932   5.674   2.995   6.571  0.4380 -3.0111  0.3588
17839TIP3    H274933   5.687   2.973   6.421  0.5560  0.4791 -0.2230
17840TIP3   OH274934   5.406   3.857   1.097  0.4635 -0.3057  0.0315
17840TIP3    H174935   5.376   3.945   1.119 -0.6745  0.0452 -2.5519
17840TIP3    H274936   5.346   3.799   1.145  0.9377  0.2971  1.3946
17841TIP3   OH274937   5.514   1.543  16.659  0.2057  0.4986 -0.7942
17841TIP3    H174938   5.594   1.537  16.608  0.7514  0.9092 -0.0036
17841TIP3    H274939   5.536   1.503  16.743 -1.0458 -1.3277 -1.2684
17842TIP3   OH274940   2.999   3.357  15.629 -0.6255  0.4272 -0.2026
17842TIP3    H174941   3.078   3.376  15.578 -1.1369 -0.4588 -1.3758
17842TIP3    H274942   2.935   3.331  15.564 -1.7698  0.7155  0.7783
17843TIP3   OH274943   6.005   4.293  16.179  0.3460  0.3226 -0.4184
17843TIP3    H174944   5.923   4.282  16.227  0.1526 -0.4786 -0.9204
17843TIP3    H274945   6.067   4.235  16.222  1.1837  2.1860  1.0686
17844TIP3   OH274946   2.805   5.381  14.075  0.0628 -0.6543  0.0888
17844TIP3    H174947   2.709   5.385  14.084 -0.1130  2.2416 -1.7690
17844TIP3    H274948   2.820   5.362  13.982  1.3178 -1.2325  0.3881
17845TIP3   OH274949   3.847   1.464   0.685  0.2124  0.6422  0.4134
17845TIP3    H174950   3.928   1.514   0.672 -0.3194  1.2980 -0.4379
17845TIP3    H274951   3.859   1.422   0.771  1.1527  1.2938  0.6197
17846TIP3   OH274952   4.780   0.849   6.698 -0.7238  0.4541 -0.0447
17846TIP3    H174953   4.770   0.791   6.623  1.4100 -0.6881  0.4627
17846TIP3    H274954   4.858   0.901   6.678  1.3147 -1.4672  2.2224
17847TIP3   OH274955   4.549   0.747  12.306 -0.8668 -0.3077  0.4801
17847TIP3    H174956   4.454   0.736  12.310 -0.9701 -0.6573 -1.7089
17847TIP3    H274957   4.562   0.819  12.243  0.3164 -0.3624  0.6418
17848TIP3   OH274958   5.620   5.993  13.295 -0.0252 -0.0230 -0.0903
17848TIP3    H174959   5.687   6.053  13.262  1.4719 -1.7408 -0.3565
17848TIP3    H274960   5.603   5.933  13.222 -0.9715 -0.3358  0.3720
17849TIP3   OH274961   0.681   5.227  14.937  0.1538  0.2733 -0.1935
17849TIP3    H174962   0.686   5.135  14.961  0.2056  0.1882 -0.5330
17849TIP3    H274963   0.615   5.230  14.868  0.6249  0.3958 -0.6443
17850TIP3   OH274964   3.168   5.704   4.017 -0.1423 -0.0425 -0.2238
17850TIP3    H174965   3.161   5.695   4.112  0.8231  0.1092 -0.1265
17850TIP3    H274966   3.083   5.737   3.990 -0.5303 -0.3740  0.5506
17851TIP3   OH274967   3.029   6.606  15.540  0.3254  0.2525 -0.4907
17851TIP3    H174968   2.953   6.626  15.594 -0.0796 -0.2439 -0.8711
17851TIP3    H274969   3.104   6.622  15.598 -0.0326  1.3022 -0.2920
17852TIP3   OH274970   6.458   1.087  11.696 -0.0002  0.2660  0.5105
17852TIP3    H174971   6.471   1.001  11.735  2.7278  1.4794  2.6583
17852TIP3    H274972   6.541   1.105  11.651 -0.1866  2.0993  0.8199
17853TIP3   OH274973   0.629   2.663  13.906 -0.2945 -0.1341  0.2626
17853TIP3    H174974   0.639   2.590  13.845 -1.7819 -1.8136  1.8987
17853TIP3    H274975   0.706   2.657  13.963 -0.2555 -0.2281  0.2010
17854TIP3   OH274976   4.694   3.596   0.089  0.6845  0.1074  0.2587
17854TIP3    H174977   4.652   3.680   0.072 -0.7860 -0.5153  0.6642
17854TIP3    H274978   4.636   3.552   0.151  2.1483 -0.6497  1.1575
17855TIP3   OH274979   3.162   3.934   1.875  0.8899 -0.3710  0.2801
17855TIP3    H174980   3.083   3.982   1.850  1.3497  1.2048  1.6731
17855TIP3    H274981   3.168   3.944   1.970  2.5334 -0.8402  0.2654
17856TIP3   OH274982   4.298   2.538  13.767  0.4857 -0.3248 -0.6404
17856TIP3    H174983   4.379   2.491  13.752  1.4093  0.6019  1.1349
17856TIP3    H274984   4.230   2.471  13.764  1.6073 -1.5664  0.4680
17857TIP3   OH274985   6.190   1.843   5.680  0.0104 -0.2175  0.6636
17857TIP3    H174986   6.212   1.924   5.726 -0.9634  1.9840 -2.3791
17857TIP3    H274987   6.273   1.813   5.642 -0.1857  1.9402 -1.7700
17858TIP3   OH274988   0.790   5.322   0.171  0.0674  0.0891  0.1094
17858TIP3    H174989   0.719   5.334   0.108  1.8634  0.6287 -1.9593
17858TIP3    H274990   0.810   5.229   0.168  1.0967  0.3176 -1.3200
17859TIP3   OH274991   4.019   4.381   0.333  0.0635  0.1542 -0.3781
17859TIP3    H174992   3.968   4.305   0.305 -0.3572  0.7987 -1.4010
17859TIP3    H274993   4.102   4.344   0.364 -1.1407 -0.9591  1.7451
17860TIP3   OH274994   1.682   4.211   1.482 -0.0531  0.5158 -0.0561
17860TIP3    H174995   1.731   4.218   1.400 -2.5562  2.1706 -1.5159
17860TIP3    H274996   1.736   4.152   1.536  2.3408  0.3988 -2.3401
17861TIP3   OH274997   4.498   6.491   1.641 -0.4141 -0.9143 -0.1126
17861TIP3    H174998   4.410   6.506   1.608 -0.6828 -0.7192  0.6764
17861TIP3    H274999   4.487   6.432   1.715  0.2336 -1.7361 -0.6600
17862TIP3   OH275000   6.000   5.454   2.158  0.3084 -0.8817 -0.0550
17862TIP3    H175001   6.088   5.416   2.162  0.1456 -1.2401  0.1524
17862TIP3    H275002   5.989   5.500   2.240  0.0028 -1.5158  0.2725
17863TIP3   OH275003   3.115   1.373  16.079  0.4997 -0.0179  0.2908
17863TIP3    H175004   3.076   1.344  15.996  0.6700 -0.4294  0.3510
17863TIP3    H275005   3.192   1.423  16.053 -0.6904  1.8466  0.1146
17864TIP3   OH275006   5.955   5.864  13.073  0.4346 -0.2144 -0.0585
17864TIP3    H175007   6.029   5.918  13.100  0.8670 -0.2958 -1.0273
17864TIP3    H275008   5.990   5.775  13.071  0.3903 -0.2257 -0.7469
17865TIP3   OH275009   4.577   4.411  11.191 -0.1465 -0.2708 -0.8664
17865TIP3    H175010   4.605   4.319  11.195 -0.0362 -0.2006  0.6527
17865TIP3    H275011   4.650   4.456  11.148  0.8133 -0.5542  0.4124
17866TIP3   OH275012   5.980   1.694   1.105  0.2351 -0.2144  0.4072
17866TIP3    H175013   5.945   1.729   1.186  0.3374 -0.7694  0.6993
17866TIP3    H275014   5.942   1.749   1.036  0.8827  0.8357  0.8822
17867TIP3   OH275015   5.192   6.392   3.136  0.1993  0.0524  0.4568
17867TIP3    H175016   5.169   6.313   3.185  1.2181 -1.5837 -1.5315
17867TIP3    H275017   5.108   6.424   3.102  0.0132 -2.6985 -2.1786
17868TIP3   OH275018   3.088   5.008   3.355 -0.1933 -0.9341 -0.4152
17868TIP3    H175019   3.169   4.966   3.384  0.5797  0.9859  0.4108
17868TIP3    H275020   3.025   4.989   3.425 -0.4837 -2.3544 -1.0170
17869TIP3   OH275021   1.136   5.860  15.043 -0.2429  0.6992 -0.2700
17869TIP3    H175022   1.078   5.805  15.097  0.3865  0.3917  0.1015
17869TIP3    H275023   1.122   5.949  15.075  0.7106  0.4272  0.9565
17870TIP3   OH275024   0.856   1.773  13.561 -0.5022 -0.4597 -0.0743
17870TIP3    H175025   0.781   1.730  13.601  0.0402 -0.7426  0.6540
17870TIP3    H275026   0.889   1.710  13.497 -0.0189 -0.9276  0.6272
17871TIP3   OH275027   0.439   1.911   1.032  0.2238 -0.3929  0.3705
17871TIP3    H175028   0.361   1.880   1.078 -1.1667  1.3426 -0.7158
17871TIP3    H275029   0.512   1.876   1.083 -1.2328 -2.3349  1.2491
17872TIP3   OH275030   4.824   4.867   3.202  0.2200  0.5394  0.2684
17872TIP3    H175031   4.732   4.878   3.227 -0.0229  0.7301 -0.6753
17872TIP3    H275032   4.872   4.923   3.263 -0.2471  0.1572  1.0124
17873TIP3   OH275033   0.745   0.207  14.699  0.6519  0.0462 -0.0890
17873TIP3    H175034   0.668   0.234  14.648  0.9393 -2.5314 -2.0562
17873TIP3    H275035   0.716   0.131  14.748  1.6660 -0.3122 -0.0260
17874TIP3   OH275036   0.108   4.233  16.976 -0.0517 -0.3793 -0.5786
17874TIP3    H175037   0.122   4.172  17.048  0.3354  0.6720  0.2613
17874TIP3    H275038   0.061   4.182  16.910  0.1980 -1.5533  0.1236
17875TIP3   OH275039   4.801   5.154  15.333 -0.2401  0.2873  0.2319
17875TIP3    H175040   4.873   5.094  15.355  0.1072 -0.2207 -2.0661
17875TIP3    H275041   4.839   5.241  15.341  0.4684  0.0440 -0.3595
17876TIP3   OH275042   1.819   6.626  12.106 -0.0627 -0.7889 -0.2352
17876TIP3    H175043   1.857   6.571  12.174 -0.3124 -1.4490 -0.6196
17876TIP3    H275044   1.734   6.586  12.087 -0.6724  0.2904  0.1539
17877TIP3   OH275045   3.995   1.419  16.323 -0.0523 -0.1733 -0.0895
17877TIP3    H175046   3.922   1.481  16.326 -0.5954 -0.8248  0.4197
17877TIP3    H275047   4.033   1.422  16.411  1.3342  1.0778 -0.6882
17878TIP3   OH275048   5.103   5.341   3.496  0.2866  0.3433  0.2523
17878TIP3    H175049   5.116   5.389   3.578 -0.5130 -0.0326  0.6070
17878TIP3    H275050   5.113   5.249   3.519 -0.7397  0.1761  0.1125
17879TIP3   OH275051   3.477   3.004  15.185 -0.1973 -0.0957  0.0293
17879TIP3    H175052   3.531   2.933  15.219  1.3890 -0.3921 -2.8919
17879TIP3    H275053   3.513   3.083  15.226  0.1850 -0.6245  0.7427
17880TIP3   OH275054   3.165   0.795   1.568  0.8332  0.4690 -0.4489
17880TIP3    H175055   3.236   0.843   1.610 -0.6255  1.3201  1.1957
17880TIP3    H275056   3.205   0.712   1.540  2.5971  1.1984 -0.2161
17881TIP3   OH275057   4.383   5.237   4.521 -0.7395  0.2133 -0.3442
17881TIP3    H175058   4.420   5.325   4.536  0.2638 -0.0967 -0.8764
17881TIP3    H275059   4.317   5.250   4.453 -0.4650  0.5439 -0.5563
17882TIP3   OH275060   2.498   5.881   1.107 -0.2573 -0.2062 -0.4605
17882TIP3    H175061   2.444   5.822   1.159 -1.5653  1.5752  0.2692
17882TIP3    H275062   2.584   5.878   1.149 -0.7211 -0.4222  0.4840
17883TIP3   OH275063   2.469   6.269  15.559  0.2907  0.4674 -0.0021
17883TIP3    H175064   2.526   6.345  15.544  0.8049  0.3695  1.2881
17883TIP3    H275065   2.494   6.206  15.492 -1.6995  2.2222 -2.5923
17884TIP3   OH275066   0.298   4.082   5.578 -0.4080 -0.0415  0.1949
17884TIP3    H175067   0.336   4.108   5.494  0.4315  1.5080  1.0127
17884TIP3    H275068   0.352   4.126   5.644 -1.4113 -0.7337  1.5372
17885TIP3   OH275069   6.356   5.391  11.473 -0.0431  0.3130 -0.3131
17885TIP3    H175070   6.408   5.317  11.441  1.3301  0.4370  1.4347
17885TIP3    H275071   6.413   5.434  11.537 -2.3450  0.3512  1.8575
17886TIP3   OH275072   6.129   1.698   5.031 -0.6325  0.1754  0.6637
17886TIP3    H175073   6.069   1.770   5.010  0.0826  1.2613  2.0862
17886TIP3    H275074   6.095   1.623   4.982 -1.9193  1.2611 -0.1963
17887TIP3   OH275075   1.260   5.058  16.886  0.2605 -0.0121  0.5261
17887TIP3    H175076   1.215   5.138  16.860  0.2824 -0.5439 -1.3708
17887TIP3    H275077   1.218   5.032  16.968 -2.0234  0.2153 -0.4894
17888TIP3   OH275078   2.395   2.045   2.942  0.4413  0.2652  0.2872
17888TIP3    H175079   2.413   1.975   3.005 -1.8796 -1.1741 -0.4866
17888TIP3    H275080   2.313   2.085   2.972 -0.3871 -0.0467 -1.3910
17889TIP3   OH275081   6.591   3.292  11.219 -0.1806 -0.3385 -0.1460
17889TIP3    H175082   6.615   3.246  11.139  0.0258 -1.3090  0.4677
17889TIP3    H275083   6.642   3.250  11.288  0.6680  1.3677  0.3194
17890TIP3   OH275084   0.745   0.455   0.377 -0.2492 -0.0995 -0.2703
17890TIP3    H175085   0.714   0.468   0.287 -0.3288 -0.5124 -0.3051
17890TIP3    H275086   0.724   0.537   0.421 -1.5109 -0.3919 -0.2671
17891TIP3   OH275087   6.482   5.779  14.445  0.5639  0.2214  0.0988
17891TIP3    H175088   6.495   5.719  14.518 -1.6119  0.5361  0.7998
17891TIP3    H275089   6.469   5.864  14.485 -2.0178  0.1824 -0.4983
17892TIP3   OH275090   2.369   1.983   6.787 -0.9483  0.2046 -0.0111
17892TIP3    H175091   2.364   2.061   6.732  2.8648  0.0183 -0.9231
17892TIP3    H275092   2.307   1.922   6.747 -1.9488  1.7682 -0.9824
17893TIP3   OH275093   6.475   4.173   3.339 -0.2268  0.1695 -0.1781
17893TIP3    H175094   6.544   4.134   3.393  1.7657  0.7368 -2.1704
17893TIP3    H275095   6.502   4.154   3.249 -1.3601  2.5365 -1.0966
17894TIP3   OH275096   4.182   1.610  15.159 -0.0212 -0.3316 -0.2232
17894TIP3    H175097   4.118   1.560  15.108  0.2496 -2.1344  1.1085
17894TIP3    H275098   4.246   1.545  15.187 -0.0321  0.6234  2.2136
17895TIP3   OH275099   4.613   5.059   0.219 -0.1948 -0.7953  0.5254
17895TIP3    H175100   4.606   5.147   0.181  0.7923 -0.2818  1.4737
17895TIP3    H275101   4.685   5.018   0.171 -0.7692 -1.1583 -0.0352
17896TIP3   OH275102   6.498   2.649   3.562  0.1465  0.1750  0.5365
17896TIP3    H175103   6.441   2.575   3.542  2.0162 -0.9088 -1.2517
17896TIP3    H275104   6.445   2.726   3.543 -2.0052 -0.5899  2.8718
17897TIP3   OH275105   1.724   6.115   4.988  0.3831  0.0541 -0.1065
17897TIP3    H175106   1.757   6.137   5.075 -1.6647  1.4092  0.4132
17897TIP3    H275107   1.694   6.199   4.952  1.0929 -0.4894 -2.1135
17898TIP3   OH275108   2.257   6.030   3.385  0.1302 -0.0808 -0.3407
17898TIP3    H175109   2.191   5.963   3.403  0.6137 -0.8467 -1.3015
17898TIP3    H275110   2.254   6.088   3.461 -0.2150 -1.2715  0.5808
17899TIP3   OH275111   2.460   5.123  13.422 -0.1156  0.4424  0.0668
17899TIP3    H175112   2.498   5.039  13.446 -1.2398 -0.1639 -0.2408
17899TIP3    H275113   2.382   5.130  13.476  0.8606  2.0993  1.3769
17900TIP3   OH275114   1.391   0.440  12.371  0.6287 -0.4004 -0.4870
17900TIP3    H175115   1.471   0.397  12.402  0.2722 -0.4812  0.3330
17900TIP3    H275116   1.339   0.453  12.450  0.2430  0.5223 -0.8889
17901TIP3   OH275117   3.611   6.322   3.906 -0.0370 -0.1662  0.6891
17901TIP3    H175118   3.581   6.278   3.985  0.2255  0.9047  1.4013
17901TIP3    H275119   3.552   6.397   3.895  0.2660  0.0113  0.1830
17902TIP3   OH275120   3.620   4.381   1.592 -0.3876 -0.1871 -0.1168
17902TIP3    H175121   3.628   4.430   1.673  0.2291  0.3641 -0.5051
17902TIP3    H275122   3.605   4.447   1.525  0.5309 -0.5173 -0.6538
17903TIP3   OH275123   1.270   6.232   1.974  0.1693 -0.2792 -0.7811
17903TIP3    H175124   1.218   6.252   2.052  0.3078  0.5010 -0.8799
17903TIP3    H275125   1.302   6.317   1.944  2.4219 -0.7944 -0.0682
17904TIP3   OH275126   5.066   6.739  16.065 -0.1273  0.3597 -0.0608
17904TIP3    H175127   5.089   6.730  16.158 -0.3779 -1.9404 -0.1512
17904TIP3    H275128   4.989   6.682  16.055  0.7714 -0.5873 -1.9669
17905TIP3   OH275129   3.113   0.708   4.526  1.0168  0.0168 -0.4329
17905TIP3    H175130   3.030   0.753   4.541  1.0326 -0.0093 -0.2678
17905TIP3    H275131   3.109   0.680   4.435  1.0784  0.5018 -0.5916
17906TIP3   OH275132   1.642   5.868   0.747  0.2029  0.2021 -0.5507
17906TIP3    H175133   1.577   5.850   0.815 -0.7935 -0.9667 -1.7498
17906TIP3    H275134   1.712   5.804   0.762  0.2484  0.3081 -0.3085
17907TIP3   OH275135   5.441   3.380  16.064  0.3198 -0.2270  0.5620
17907TIP3    H175136   5.517   3.352  16.115  1.7710  1.6785 -0.4052
17907TIP3    H275137   5.385   3.425  16.128  2.0353  1.9933  0.6280
17908TIP3   OH275138   0.188   0.275   1.077  0.3105  0.4461  0.2411
17908TIP3    H175139   0.271   0.274   1.030 -0.1198 -0.3364 -0.5230
17908TIP3    H275140   0.164   0.182   1.086 -0.3701  0.6529  0.6378
17909TIP3   OH275141   4.711   6.403  16.268 -0.1921 -0.9869 -0.2008
17909TIP3    H175142   4.704   6.313  16.301 -1.4287 -0.3215  1.5373
17909TIP3    H275143   4.748   6.452  16.342 -0.5827  0.1235 -0.7235
17910TIP3   OH275144   5.298   2.213  10.804 -0.2476 -0.0227 -0.1659
17910TIP3    H175145   5.220   2.196  10.751 -0.7326 -0.7585  0.7693
17910TIP3    H275146   5.321   2.129  10.842  1.5729 -0.0189 -1.1456
17911TIP3   OH275147   1.323   1.390  14.624  0.6480  0.1512  0.2286
17911TIP3    H175148   1.415   1.406  14.644  0.6197  0.7884 -0.1057
17911TIP3    H275149   1.276   1.424  14.700  0.5895  1.7329 -0.4720
17912TIP3   OH275150   6.640   1.616   5.791 -0.1470 -0.1893 -0.2456
17912TIP3    H175151   6.661   1.534   5.747 -1.2987 -0.4529 -0.3253
17912TIP3    H275152   6.637   1.593   5.884  0.8771  0.0650 -0.1386
17913TIP3   OH275153   0.656   3.230  13.546  0.0998 -0.0491  0.3744
17913TIP3    H175154   0.749   3.204  13.548  0.3080  0.7427  1.7403
17913TIP3    H275155   0.609   3.147  13.539  0.9187 -0.3879 -2.4048
17914TIP3   OH275156   1.294   3.332   1.178  0.2184  0.3936 -0.0312
17914TIP3    H175157   1.269   3.316   1.087  0.0572  1.5119 -0.2023
17914TIP3    H275158   1.349   3.411   1.174  0.7743  0.0618  0.7629
17915TIP3   OH275159   1.599   6.257  17.265 -0.1716  0.1022 -0.2378
17915TIP3    H175160   1.691   6.230  17.270 -0.0913  0.1407 -1.2661
17915TIP3    H275161   1.550   6.179  17.289  0.1232  0.0993  0.3874
17916TIP3   OH275162   1.091   0.891   5.430  0.5152 -0.6321  0.0379
17916TIP3    H175163   1.057   0.840   5.356  1.0084 -0.0724 -0.5820
17916TIP3    H275164   1.186   0.892   5.417  0.4327  1.9148 -0.9591
17917TIP3   OH275165   0.594   2.261   4.803  0.0881 -0.2371 -0.1673
17917TIP3    H175166   0.572   2.330   4.741  0.0244  1.1625  1.3409
17917TIP3    H275167   0.597   2.306   4.888 -1.2349 -2.3288  1.0583
17918TIP3   OH275168   2.494   1.509  15.107  0.3241  0.6575 -0.0125
17918TIP3    H175169   2.458   1.587  15.065 -0.3751  0.2066 -0.2614
17918TIP3    H275170   2.467   1.437  15.050  0.8295  0.2156  0.3019
17919TIP3   OH275171   3.659   4.318  15.131 -0.0481  0.2169 -0.2229
17919TIP3    H175172   3.681   4.249  15.194  1.4038  0.5095 -0.3691
17919TIP3    H275173   3.736   4.375  15.130 -0.2570  0.5284 -1.8416
17920TIP3   OH275174   1.637   0.405   3.405  0.2451  0.1118  0.9196
17920TIP3    H175175   1.709   0.460   3.375  1.4444 -2.3101 -1.0127
17920TIP3    H275176   1.573   0.407   3.334 -0.0119 -0.3927  1.1256
17921TIP3   OH275177   2.774   5.126  12.015  0.4308 -0.0035 -0.1845
17921TIP3    H175178   2.712   5.067  12.058  1.4043 -2.1469 -1.5518
17921TIP3    H275179   2.860   5.090  12.035  1.1604  1.6504 -0.1475
17922TIP3   OH275180   0.670   2.423   4.527  0.2210 -0.0440  0.7397
17922TIP3    H175181   0.607   2.474   4.477  1.3663 -0.1912 -0.9463
17922TIP3    H275182   0.742   2.483   4.544  0.2926 -0.2867  1.3264
17923TIP3   OH275183   3.928   0.505   1.163  0.1730  0.1866  0.2223
17923TIP3    H175184   3.924   0.438   1.231  2.0758  1.3252  1.5644
17923TIP3    H275185   4.018   0.501   1.132  0.0582  1.5077 -0.3157
17924TIP3   OH275186   0.669   4.632   1.040 -0.2339 -0.7189  0.3343
17924TIP3    H175187   0.602   4.633   1.109  0.4570 -0.5391  1.0077
17924TIP3    H275188   0.703   4.543   1.041 -0.8330 -0.9772 -0.3955
17925TIP3   OH275189   1.029   3.459   4.728 -0.4774 -0.0039  0.7595
17925TIP3    H175190   0.991   3.390   4.783  0.7813 -1.8014 -0.5232
17925TIP3    H275191   1.102   3.417   4.683 -0.6704  1.7168 -1.3365
17926TIP3   OH275192   1.040   5.866  14.772 -0.1477 -0.1734  0.2142
17926TIP3    H175193   1.059   5.960  14.764  1.6831 -0.6677 -1.9278
17926TIP3    H275194   1.084   5.840  14.853  1.7841  0.2851 -0.6441
17927TIP3   OH275195   2.898   4.602  12.358  0.2487  0.4632  0.3141
17927TIP3    H175196   2.866   4.663  12.424 -0.1488 -1.1112  1.6565
17927TIP3    H275197   2.982   4.638  12.329  2.1537 -0.3966  4.1573
17928TIP3   OH275198   2.572   2.882   2.877  0.2900  0.0567 -0.3767
17928TIP3    H175199   2.661   2.917   2.881  0.8522 -1.2813 -0.7481
17928TIP3    H275200   2.557   2.844   2.964  0.9576 -1.6970 -0.9761
17929TIP3   OH275201   0.237   1.061  15.712 -0.0224  0.9336  0.4646
17929TIP3    H175202   0.200   1.146  15.735  0.0213  0.8220  0.9609
17929TIP3    H275203   0.201   1.041  15.626 -1.5762  0.5623  1.1770
17930TIP3   OH275204   0.092   4.451   3.947 -0.0667  0.2869 -0.6153
17930TIP3    H175205   0.032   4.382   3.921  1.4311 -1.5193  0.4633
17930TIP3    H275206   0.081   4.520   3.881 -2.3128 -0.5244 -1.1655
17931TIP3   OH275207   5.535   4.846   3.724  0.6323  0.5195  0.3337
17931TIP3    H175208   5.613   4.900   3.740  0.5332  0.8028 -0.1306
17931TIP3    H275209   5.462   4.907   3.727  0.4317  0.2643  0.6930
17932TIP3   OH275210   2.540   3.790  11.750  0.4254  0.2320 -0.1459
17932TIP3    H175211   2.584   3.767  11.668 -0.2162 -0.4241 -0.3182
17932TIP3    H275212   2.611   3.815  11.809  0.8890  0.9261 -0.9550
17933TIP3   OH275213   4.237   2.077  14.540  0.6779  0.1409 -0.1708
17933TIP3    H175214   4.290   2.136  14.594  0.4119 -1.2916  1.7993
17933TIP3    H275215   4.147   2.108  14.551  0.6260 -0.1389  0.2269
17934TIP3   OH275216   4.935   5.645  11.306 -0.3189 -0.1281  0.0082
17934TIP3    H175217   4.947   5.595  11.387  1.1166  0.4615  0.1959
17934TIP3    H275218   4.968   5.587  11.238  0.2422  0.0876  0.0874
17935TIP3   OH275219   0.954   1.166  15.255 -0.1854 -0.2422 -0.9255
17935TIP3    H175220   0.909   1.122  15.182 -2.1811  0.2608 -0.0831
17935TIP3    H275221   0.972   1.254  15.222 -0.2575 -0.2938 -1.1091
17936TIP3   OH275222   6.736   5.807  14.303 -0.0425  0.0072  0.5025
17936TIP3    H175223   6.733   5.819  14.208 -0.3330 -0.5832  0.4348
17936TIP3    H275224   6.644   5.804  14.330  0.0274 -0.9478  0.6536
17937TIP3   OH275225   6.576   3.461   2.440 -0.2846 -0.0672  0.7352
17937TIP3    H175226   6.668   3.455   2.413 -0.4411  2.2365 -0.6105
17937TIP3    H275227   6.573   3.417   2.524  1.9950 -0.4695  0.6752
17938TIP3   OH275228   0.356   0.401   2.980  0.0226 -0.6027 -0.3497
17938TIP3    H175229   0.313   0.470   2.929  0.2699 -0.3975 -0.2782
17938TIP3    H275230   0.396   0.344   2.913 -1.3428 -1.4598 -0.4821
17939TIP3   OH275231   2.488   2.332   2.594 -0.1725 -0.2352  0.0094
17939TIP3    H175232   2.508   2.425   2.600  0.8217 -0.5304  2.1843
17939TIP3    H275233   2.523   2.305   2.509  2.0034  0.8422  0.4976
17940TIP3   OH275234   2.985   2.247   4.995 -0.1370 -0.0123 -0.2197
17940TIP3    H175235   3.028   2.267   5.078  0.8427 -0.1782 -0.6797
17940TIP3    H275236   2.988   2.151   4.989  0.1128  0.0195 -0.6112
17941TIP3   OH275237   4.677   4.170  16.464 -0.0367 -0.1580  0.1064
17941TIP3    H175238   4.715   4.123  16.390 -0.8560  0.0844 -0.4860
17941TIP3    H275239   4.591   4.199  16.433  0.1929  1.2058  0.6656
17942TIP3   OH275240   4.535   4.123  14.763 -1.0455  0.0842 -0.1569
17942TIP3    H175241   4.532   4.181  14.687  1.8810 -0.9418 -1.1831
17942TIP3    H275242   4.545   4.036  14.726  0.7078 -0.4187  1.3418
17943TIP3   OH275243   4.716   4.655  15.178  0.1586  0.0027 -0.3792
17943TIP3    H175244   4.805   4.651  15.143  0.0409 -0.8499 -0.6004
17943TIP3    H275245   4.722   4.612  15.264 -0.4663 -2.2453 -1.3633
17944TIP3   OH275246   0.671   3.989   5.102 -0.2229  0.1218 -0.4680
17944TIP3    H175247   0.712   4.075   5.087 -0.5320  0.6822  1.6228
17944TIP3    H275248   0.590   3.992   5.052 -0.2712  1.0862 -0.3482
17945TIP3   OH275249   4.137   1.785  15.369  0.4710  0.4238  0.6663
17945TIP3    H175250   4.133   1.708  15.312  1.0441  1.4066 -0.7505
17945TIP3    H275251   4.050   1.824  15.364  0.7756  1.0255 -0.3293
17946TIP3   OH275252   6.298   0.352  15.392  0.0422  0.8432  0.0091
17946TIP3    H175253   6.305   0.373  15.485 -1.3487  1.0192  0.0930
17946TIP3    H275254   6.376   0.391  15.352  1.3958 -0.4464  1.2875
17947TIP3   OH275255   5.512   6.417  12.727 -0.2345 -0.3096  0.1098
17947TIP3    H175256   5.465   6.386  12.649 -1.1898 -0.8382  0.8576
17947TIP3    H275257   5.453   6.481  12.766  0.8413  0.9818 -0.3115
17948TIP3   OH275258   4.418   3.542  16.284  0.5442  0.6075  0.2253
17948TIP3    H175259   4.384   3.474  16.343 -0.5297 -1.4216 -2.5455
17948TIP3    H275260   4.510   3.518  16.271  0.2617 -0.1435 -0.4613
17949TIP3   OH275261   5.769   5.477   2.870  0.3805 -0.2960 -0.0218
17949TIP3    H175262   5.709   5.530   2.923  2.3832 -0.3560  2.5024
17949TIP3    H275263   5.832   5.540   2.835  0.1292 -0.4967 -0.8696
17950TIP3   OH275264   1.825   5.590  11.928  0.2463  0.0256 -0.0820
17950TIP3    H175265   1.876   5.509  11.933 -0.0147 -0.2733 -1.5818
17950TIP3    H275266   1.877   5.648  11.872 -1.7796 -0.9934 -3.3757
17951TIP3   OH275267   2.987   0.160  13.355 -0.3750  0.1171 -0.5222
17951TIP3    H175268   2.941   0.153  13.439  1.2755 -1.9613  0.3139
17951TIP3    H275269   3.029   0.245  13.357 -1.4448  0.6507  0.1566
17952TIP3   OH275270   6.433   1.792  15.631  0.2508  0.3817  0.4705
17952TIP3    H175271   6.488   1.741  15.690  0.7319 -0.3456 -0.5788
17952TIP3    H275272   6.477   1.787  15.547 -2.0099 -1.2450 -0.7309
17953TIP3   OH275273   4.892   4.979   0.664 -0.3770  0.4786 -0.1071
17953TIP3    H175274   4.871   4.919   0.735  1.6001 -1.0012 -0.6911
17953TIP3    H275275   4.822   4.965   0.600 -0.2394 -0.8689 -0.0001
17954TIP3   OH275276   2.491   2.157   1.986  0.0652  0.2844  0.3370
17954TIP3    H175277   2.506   2.085   1.924  2.1304  0.9266  0.0240
17954TIP3    H275278   2.578   2.191   2.004 -0.8552  2.6850  0.5210
17955TIP3   OH275279   0.616   4.610  11.370 -0.7694  0.5749 -0.8330
17955TIP3    H175280   0.577   4.524  11.379  2.0092 -0.7997 -0.7310
17955TIP3    H275281   0.643   4.615  11.278 -1.7687  1.7784 -1.0881
17956TIP3   OH275282   4.356   4.405  15.046  0.2762 -0.2515 -0.5341
17956TIP3    H175283   4.265   4.378  15.060 -0.0829  0.6954 -0.9298
17956TIP3    H275284   4.406   4.359  15.114 -0.5707 -0.3633  0.0248
17957TIP3   OH275285   0.535   4.076   1.066  0.2544  0.8523  0.0394
17957TIP3    H175286   0.494   4.136   1.128  0.6556  0.1061  1.0685
17957TIP3    H275287   0.535   3.992   1.111  0.0468  0.1507 -1.2143
17958TIP3   OH275288   2.043   2.012   6.471 -0.3054 -0.0153 -0.1870
17958TIP3    H175289   2.032   2.015   6.376 -0.0424 -0.1604 -0.2232
17958TIP3    H275290   1.991   1.937   6.499  0.2753 -0.4748 -0.3145
17959TIP3   OH275291   4.912   5.685  14.731 -0.3677  0.1067 -0.4244
17959TIP3    H175292   4.920   5.713  14.640  2.3571 -1.7441 -0.8574
17959TIP3    H275293   4.965   5.748  14.780 -3.1450  2.1262  0.2878
17960TIP3   OH275294   3.890   6.400  17.236  0.0029  0.3705  0.6285
17960TIP3    H175295   3.956   6.443  17.290  2.0816 -1.3314 -0.4297
17960TIP3    H275296   3.878   6.314  17.277  2.1695 -1.2512 -1.8821
17961TIP3   OH275297   1.704   1.538  16.976 -0.5791  0.3430  0.8340
17961TIP3    H175298   1.658   1.482  16.914  1.7376  2.0330 -2.7507
17961TIP3    H275299   1.767   1.480  17.019 -2.5640 -0.9523  2.1752
17962TIP3   OH275300   3.319   3.041  13.931 -0.1256 -0.4816  0.2322
17962TIP3    H175301   3.349   3.037  14.022  1.7976 -0.5985 -0.3702
17962TIP3    H275302   3.375   2.979  13.884 -0.2162  0.5180 -1.2544
17963TIP3   OH275303   6.454   4.624   0.771 -0.0654  0.3139  0.0896
17963TIP3    H175304   6.424   4.536   0.749 -1.3045  0.4463  1.1140
17963TIP3    H275305   6.548   4.622   0.757 -0.0444 -1.2485  0.3153
17964TIP3   OH275306   5.209   5.820  16.313 -0.0230 -0.3621  0.3534
17964TIP3    H175307   5.157   5.798  16.236 -0.2740 -0.3751  0.5270
17964TIP3    H275308   5.233   5.912  16.300  0.5797 -0.5797 -0.1099
17965TIP3   OH275309   3.564   3.585   2.938  0.2605 -0.5165 -0.3951
17965TIP3    H175310   3.536   3.603   2.848 -0.3393 -0.0006 -0.1166
17965TIP3    H275311   3.587   3.492   2.938  0.1437 -0.5533 -1.0476
17966TIP3   OH275312   1.874   0.233   3.475 -0.7498 -0.5581  0.2312
17966TIP3    H175313   1.890   0.184   3.394  0.5197 -0.7096  0.5573
17966TIP3    H275314   1.787   0.273   3.462 -0.5423 -0.5324 -1.2318
17967TIP3   OH275315   3.470   2.527  14.204  0.0300  0.4021 -0.0156
17967TIP3    H175316   3.459   2.595  14.137 -1.2041 -0.9518 -1.2695
17967TIP3    H275317   3.406   2.548  14.271  1.5097  1.9689  0.9756
17968TIP3   OH275318   5.168   1.018   1.540 -0.1570  0.4291 -0.3802
17968TIP3    H175319   5.260   1.031   1.518  0.2979  1.1905  1.7149
17968TIP3    H275320   5.121   1.074   1.478  0.8027  0.3061 -1.2558
17969TIP3   OH275321   2.217   3.034   2.899 -0.1660  0.6875  0.2026
17969TIP3    H175322   2.164   3.108   2.928  0.3491  1.1726 -0.0665
17969TIP3    H275323   2.192   3.021   2.808 -2.4894 -1.4552  1.0489
17970TIP3   OH275324   1.865   2.052   0.121  0.4973  0.6220  0.4112
17970TIP3    H175325   1.787   2.000   0.102 -0.1564  1.7203 -0.0133
17970TIP3    H275326   1.922   2.038   0.045  1.3365 -1.2330  1.3118
17971TIP3   OH275327   2.067   3.502   0.996 -0.3338  0.0843 -0.0519
17971TIP3    H175328   2.122   3.478   1.071  0.2430 -0.5705 -0.6753
17971TIP3    H275329   1.977   3.487   1.026 -0.0494 -2.1782 -0.1459
17972TIP3   OH275330   2.072   1.397  12.569  0.4052  0.3598 -0.7334
17972TIP3    H175331   2.011   1.453  12.521 -0.4967 -0.2586 -0.3175
17972TIP3    H275332   2.074   1.315  12.520  1.8889  0.7920 -1.4605
17973TIP3   OH275333   3.798   2.630   3.838 -0.5818 -0.5826  0.1649
17973TIP3    H175334   3.886   2.668   3.833 -1.4894  1.7810  0.6787
17973TIP3    H275335   3.781   2.598   3.750 -0.1172  1.2408 -0.6472
17974TIP3   OH275336   1.549   4.160  14.756  0.2997  0.4850  0.0677
17974TIP3    H175337   1.627   4.104  14.762 -0.5719 -0.6233  1.7929
17974TIP3    H275338   1.572   4.238  14.805 -0.1727 -0.5420  2.0496
17975TIP3   OH275339   0.089   5.013  13.446 -0.2535 -0.1454 -0.1626
17975TIP3    H175340   0.185   5.005  13.447 -0.3775 -2.4936  1.4844
17975TIP3    H275341   0.062   4.968  13.367 -0.0464 -0.6771  0.0660
17976TIP3   OH275342   6.264   1.364   5.076 -0.3439 -0.2173 -0.3218
17976TIP3    H175343   6.265   1.457   5.098 -0.3040 -0.2702 -0.0867
17976TIP3    H275344   6.193   1.328   5.129  0.2485 -0.4845  0.3181
17977TIP3   OH275345   4.840   4.997   5.466 -0.0262  0.0084 -0.0765
17977TIP3    H175346   4.839   4.908   5.500  1.7358  0.7307  2.0628
17977TIP3    H275347   4.786   5.047   5.527  1.6190  0.9597  0.6903
17978TIP3   OH275348   0.886   1.878   5.477  0.3133 -0.5902 -0.0203
17978TIP3    H175349   0.932   1.961   5.489  0.9626 -0.8285 -0.7752
17978TIP3    H275350   0.899   1.830   5.559 -0.7207  0.3503  0.7235
17979TIP3   OH275351   2.129   3.568  10.785 -0.1702  0.3860 -0.4819
17979TIP3    H175352   2.167   3.494  10.740  1.0818  1.3535 -1.0815
17979TIP3    H275353   2.203   3.610  10.829 -0.3044  2.7711 -2.3117
17980TIP3   OH275354   5.400   0.260   2.487  0.4406 -0.2068  0.0122
17980TIP3    H175355   5.315   0.277   2.446  0.5086 -0.3070 -0.1749
17980TIP3    H275356   5.402   0.317   2.563  0.2259 -0.1670 -0.0113
17981TIP3   OH275357   5.250   3.549   0.515  0.2483  0.8324 -0.0557
17981TIP3    H175358   5.201   3.614   0.566 -1.2618  0.1744 -0.6067
17981TIP3    H275359   5.261   3.591   0.429  0.4587  0.8861 -0.0034
17982TIP3   OH275360   2.903   6.390  14.521  0.6865  0.5493  0.1216
17982TIP3    H175361   2.974   6.454  14.527  0.2783  1.0013  0.2633
17982TIP3    H275362   2.826   6.443  14.499  0.2850  0.1413  0.5334
17983TIP3   OH275363   6.507   0.601   1.068 -0.0434  0.1709  0.4640
17983TIP3    H175364   6.472   0.581   1.155 -2.2441  0.3705 -0.3370
17983TIP3    H275365   6.580   0.661   1.086 -0.3228  0.0536  2.1813
17984TIP3   OH275366   6.418   4.526  12.308 -0.6480  0.5654  0.1080
17984TIP3    H175367   6.332   4.485  12.320 -0.0789 -0.9915 -0.8101
17984TIP3    H275368   6.437   4.516  12.215  0.1046  1.8112  0.0948
17985TIP3   OH275369   1.532   1.639  11.148 -1.0716 -0.1516 -0.7055
17985TIP3    H175370   1.503   1.555  11.111  1.0966 -0.8935 -0.8662
17985TIP3    H275371   1.544   1.696  11.072 -0.7691 -0.2894 -0.7618
17986TIP3   OH275372   2.244   5.699   4.897  0.3212  0.1321  0.2461
17986TIP3    H175373   2.326   5.739   4.924  0.6634  0.0144 -0.5867
17986TIP3    H275374   2.183   5.718   4.969  0.8200  1.0270  0.4479
17987TIP3   OH275375   6.653   3.423   4.177  0.4367  0.1437  0.0208
17987TIP3    H175376   6.647   3.450   4.086 -0.5612 -1.1158 -0.3128
17987TIP3    H275377   6.653   3.505   4.226  1.8535  0.8770 -1.1244
17988TIP3   OH275378   0.779   0.353  16.333  0.1645 -0.3412 -0.1854
17988TIP3    H175379   0.745   0.417  16.271  2.6599  0.1237 -1.2078
17988TIP3    H275380   0.814   0.405  16.405  0.8795 -0.6001 -0.3307
17989TIP3   OH275381   6.149   6.593  14.166 -0.2171  0.0308  0.7108
17989TIP3    H175382   6.223   6.544  14.130 -0.2010  0.2418  0.4563
17989TIP3    H275383   6.093   6.526  14.205 -0.7938 -0.3288 -0.6770
17990TIP3   OH275384   4.152   5.077  13.202  0.6432  0.1087  0.0396
17990TIP3    H175385   4.221   5.074  13.136  0.8183  0.4160  0.2089
17990TIP3    H275386   4.157   5.165  13.238 -0.2908  0.3806 -0.4448
17991TIP3   OH275387   6.291   2.991   5.792  0.4226  0.4332 -0.3007
17991TIP3    H175388   6.320   2.905   5.761  1.7710 -0.5636  3.2492
17991TIP3    H275389   6.199   2.979   5.815  0.3852  0.1867 -0.5779
17992TIP3   OH275390   4.054   0.547  15.691  0.2551 -0.1204 -0.3980
17992TIP3    H175391   4.027   0.517  15.778  0.6894 -0.9338 -0.5321
17992TIP3    H275392   4.100   0.630  15.707 -2.1787  1.2897 -0.1557
17993TIP3   OH275393   4.294   3.029   0.958 -0.2493 -0.3990  0.1503
17993TIP3    H175394   4.267   3.072   1.039 -2.2698 -2.0186  0.4220
17993TIP3    H275395   4.389   3.034   0.958 -0.1915 -0.4949  2.7075
17994TIP3   OH275396   2.217   5.352  12.316 -0.1900 -0.2244 -0.3760
17994TIP3    H175397   2.200   5.376  12.407 -2.8358 -1.3925 -0.4730
17994TIP3    H275398   2.305   5.315  12.317  0.0301  0.2572  1.5891
17995TIP3   OH275399   0.865   3.594   3.403  0.4193 -0.6755 -0.0291
17995TIP3    H175400   0.864   3.648   3.482  1.8542  1.3343 -1.2778
17995TIP3    H275401   0.773   3.589   3.377  0.2986  2.5361 -0.6425
17996TIP3   OH275402   0.070   6.278  17.064 -0.1422  0.5011 -0.0376
17996TIP3    H175403   0.053   6.344  17.131  0.0602  0.4464  0.0682
17996TIP3    H275404   0.098   6.200  17.113 -1.1878  0.0637 -0.1106
17997TIP3   OH275405   6.319   3.878   2.973 -0.4257 -0.0998  0.3685
17997TIP3    H175406   6.380   3.846   2.907  0.3494 -0.9754  1.4523
17997TIP3    H275407   6.358   3.959   3.005  0.9595 -1.3415  2.0135
17998TIP3   OH275408   5.651   0.551   3.012  0.1825  0.5437  0.0542
17998TIP3    H175409   5.743   0.535   3.033  0.0794  0.5122  0.4947
17998TIP3    H275410   5.630   0.486   2.945  1.1461  2.1005 -1.8916
17999TIP3   OH275411   3.517   3.677  11.736  0.1843 -0.6611  0.0695
17999TIP3    H175412   3.565   3.687  11.655  2.3072  0.4081  1.3711
17999TIP3    H275413   3.454   3.749  11.737  1.0544  0.1150 -0.0495
18000TIP3   OH275414   0.380   3.188   4.428  0.0607 -0.5596 -0.7668
18000TIP3    H175415   0.462   3.213   4.384  0.3574  2.5235  1.2725
18000TIP3    H275416   0.312   3.207   4.363  0.7722 -0.8261 -1.6204
18001TIP3   OH275417   3.335   4.708   0.250 -0.0495 -0.4519 -0.2577
18001TIP3    H175418   3.361   4.800   0.241  0.1770 -0.5701 -0.9021
18001TIP3    H275419   3.289   4.704   0.333  0.6669  0.0782  0.1793
18002TIP3   OH275420   4.847   6.029   4.263 -0.4347 -0.5924 -0.0880
18002TIP3    H175421   4.933   6.032   4.305 -0.4271  0.8955 -0.1468
18002TIP3    H275422   4.850   5.951   4.207  0.0122 -1.8906  1.6416
18003TIP3   OH275423   1.409   3.407   2.181 -0.4637  0.1001 -0.2607
18003TIP3    H175424   1.331   3.416   2.236  0.3268  1.5084  0.6945
18003TIP3    H275425   1.430   3.497   2.153  1.0768 -0.1817 -0.1095
18004TIP3   OH275426   4.389   5.039  11.508  0.2032 -0.0375  0.1885
18004TIP3    H175427   4.463   5.030  11.448 -0.6533 -1.3975 -0.7233
18004TIP3    H275428   4.354   5.126  11.491  1.5536  0.6151  0.6178
18005TIP3   OH275429   3.936   6.566   1.171  0.1813 -0.7569  0.2932
18005TIP3    H175430   3.990   6.643   1.185 -0.5796 -0.2284  0.3922
18005TIP3    H275431   3.852   6.601   1.138  0.1021 -1.5918 -0.4378
18006TIP3   OH275432   5.581   4.109   0.929  0.1541 -0.1971  0.2773
18006TIP3    H175433   5.594   4.170   1.001  0.6082  0.6804 -0.5247
18006TIP3    H275434   5.543   4.031   0.970 -0.1768  0.5126  1.3605
18007TIP3   OH275435   6.610   5.559   1.753  0.2571 -0.1830 -0.2351
18007TIP3    H175436   6.597   5.646   1.716  2.0885  0.3292  0.2025
18007TIP3    H275437   6.571   5.564   1.841 -0.6861 -0.1933 -0.6461
18008TIP3   OH275438   4.600   4.280   4.257  0.4336  0.2452 -0.1433
18008TIP3    H175439   4.692   4.255   4.240  1.0387  0.7642  2.0684
18008TIP3    H275440   4.598   4.375   4.246 -0.4689  0.0073 -2.5971
18009TIP3   OH275441   0.215   0.418  15.081 -0.3406  0.4882  0.2655
18009TIP3    H175442   0.213   0.513  15.070 -2.7961  0.4553 -0.1560
18009TIP3    H275443   0.143   0.399  15.141  0.1049 -1.1170  0.3484
18010TIP3   OH275444   4.890   3.496  15.746 -0.3089  0.2238 -0.6271
18010TIP3    H175445   4.881   3.539  15.661 -2.6170 -0.7281 -0.9292
18010TIP3    H275446   4.985   3.482  15.755 -0.0179 -0.2496 -3.3718
18011TIP3   OH275447   5.977   4.624   6.041 -0.1431 -0.0038  0.3880
18011TIP3    H175448   5.952   4.557   6.106  1.3915  1.3274  2.4743
18011TIP3    H275449   6.045   4.583   5.989 -0.0246 -0.4617  0.8907
18012TIP3   OH275450   3.945   0.395   1.787 -0.6579 -0.3543 -0.0205
18012TIP3    H175451   3.955   0.302   1.770 -0.2577 -0.3610  0.2284
18012TIP3    H275452   3.971   0.438   1.705  0.3512 -0.4180  0.2541
18013TIP3   OH275453   1.434   1.534  15.490 -0.4075 -0.1368 -0.4574
18013TIP3    H175454   1.512   1.482  15.469 -0.8930 -0.3695 -1.7951
18013TIP3    H275455   1.397   1.492  15.568  1.7323  1.0351  1.3181
18014TIP3   OH275456   2.385   5.094  14.512 -0.6082  0.3652  0.4370
18014TIP3    H175457   2.411   5.184  14.529 -1.3231  0.4483  1.1654
18014TIP3    H275458   2.417   5.044  14.587 -1.6676  0.3106  0.8705
18015TIP3   OH275459   5.182   1.364   4.958 -0.2874  0.2072  0.4618
18015TIP3    H175460   5.223   1.288   4.918  0.6985  0.7863  0.3395
18015TIP3    H275461   5.208   1.359   5.050 -3.5822 -1.8279  1.4552
18016TIP3   OH275462   0.592   5.937  10.857  0.0679  0.7876  1.2229
18016TIP3    H175463   0.511   5.987  10.852  0.2434  0.9447 -0.8237
18016TIP3    H275464   0.660   6.002  10.869  0.2927  1.1343 -1.4058
18017TIP3   OH275465   0.776   0.990   4.259 -0.3752  0.5264  0.5906
18017TIP3    H175466   0.788   1.031   4.173  0.8470  0.7598  0.8544
18017TIP3    H275467   0.711   0.921   4.244  2.6328 -2.1460 -1.4567
18018TIP3   OH275468   0.724   2.021  15.921 -0.6549  0.2655 -0.4834
18018TIP3    H175469   0.741   1.938  15.966 -3.4404 -1.2071 -1.8454
18018TIP3    H275470   0.650   2.060  15.968  0.0524  1.5550 -0.4006
18019TIP3   OH275471   5.624   0.221  13.756 -0.6985  0.1335 -0.1290
18019TIP3    H175472   5.552   0.247  13.698  0.4617  1.4855 -1.0569
18019TIP3    H275473   5.592   0.241  13.844 -1.3196  1.1264 -0.5546
18020TIP3   OH275474   5.858   5.414   0.266  0.0441 -0.0398 -0.0004
18020TIP3    H175475   5.771   5.453   0.279 -0.2890 -1.1886  1.4939
18020TIP3    H275476   5.882   5.380   0.352  1.7085 -0.3135 -0.5437
18021TIP3   OH275477   0.898   3.407  17.252  0.1040  0.2364  0.4285
18021TIP3    H175478   0.962   3.339  17.229 -0.2546 -0.8080  2.2938
18021TIP3    H275479   0.839   3.411  17.177  2.4806  1.4980 -1.5293
18022TIP3   OH275480   0.790   4.765  13.147  0.2681  0.1144  0.0154
18022TIP3    H175481   0.828   4.691  13.100  0.0903 -0.3197  0.5390
18022TIP3    H275482   0.814   4.750  13.239 -1.1223 -0.1798  0.3673
18023TIP3   OH275483   2.223   5.714   3.819  0.7517 -0.3596  0.1113
18023TIP3    H175484   2.288   5.772   3.858  2.1044 -1.5495 -0.3027
18023TIP3    H275485   2.251   5.626   3.845 -0.5401 -0.9166 -0.3132
18024TIP3   OH275486   3.751   4.279  16.563  0.2374  0.0601 -0.0223
18024TIP3    H175487   3.676   4.325  16.600  0.1598 -0.4500  0.4716
18024TIP3    H275488   3.823   4.297  16.624  0.7013  1.1130 -0.8569
18025TIP3   OH275489   4.329   1.853  11.676 -0.2116  0.1632  0.0576
18025TIP3    H175490   4.395   1.795  11.715 -1.1066  0.4759  2.1153
18025TIP3    H275491   4.378   1.904  11.612  1.0627 -1.2354 -0.1558
18026TIP3   OH275492   3.734   5.590  16.093 -0.8063 -0.8114 -0.4308
18026TIP3    H175493   3.804   5.535  16.058  1.3812  0.0489  2.2389
18026TIP3    H275494   3.670   5.528  16.128  0.6149 -1.7432  0.6535
18027TIP3   OH275495   1.813   5.278  12.174 -0.2908 -0.0111 -0.6010
18027TIP3    H175496   1.869   5.200  12.176  1.3174  1.1082 -0.2772
18027TIP3    H275497   1.729   5.248  12.209  1.5138 -0.6863  3.7947
18028TIP3   OH275498   3.889   6.469  11.017  0.1035  0.1450 -0.6781
18028TIP3    H175499   3.925   6.391  10.975 -0.8292 -0.5641 -0.2056
18028TIP3    H275500   3.851   6.520  10.945  2.0543  0.9551 -1.1997
18029TIP3   OH275501   1.672   4.592  12.571 -0.2876 -0.3430 -0.9271
18029TIP3    H175502   1.599   4.554  12.620  0.4130 -1.2733 -0.5855
18029TIP3    H275503   1.638   4.601  12.482 -0.3678 -2.1646 -1.1197
18030TIP3   OH275504   2.298   4.061  17.168 -0.2764 -0.8032 -0.4023
18030TIP3    H175505   2.390   4.037  17.156  0.1593  0.9872 -0.9486
18030TIP3    H275506   2.290   4.146  17.125 -1.5305  0.3692  1.9798
18031TIP3   OH275507   3.881   5.538   0.849  0.1842  0.3471 -0.3783
18031TIP3    H175508   3.848   5.450   0.833  1.9966 -0.2801 -0.9557
18031TIP3    H275509   3.933   5.558   0.771  1.4089  1.1238  0.5955
18032TIP3   OH275510   4.033   0.833  13.009  0.0927 -0.5912  0.4670
18032TIP3    H175511   3.961   0.841  12.947 -2.0260 -1.4387  2.6461
18032TIP3    H275512   4.080   0.755  12.981  0.1046 -0.1135 -0.9077
18033TIP3   OH275513   6.214   6.517   2.301 -0.5782  0.3498  0.6692
18033TIP3    H175514   6.235   6.454   2.370  1.1785  1.2827  1.0543
18033TIP3    H275515   6.293   6.570   2.292 -0.8911  0.5276 -1.8022
18034TIP3   OH275516   5.834   3.646   3.929 -0.0225  0.1549  0.7464
18034TIP3    H175517   5.925   3.631   3.903 -0.3701  1.8924 -1.7230
18034TIP3    H275518   5.783   3.589   3.872 -0.6486  1.8833 -0.4689
18035TIP3   OH275519   6.045   2.672   3.533 -0.3528  0.3111  0.4059
18035TIP3    H175520   6.078   2.612   3.600 -0.3330 -1.4483 -1.0710
18035TIP3    H275521   6.067   2.629   3.450 -0.2365  2.4594 -0.7584
18036TIP3   OH275522   5.730   0.707   2.351  0.2129 -0.3232 -0.1023
18036TIP3    H175523   5.792   0.762   2.399  1.4522 -1.2651 -0.5643
18036TIP3    H275524   5.674   0.669   2.419 -0.2114  0.9239  0.2776
18037TIP3   OH275525   6.229   4.033   4.718 -0.4492 -0.1967 -0.5021
18037TIP3    H175526   6.275   4.027   4.634 -0.3356 -0.5838 -0.4140
18037TIP3    H275527   6.151   3.978   4.707  0.7900 -2.2575  0.4408
18038TIP3   OH275528   6.645   5.687  15.298  0.1293 -0.2852 -0.0102
18038TIP3    H175529   6.676   5.750  15.232  1.8275 -1.8812 -0.8051
18038TIP3    H275530   6.715   5.622  15.304 -1.1702 -1.6150  1.4606
18039TIP3   OH275531   4.496   1.288  13.693 -0.2938  0.2032  0.0567
18039TIP3    H175532   4.525   1.275  13.784 -0.6375  0.3874  0.1940
18039TIP3    H275533   4.557   1.353  13.658  0.0333 -0.1000  0.0581
18040TIP3   OH275534   3.680   1.282   2.181  0.5288  0.4315  0.3595
18040TIP3    H175535   3.733   1.273   2.101  2.6263  3.3883  1.2656
18040TIP3    H275536   3.596   1.244   2.157  1.6238 -0.4074 -2.6815
18041TIP3   OH275537   0.454   4.672  13.941 -0.2522 -0.2304 -0.0945
18041TIP3    H175538   0.382   4.733  13.926  0.6154  0.9435  0.4375
18041TIP3    H275539   0.415   4.585  13.927 -1.6778  0.3956 -0.1351
18042TIP3   OH275540   3.549   1.816  15.314 -0.0104  0.3252 -0.1775
18042TIP3    H175541   3.477   1.851  15.367 -1.7683 -0.8924 -1.6415
18042TIP3    H275542   3.597   1.894  15.286 -1.0388  1.2241  0.4460
18043TIP3   OH275543   3.880   1.466   2.952 -0.9431 -0.4146 -0.0166
18043TIP3    H175544   3.857   1.408   3.024 -1.4918 -0.4076 -0.1748
18043TIP3    H275545   3.871   1.412   2.874  1.5013 -0.9643  0.0182
18044TIP3   OH275546   0.852   3.800  16.083  0.2531 -0.0753  0.0624
18044TIP3    H175547   0.874   3.811  15.990  2.5263  0.8193  0.6385
18044TIP3    H275548   0.906   3.726  16.112  1.8813  1.4753  1.2736
18045TIP3   OH275549   1.122   4.153   4.009  0.5005 -0.3556 -0.0182
18045TIP3    H175550   1.165   4.071   4.033 -2.2946 -1.7935  0.5077
18045TIP3    H275551   1.122   4.205   4.089  0.9779 -0.4546  0.0498
18046TIP3   OH275552   5.655   5.694   4.141 -0.1052 -0.1757  0.8674
18046TIP3    H175553   5.607   5.726   4.064  0.5509  1.0481  0.9414
18046TIP3    H275554   5.592   5.701   4.213  0.7013  3.5382  1.4175
18047TIP3   OH275555   1.217   0.803  13.901 -0.0545 -0.2148 -0.1379
18047TIP3    H175556   1.139   0.859  13.902  0.2588  0.2181  1.2150
18047TIP3    H275557   1.201   0.738  13.969  0.6958 -0.2241  0.0324
18048TIP3   OH275558   4.369   4.114   3.738 -0.1987  0.0305 -0.0187
18048TIP3    H175559   4.409   4.199   3.758 -0.3319  0.3560 -1.0802
18048TIP3    H275560   4.276   4.133   3.732 -0.3077 -0.3401  0.4515
18049TIP3   OH275561   5.150   5.751   1.914  0.0712 -0.0296  0.1817
18049TIP3    H175562   5.190   5.745   1.827 -0.7026 -2.3399 -0.0902
18049TIP3    H275563   5.057   5.766   1.897 -0.0685 -0.3884  0.6096
18050TIP3   OH275564   4.847   4.689   2.990  0.1922  0.6705 -0.3954
18050TIP3    H175565   4.897   4.732   3.059  1.1409  0.6162 -1.0378
18050TIP3    H275566   4.886   4.602   2.982 -0.2981  0.4644 -0.5937
18051TIP3   OH275567   3.762   4.010   1.961 -0.8680  0.0900  0.3119
18051TIP3    H175568   3.775   3.959   1.881  0.4373  1.1004 -0.1589
18051TIP3    H275569   3.816   3.966   2.027  0.3764  0.8742 -0.1318
18052TIP3   OH275570   0.832   0.010  15.158 -0.1611 -0.3358 -0.4829
18052TIP3    H175571   0.863  -0.080  15.161  0.9950  0.0239 -0.9095
18052TIP3    H275572   0.843   0.042  15.247 -0.8873 -0.6976 -0.2524
18053TIP3   OH275573   5.256   6.190  12.760 -0.2176  0.0353 -0.3105
18053TIP3    H175574   5.335   6.188  12.706 -0.7396 -0.3900 -1.0804
18053TIP3    H275575   5.261   6.111  12.813 -0.3588 -0.2409 -0.7050
18054TIP3   OH275576   1.773   3.099   4.042  0.1834  0.6669  0.0983
18054TIP3    H175577   1.720   3.035   3.995  0.5199 -0.9489  1.7981
18054TIP3    H275578   1.714   3.174   4.055 -0.7161  0.1026 -0.6166
18055TIP3   OH275579   0.921   1.787  15.350 -0.7460 -0.3173  0.0446
18055TIP3    H175580   0.852   1.851  15.365 -0.9294 -0.0743 -1.6257
18055TIP3    H275581   0.878   1.702  15.361 -1.1793 -0.1628 -0.4332
18056TIP3   OH275582   2.951   1.133   5.509  0.2910 -0.1335  0.3757
18056TIP3    H175583   2.962   1.078   5.586  0.0423  0.6490  0.9883
18056TIP3    H275584   2.897   1.081   5.450 -1.8430  0.2583  1.8478
18057TIP3   OH275585   0.178   2.728  14.880  0.9491  0.0683 -0.4499
18057TIP3    H175586   0.136   2.801  14.926  0.3115 -0.1409 -0.6834
18057TIP3    H275587   0.129   2.721  14.798  1.4928 -0.1419 -0.7600
18058TIP3   OH275588   5.649   4.234   2.115  0.0975 -0.1924 -0.1857
18058TIP3    H175589   5.675   4.156   2.067 -1.4293 -0.2017 -1.0791
18058TIP3    H275590   5.650   4.304   2.049 -0.6186  0.0919  0.0932
18059TIP3   OH275591   3.647   4.306   5.995 -0.3666 -0.1468  0.6110
18059TIP3    H175592   3.657   4.401   6.010 -1.1793 -0.1961  1.6229
18059TIP3    H275593   3.608   4.299   5.908  2.4443  0.2853 -0.8027
18060TIP3   OH275594   1.946   5.316   5.300 -0.1946 -0.1093 -0.3150
18060TIP3    H175595   1.948   5.359   5.385  2.4287 -1.0965  0.2098
18060TIP3    H275596   1.938   5.387   5.236 -1.4713  0.6849  0.6782
18061TIP3   OH275597   4.514   2.188  13.044 -0.0321  0.0128 -0.3064
18061TIP3    H175598   4.484   2.148  12.963 -0.2426  1.4767 -0.9584
18061TIP3    H275599   4.435   2.219  13.087  0.1558 -0.0119  0.0637
18062TIP3   OH275600   3.317   0.710   5.367 -0.1025 -0.4506 -0.3310
18062TIP3    H175601   3.248   0.743   5.425 -0.4494 -0.6765 -0.6156
18062TIP3    H275602   3.281   0.630   5.330  0.9407 -1.4675  0.7721
18063TIP3   OH275603   1.234   0.936   6.613  0.0556 -0.2705  0.0200
18063TIP3    H175604   1.179   0.956   6.538  0.9506 -0.3837 -0.6796
18063TIP3    H275605   1.295   0.869   6.582  1.7151  1.0654  0.2409
18064TIP3   OH275606   0.557   0.480  12.923  0.3307 -0.2599  0.0921
18064TIP3    H175607   0.581   0.530  13.002  0.3804 -1.6877  1.0114
18064TIP3    H275608   0.462   0.486  12.918  0.3058 -0.3911  0.4134
18065TIP3   OH275609   0.838   4.410  10.426 -0.0746 -0.0972 -0.0637
18065TIP3    H175610   0.866   4.494  10.389  1.2970 -1.2979 -1.9224
18065TIP3    H275611   0.759   4.387  10.378  0.6409 -0.7591 -0.9509
18066TIP3   OH275612   3.753   2.696   5.833 -0.2484 -0.3514  0.0797
18066TIP3    H175613   3.795   2.660   5.755 -0.5073  1.1207 -0.7857
18066TIP3    H275614   3.673   2.644   5.843  0.2848 -1.2061 -0.0309
18067TIP3   OH275615   4.418   0.195  14.260  0.2151 -0.2123 -0.4059
18067TIP3    H175616   4.456   0.189  14.348 -2.7801  1.0467  1.1202
18067TIP3    H275617   4.440   0.284  14.230  0.7398 -0.4376 -0.7025
18068TIP3   OH275618   0.062   1.508   1.197  0.1730 -0.6953 -0.5493
18068TIP3    H175619   0.019   1.467   1.272  3.1062 -0.7653  1.2431
18068TIP3    H275620   0.072   1.600   1.222 -0.4229 -0.2993 -1.6777
18069TIP3   OH275621   1.096   5.450  15.052  0.0468  0.0154  0.6573
18069TIP3    H175622   1.176   5.399  15.067  0.7411  1.1748  1.0400
18069TIP3    H275623   1.096   5.515  15.122 -0.9378  0.4029  0.3153
18070TIP3   OH275624   3.733   3.512  13.040  0.5968 -0.3672 -0.0318
18070TIP3    H175625   3.639   3.509  13.058  0.3703  0.7644 -0.9222
18070TIP3    H275626   3.764   3.589  13.087  0.8963 -0.1873 -0.5202
18071TIP3   OH275627   1.063   0.558  16.680 -0.7622 -0.0264 -0.5108
18071TIP3    H175628   1.078   0.599  16.595 -1.0079  1.0164 -0.0710
18071TIP3    H275629   1.053   0.632  16.740  0.5312 -0.7340  0.6341
18072TIP3   OH275630   2.013   1.976   3.973 -0.7780 -0.7943  0.5838
18072TIP3    H175631   2.085   2.035   3.996 -1.2207 -0.3474  0.8568
18072TIP3    H275632   2.038   1.892   4.011  0.2719 -1.0265 -0.5364
18073TIP3   OH275633   1.631   2.143  10.789  0.2556 -0.6130 -0.0931
18073TIP3    H175634   1.599   2.053  10.796 -2.1676  0.1312 -0.5684
18073TIP3    H275635   1.655   2.152  10.697 -1.9109 -0.1205 -0.6750
18074TIP3   OH275636   3.210   2.846   6.318 -0.3248  0.3705  0.6235
18074TIP3    H175637   3.283   2.825   6.261  0.2405  1.0284  1.0905
18074TIP3    H275638   3.230   2.802   6.401 -0.6630  0.2097  0.6226
18075TIP3   OH275639   2.738   3.745   4.237  0.3821 -0.4180  0.6588
18075TIP3    H175640   2.754   3.687   4.163  0.4526 -0.0589  0.3880
18075TIP3    H275641   2.715   3.829   4.197  0.7480 -0.1326  1.0374
18076TIP3   OH275642   0.664   1.609  13.647  0.0023  0.0791 -0.1356
18076TIP3    H175643   0.705   1.527  13.674 -1.2866 -0.1970  1.1012
18076TIP3    H275644   0.629   1.592  13.560 -1.0391 -0.9788  0.4778
18077TIP3   OH275645   6.611   5.025   0.365 -0.0561  0.1099 -0.0682
18077TIP3    H175646   6.582   4.992   0.450  0.5709 -0.1607  0.0459
18077TIP3    H275647   6.536   5.073   0.331 -0.7843 -0.9529  0.0186
18078TIP3   OH275648   1.542   5.304   0.620  0.0381  0.3470 -0.2889
18078TIP3    H175649   1.634   5.326   0.635 -0.1238  2.3357 -1.9198
18078TIP3    H275650   1.544   5.247   0.543 -0.1701  1.5533 -1.2086
18079TIP3   OH275651   4.333   5.094  16.255  0.3399 -0.1836 -0.0119
18079TIP3    H175652   4.344   5.027  16.323 -1.1030  0.9043  1.3879
18079TIP3    H275653   4.385   5.168  16.287  0.5500 -0.0418 -0.6750
18080TIP3   OH275654   1.181   0.222  15.037 -0.3486 -0.6669 -0.2972
18080TIP3    H175655   1.249   0.243  14.973  0.5694 -0.0677  0.8253
18080TIP3    H275656   1.206   0.136  15.071 -0.9261 -1.0586 -0.8404
18081TIP3   OH275657   2.753   1.254  17.157  0.0545  0.3652  0.3898
18081TIP3    H175658   2.782   1.319  17.094  0.3098  0.9589  1.1048
18081TIP3    H275659   2.658   1.248  17.143  0.0359  0.8612  0.2850
18082TIP3   OH275660   3.309   0.993   1.918  0.3636 -0.1355  0.5189
18082TIP3    H175661   3.325   0.902   1.944 -1.7285 -1.0919 -1.2502
18082TIP3    H275662   3.224   1.015   1.958  1.1894  1.3723  1.5815
18083TIP3   OH275663   2.511   0.478   5.127  0.0789 -0.1697 -0.0328
18083TIP3    H175664   2.537   0.509   5.040 -0.3148  0.1589 -0.0385
18083TIP3    H275665   2.592   0.475   5.176  0.4630 -1.3627 -0.7158
18084TIP3   OH275666   3.637   0.991  14.792 -0.3203  0.4665 -0.1076
18084TIP3    H175667   3.709   0.938  14.757 -0.2120  1.2403 -1.1247
18084TIP3    H275668   3.560   0.959  14.746 -0.7939 -0.8834  1.5378
18085TIP3   OH275669   0.927   3.276  10.852  0.0707 -0.0011  0.3286
18085TIP3    H175670   0.840   3.315  10.851  0.8176  1.7715 -1.4214
18085TIP3    H275671   0.912   3.183  10.873 -1.9992  0.6510  2.0457
18086TIP3   OH275672   6.147   1.414   0.467 -0.3520 -0.2789 -0.1159
18086TIP3    H175673   6.189   1.462   0.538 -1.5919 -0.0482  0.4707
18086TIP3    H275674   6.058   1.448   0.463 -0.6707 -1.1524 -0.9788
18087TIP3   OH275675   6.630   0.421  14.199  0.4286 -0.1090  0.0028
18087TIP3    H175676   6.722   0.395  14.190  0.6798  0.1813  1.5273
18087TIP3    H275677   6.585   0.341  14.226  0.7372  0.3473  2.0029
18088TIP3   OH275678   5.871   0.305   2.028  0.0860 -0.2284  0.2299
18088TIP3    H175679   5.878   0.213   2.051 -4.9830 -0.8275  0.6115
18088TIP3    H275680   5.862   0.350   2.112 -2.9144 -0.2885  0.0425
18089TIP3   OH275681   6.742   1.589   4.691  0.2973 -0.3099  0.0841
18089TIP3    H175682   6.674   1.555   4.634  1.7792 -1.1101 -1.2930
18089TIP3    H275683   6.708   1.673   4.722 -1.4102 -0.8234 -0.3289
18090TIP3   OH275684   2.835   0.211  12.831 -0.1737  0.2652 -0.1337
18090TIP3    H175685   2.906   0.219  12.895 -0.7370 -1.2658  0.7460
18090TIP3    H275686   2.803   0.122  12.843 -0.4533 -0.0013 -2.4243
18091TIP3   OH275687   4.888   2.733  15.486  0.2789  0.1201 -0.0395
18091TIP3    H175688   4.971   2.708  15.445 -0.0130  0.3005 -0.7603
18091TIP3    H275689   4.835   2.654  15.483  0.1967  0.1806 -0.1615
18092TIP3   OH275690   5.111   1.797  16.479 -0.2015 -0.3135 -0.0766
18092TIP3    H175691   5.023   1.778  16.447  0.1414 -1.9969 -0.0843
18092TIP3    H275692   5.151   1.711  16.491  1.5746  0.4372 -0.4231
18093TIP3   OH275693   5.387   0.322   1.545  0.2973  0.0038  0.1547
18093TIP3    H175694   5.433   0.382   1.604 -2.0863  1.3877  0.7103
18093TIP3    H275695   5.378   0.241   1.596 -2.5495  1.4612  2.2298
18094TIP3   OH275696   4.758   5.824  16.611 -0.5091  0.2612 -0.5969
18094TIP3    H175697   4.737   5.755  16.548 -1.4900  0.9086 -0.9953
18094TIP3    H275698   4.851   5.842  16.596  0.1099 -1.8239  0.3741
18095TIP3   OH275699   2.564   5.829  13.098  0.6993  0.6852  0.6220
18095TIP3    H175700   2.543   5.876  13.178 -2.9583 -0.4181  0.4667
18095TIP3    H275701   2.586   5.897  13.035 -0.5565  1.8830  1.4380
18096TIP3   OH275702   4.124   5.427   5.015 -0.5476  0.1546 -0.8630
18096TIP3    H175703   4.123   5.413   5.110 -0.9609  0.4034 -0.8275
18096TIP3    H275704   4.164   5.513   5.004  1.9398 -0.9489 -1.0768
18097TIP3   OH275705   5.133   1.310   6.215 -0.1671  0.4037  0.1431
18097TIP3    H175706   5.094   1.266   6.290  1.1030  1.3778  1.4148
18097TIP3    H275707   5.164   1.394   6.249 -0.8979  1.5374 -1.8000
18098TIP3   OH275708   1.383   3.592   1.798  0.0813 -0.7347  0.4234
18098TIP3    H175709   1.425   3.525   1.851 -0.3258 -1.1881  0.1865
18098TIP3    H275710   1.289   3.572   1.804 -0.1703  0.6177  1.4467
18099TIP3   OH275711   1.794   6.057  15.581  0.1751  0.9222  0.4432
18099TIP3    H175712   1.809   6.089  15.492 -1.7795  0.6627 -0.0203
18099TIP3    H275713   1.749   6.128  15.625 -2.3329 -0.2907  0.0174
18100TIP3   OH275714   2.754   3.068   3.611 -0.2202  0.6899  0.0972
18100TIP3    H175715   2.711   3.087   3.694  2.2113  1.8564  1.1615
18100TIP3    H275716   2.728   3.140   3.553 -1.2943  0.2844  0.0493
18101TIP3   OH275717   3.374   5.452   3.199  0.1513  0.0971  0.4727
18101TIP3    H175718   3.368   5.370   3.151 -1.6240  0.4031  0.1255
18101TIP3    H275719   3.442   5.436   3.265  1.3133 -0.9325 -0.9155
18102TIP3   OH275720   6.700   5.605   0.359  0.3411 -0.1998  0.1940
18102TIP3    H175721   6.668   5.534   0.303 -1.3664 -0.5736  1.5465
18102TIP3    H275722   6.781   5.634   0.318  1.5012 -3.3992 -0.0482
18103TIP3   OH275723   5.957   2.258   0.872  0.2733  0.9194  0.5476
18103TIP3    H175724   5.931   2.302   0.953  0.0957  1.4214  0.2139
18103TIP3    H275725   6.007   2.181   0.902 -2.6385 -0.8523  1.2862
18104TIP3   OH275726   5.638   0.530  12.830  0.5546 -0.1553 -0.3576
18104TIP3    H175727   5.706   0.576  12.878  0.7854 -1.2384  0.3681
18104TIP3    H275728   5.683   0.493  12.753  0.4185  0.5844 -0.8066
18105TIP3   OH275729   5.996   3.994  10.483  0.3999  0.1306  0.2103
18105TIP3    H175730   6.009   4.070  10.426 -0.1029  0.3294  0.3591
18105TIP3    H275731   6.031   4.022  10.568  1.6856 -0.3680 -0.1367
18106TIP3   OH275732   3.864   5.598   4.651  0.0490  0.2659  0.1890
18106TIP3    H175733   3.886   5.544   4.575  1.5220  0.1023  0.7086
18106TIP3    H275734   3.926   5.571   4.719 -1.3910  0.2406  1.5434
18107TIP3   OH275735   6.405   4.819   2.374  0.3481  0.0113  0.0068
18107TIP3    H175736   6.363   4.821   2.460  0.0922  0.3326 -0.1221
18107TIP3    H275737   6.484   4.872   2.384  0.5206 -0.2686  0.1451
18108TIP3   OH275738   3.185   3.065   4.837  0.1355  0.3791 -0.4641
18108TIP3    H175739   3.127   3.066   4.761  0.5044 -0.4854 -0.7728
18108TIP3    H275740   3.135   3.020   4.905  1.2015 -2.4089 -1.4053
18109TIP3   OH275741   2.857   4.771  12.563 -0.3375  0.1186 -0.0138
18109TIP3    H175742   2.933   4.826  12.545  1.1948 -2.0658 -0.6398
18109TIP3    H275743   2.859   4.758  12.658 -0.3960  0.6587  0.0681
18110TIP3   OH275744   4.389   1.874  10.595  0.6143  0.1378  0.2680
18110TIP3    H175745   4.316   1.821  10.626  1.5386 -1.9333 -0.8807
18110TIP3    H275746   4.436   1.817  10.534  0.8373  2.7630 -2.2854
18111TIP3   OH275747   2.148   4.779  15.302 -0.3477 -0.3288  0.4239
18111TIP3    H175748   2.120   4.868  15.321  2.9798  0.5872  1.7855
18111TIP3    H275749   2.123   4.729  15.380  0.4175  0.1521  0.9995
18112TIP3   OH275750   1.809   3.126   6.157  0.1860 -0.7303 -0.3216
18112TIP3    H175751   1.884   3.076   6.188  0.1257 -0.6175  0.0005
18112TIP3    H275752   1.843   3.177   6.083  0.4604 -0.5718 -0.0874
18113TIP3   OH275753   3.971   1.618  14.689 -0.2283  0.0606  0.2040
18113TIP3    H175754   3.923   1.697  14.664 -0.5308 -0.4212 -0.7680
18113TIP3    H275755   4.047   1.650  14.738 -2.2463  0.8013  3.0734
18114TIP3   OH275756   1.180   3.182   1.648  0.2204  0.1515 -0.6663
18114TIP3    H175757   1.217   3.192   1.560  0.7606 -0.3305 -0.5026
18114TIP3    H275758   1.257   3.177   1.705 -0.1213 -0.0384 -0.2223
18115TIP3   OH275759   5.558   5.648   5.823  0.1561 -0.2449  0.4210
18115TIP3    H175760   5.548   5.575   5.883  1.4898  0.0144  0.9971
18115TIP3    H275761   5.570   5.724   5.880 -1.0684  0.4285 -0.1702
18116TIP3   OH275762   4.771   4.877   2.017 -0.4852  0.0666 -0.0762
18116TIP3    H175763   4.819   4.949   1.975  0.4023  0.3157  1.3252
18116TIP3    H275764   4.711   4.920   2.078  0.8411 -0.3621  1.6048
18117TIP3   OH275765   1.120   1.977   0.408 -0.8347  0.8939  0.2119
18117TIP3    H175766   1.064   1.948   0.335 -0.3894 -1.8971  0.8579
18117TIP3    H275767   1.192   2.023   0.365 -0.5269 -0.7709 -1.2045
18118TIP3   OH275768   2.019   6.112   3.165 -0.1807 -0.2571  0.0675
18118TIP3    H175769   2.112   6.099   3.187 -0.3042  1.8011  2.2295
18118TIP3    H275770   2.013   6.204   3.142 -1.5961 -0.5415 -0.7776
18119TIP3   OH275771   6.159   3.167  12.322 -0.6796 -0.4596  0.5554
18119TIP3    H175772   6.108   3.149  12.401 -2.0023  1.1929  0.1381
18119TIP3    H275773   6.178   3.261  12.327 -0.9898 -0.2731 -1.2032
18120TIP3   OH275774   4.422   4.760   2.602 -0.3896 -0.1432 -0.1110
18120TIP3    H175775   4.516   4.781   2.606 -0.6505  1.6032 -1.6137
18120TIP3    H275776   4.417   4.683   2.545  0.1184  0.0657 -0.4506
18121TIP3   OH275777   1.487   3.676   2.116 -0.3287 -0.0845  0.4139
18121TIP3    H175778   1.500   3.746   2.180  2.2782 -0.2760  0.2189
18121TIP3    H275779   1.550   3.696   2.047  1.4600 -3.2173  0.9405
18122TIP3   OH275780   0.959   2.693   0.086 -0.4553 -0.2797  0.5214
18122TIP3    H175781   0.892   2.685   0.018  0.8497  1.1189 -0.9860
18122TIP3    H275782   0.919   2.651   0.163 -2.3167 -1.1277 -0.8212
18123TIP3   OH275783   0.387   0.463  17.186  0.0298  0.4692  0.6054
18123TIP3    H175784   0.292   0.474  17.186  0.0204  0.8812 -1.6629
18123TIP3    H275785   0.421   0.539  17.233 -0.7122  1.3505 -0.2539
18124TIP3   OH275786   4.577   0.789  12.869 -0.4085  0.0577 -0.5229
18124TIP3    H175787   4.640   0.765  12.938 -0.9479  2.3443  0.8652
18124TIP3    H275788   4.537   0.706  12.844  0.0323 -0.9098  1.6998
18125TIP3   OH275789   6.549   2.979   0.655  0.2440 -0.0164  0.4722
18125TIP3    H175790   6.481   2.944   0.597 -0.1010 -0.4016  1.0934
18125TIP3    H275791   6.597   2.902   0.685 -0.0776  0.0920  1.3015
18126TIP3   OH275792   1.036   1.855   2.505 -0.9364 -0.3775 -0.4072
18126TIP3    H175793   1.075   1.882   2.588 -0.2729 -1.5726 -0.3080
18126TIP3    H275794   1.106   1.806   2.461 -1.2997  0.2021 -1.6473
18127TIP3   OH275795   0.626   5.165  11.205  0.0327  0.0068 -0.1022
18127TIP3    H175796   0.671   5.119  11.133  1.1102 -1.3111  1.3294
18127TIP3    H275797   0.536   5.173  11.175  0.3213 -1.0392 -1.3797
18128TIP3   OH275798   5.765   0.033  13.176 -0.0160 -0.3376 -0.1338
18128TIP3    H175799   5.846  -0.017  13.161  0.4009  0.2558  0.1026
18128TIP3    H275800   5.786   0.121  13.145 -0.4684 -0.0992  0.2341
18129TIP3   OH275801   6.522   5.225   1.292 -0.0320  0.2908 -0.6452
18129TIP3    H175802   6.452   5.273   1.336  0.5330 -0.3179  0.9876
18129TIP3    H275803   6.603   5.257   1.333  0.5312 -0.2510 -1.2899
18130TIP3   OH275804   2.887   5.706   5.577 -0.8535  0.8124 -0.1747
18130TIP3    H175805   2.966   5.662   5.610 -1.5437 -0.0910  0.3441
18130TIP3    H275806   2.877   5.674   5.488  0.1702  2.0736 -0.7633
18131TIP3   OH275807   1.367   3.649  13.491  0.3869  0.3168  0.3656
18131TIP3    H175808   1.446   3.662  13.544  0.2899  0.3445  0.5052
18131TIP3    H275809   1.391   3.680  13.404  0.6930 -0.1682  0.2792
18132TIP3   OH275810   1.809   3.448   1.157 -0.3922  0.2082  0.8949
18132TIP3    H175811   1.754   3.399   1.217 -0.5023 -0.0662  0.5752
18132TIP3    H275812   1.760   3.529   1.140 -0.3544  0.2924  1.1798
18133TIP3   OH275813   1.752   4.540   2.319 -0.0958 -0.7123 -0.0263
18133TIP3    H175814   1.839   4.577   2.332  0.2884 -1.7415  0.3993
18133TIP3    H275815   1.709   4.601   2.259  0.8522 -0.0954 -0.0965
18134TIP3   OH275816   6.682   0.797   0.287  0.1209  0.9301  0.1404
18134TIP3    H175817   6.652   0.716   0.328  2.4370 -1.0649 -1.7992
18134TIP3    H275818   6.700   0.774   0.196  1.7705  3.3779 -0.2799
18135TIP3   OH275819   6.418   4.235   3.972  0.2517 -0.1585  0.2873
18135TIP3    H175820   6.416   4.315   4.025  0.5847  0.5283 -0.7166
18135TIP3    H275821   6.326   4.211   3.961  0.1958 -1.2210  2.4708
18136TIP3   OH275822   1.810   2.538   2.812  0.2238  0.0351 -0.5000
18136TIP3    H175823   1.809   2.604   2.881  1.3810 -0.0737 -0.3595
18136TIP3    H275824   1.718   2.521   2.794 -0.1018  0.1574  0.9332
18137TIP3   OH275825   4.001   2.172   1.519  0.5494  0.3002  0.1200
18137TIP3    H175826   4.005   2.135   1.607  0.0917  0.5447  0.2429
18137TIP3    H275827   3.986   2.096   1.462 -0.7702  0.3212  0.4058
18138TIP3   OH275828   4.758   5.519  11.023  0.7174 -0.0184  0.1348
18138TIP3    H175829   4.813   5.510  10.946  0.2238 -1.0164 -0.1117
18138TIP3    H275830   4.819   5.511  11.097  0.9454 -0.8539 -0.1338
18139TIP3   OH275831   6.529   3.095   5.873  0.2223 -0.4322 -0.2322
18139TIP3    H175832   6.503   3.160   5.939  1.7731  0.2197 -0.2198
18139TIP3    H275833   6.446   3.059   5.841 -0.6498  0.9607  0.3548
18140TIP3   OH275834   3.850   0.094   1.858  0.2805  0.2685 -0.0031
18140TIP3    H175835   3.779   0.066   1.800  0.7767 -0.1051 -0.4321
18140TIP3    H275836   3.924   0.109   1.800  0.9715 -0.7412  0.6004
18141TIP3   OH275837   5.737   3.202   0.702 -0.6111 -0.4788  0.0179
18141TIP3    H175838   5.703   3.271   0.759 -1.3307  0.4995 -1.5288
18141TIP3    H275839   5.673   3.196   0.631 -0.1390 -2.1960 -0.2965
18142TIP3   OH275840   1.974   0.026   0.994  0.1592 -0.6266 -0.4245
18142TIP3    H175841   1.990  -0.068   0.990  2.6510 -0.3186  0.4727
18142TIP3    H275842   2.044   0.065   0.941 -0.6761  0.7326 -0.5756
18143TIP3   OH275843   4.063   4.492  14.700  0.1737  0.2638 -0.0971
18143TIP3    H175844   3.997   4.525  14.761  0.0294 -1.3276  0.6728
18143TIP3    H275845   4.128   4.562  14.694 -1.0926  1.4617 -0.1176
18144TIP3   OH275846   1.517   3.634   3.952  0.0263 -0.3016 -0.0780
18144TIP3    H175847   1.609   3.626   3.925 -0.6923 -0.9938 -2.6224
18144TIP3    H275848   1.490   3.719   3.917 -0.6048 -0.6227 -0.3821
18145TIP3   OH275849   0.389   5.236  11.655  0.0118 -0.5229 -0.1009
18145TIP3    H175850   0.468   5.235  11.602  0.5411 -3.3033  0.6023
18145TIP3    H275851   0.372   5.144  11.676 -2.7673  0.0759  0.7340
18146TIP3   OH275852   1.554   3.971  16.532  0.2374 -0.2468  0.3496
18146TIP3    H175853   1.473   3.949  16.577 -0.0263  0.9820  0.5205
18146TIP3    H275854   1.545   4.065  16.512  0.8274 -0.4941 -1.2446
18147TIP3   OH275855   2.747   4.587  11.642 -0.0713  0.3276 -0.3445
18147TIP3    H175856   2.833   4.548  11.626  1.0129  1.8200  1.4814
18147TIP3    H275857   2.760   4.681  11.626 -1.6602  0.4577 -1.0762
18148TIP3   OH275858   4.299   6.747  16.798  0.6052 -0.2003  0.1180
18148TIP3    H175859   4.207   6.727  16.814  0.4701  0.0724 -0.2949
18148TIP3    H275860   4.303   6.770  16.705  1.1361 -0.4594  0.0712
18149TIP3   OH275861   6.407   3.129  12.878 -0.3199  0.1154 -0.5626
18149TIP3    H175862   6.412   3.034  12.867  0.9876  0.0292  0.4674
18149TIP3    H275863   6.374   3.141  12.967 -2.9537  0.6935 -1.5167
18150TIP3   OH275864   0.998   2.871   5.275 -0.1696  0.0014 -0.0324
18150TIP3    H175865   1.075   2.871   5.218 -0.4072 -2.3690 -0.4472
18150TIP3    H275866   1.026   2.919   5.352  1.2244  0.4923 -0.7977
18151TIP3   OH275867   4.322   4.479  11.129  0.7633  0.7267 -0.9234
18151TIP3    H175868   4.412   4.462  11.157  0.6609  1.2512 -0.2331
18151TIP3    H275869   4.322   4.461  11.035  1.0642 -1.3313 -0.5808
18152TIP3   OH275870   5.242   3.148  15.061  0.7416 -0.5520 -0.0672
18152TIP3    H175871   5.231   3.067  15.011  1.7345 -1.7149  1.4829
18152TIP3    H275872   5.323   3.186  15.027  0.0344  0.0485 -1.1096
18153TIP3   OH275873   2.930   4.753   1.853  0.5176  0.1142 -0.5443
18153TIP3    H175874   2.901   4.844   1.855 -2.6183 -0.7857  1.7672
18153TIP3    H275875   2.897   4.719   1.770 -3.6290 -0.2814  1.0540
18154TIP3   OH275876   0.499   6.762  12.375  0.2792  0.4087 -0.1840
18154TIP3    H175877   0.566   6.830  12.386  0.4836  0.1046  0.5382
18154TIP3    H275878   0.549   6.681  12.364  0.0386  0.1948  0.2606
18155TIP3   OH275879   6.027   0.622  17.227  0.1314 -0.2837 -0.2162
18155TIP3    H175880   5.953   0.660  17.181 -0.4209 -0.0463  0.8618
18155TIP3    H275881   6.033   0.533  17.192 -0.8507 -0.4073 -0.0960
18156TIP3   OH275882   1.697   1.853  14.873  0.0623  0.1253  0.6175
18156TIP3    H175883   1.759   1.826  14.940 -0.1501  1.2266  1.2823
18156TIP3    H275884   1.718   1.945  14.856 -1.5085  0.5844  1.0029
18157TIP3   OH275885   6.208   4.306  14.977 -0.3570  0.6110  0.2085
18157TIP3    H175886   6.151   4.383  14.984 -2.4453 -0.8746  0.5677
18157TIP3    H275887   6.209   4.269  15.066  3.1251  1.8051  0.8151
18158TIP3   OH275888   0.218   6.295  12.506 -0.2136 -0.0552  0.0259
18158TIP3    H175889   0.124   6.294  12.527 -0.1403  0.1048  0.3730
18158TIP3    H275890   0.229   6.226  12.442 -0.6796  0.3279 -0.4795
18159TIP3   OH275891   5.534   5.271  12.379 -0.0350 -0.5555 -0.0452
18159TIP3    H175892   5.535   5.225  12.295 -0.2685  0.7515 -0.7976
18159TIP3    H275893   5.441   5.292  12.394  0.1496  0.4414 -0.1853
18160TIP3   OH275894   5.249   1.772   1.459  0.5435  0.0123 -0.9289
18160TIP3    H175895   5.262   1.858   1.500  1.9056 -0.2819 -0.7113
18160TIP3    H275896   5.281   1.783   1.369  0.6256 -0.2508 -0.9322
18161TIP3   OH275897   6.468   3.646   2.038 -0.1605 -0.5454 -0.3715
18161TIP3    H175898   6.399   3.710   2.059  0.2296 -0.6833  1.4998
18161TIP3    H275899   6.457   3.577   2.103  0.7062 -1.4050 -1.1115
18162TIP3   OH275900   5.009   2.551   5.737 -0.5004 -0.3060 -0.0574
18162TIP3    H175901   4.962   2.476   5.700  1.6403 -1.7997  0.0982
18162TIP3    H275902   5.078   2.512   5.790 -0.3924  1.8118  1.4647
18163TIP3   OH275903   1.692   0.568  16.576  0.1104  0.1988 -0.0909
18163TIP3    H175904   1.662   0.658  16.589  0.0115  0.0233  0.9816
18163TIP3    H275905   1.611   0.518  16.564  0.0736  0.0337  0.7949
18164TIP3   OH275906   6.275   0.159   3.267  0.0183  0.4304  0.2917
18164TIP3    H175907   6.200   0.187   3.214  0.0494  1.4567  0.7732
18164TIP3    H275908   6.325   0.239   3.283  1.8260 -0.3688 -0.9125
18165TIP3   OH275909   3.376   0.782  14.733  0.7151  0.7629  0.0614
18165TIP3    H175910   3.345   0.771  14.643 -0.4017 -1.0498  0.6091
18165TIP3    H275911   3.449   0.720  14.740  0.7635  0.8619  0.4051
18166TIP3   OH275912   3.683   3.256  13.960  0.7524 -0.1464 -0.3250
18166TIP3    H175913   3.740   3.180  13.954  2.2397  0.7403  1.4982
18166TIP3    H275914   3.720   3.308  14.031 -1.0675  1.5727 -0.5487
18167TIP3   OH275915   2.481   5.353   5.401 -0.5555 -0.5777  0.2576
18167TIP3    H175916   2.522   5.419   5.457 -0.8329 -0.0327 -0.1732
18167TIP3    H275917   2.409   5.399   5.359  0.5451 -0.5457 -1.6938
18168TIP3   OH275918   0.117   2.188   0.485  0.4795 -0.2924  0.1806
18168TIP3    H175919   0.022   2.178   0.475  0.7764 -1.0374 -2.3635
18168TIP3    H275920   0.146   2.106   0.525  0.0461  0.0954  1.3419
18169TIP3   OH275921   1.657   5.418   4.366 -0.2851 -0.3806 -0.0565
18169TIP3    H175922   1.717   5.363   4.417  0.2330 -0.5912 -0.8641
18169TIP3    H275923   1.607   5.467   4.431  2.0082  1.1472  0.6948
18170TIP3   OH275924   1.070   2.072  13.039  0.0213 -0.2127  0.1135
18170TIP3    H175925   1.022   2.037  13.115 -0.1858  0.7723  0.4458
18170TIP3    H275926   1.137   2.006  13.021 -0.3053 -0.7422  0.7823
18171TIP3   OH275927   1.063   5.632   6.571  0.0777  0.8341  0.3030
18171TIP3    H175928   0.978   5.603   6.537 -0.4467  0.7011  1.6896
18171TIP3    H275929   1.113   5.551   6.581  0.0827  0.8304  0.2494
18172TIP3   OH275930   1.943   6.328   0.496 -0.4166 -0.6456 -0.0811
18172TIP3    H175931   1.895   6.310   0.577  0.9098 -0.4499  0.7794
18172TIP3    H275932   1.989   6.410   0.512 -0.3335 -0.4714 -1.1291
18173TIP3   OH275933   6.474   4.083   3.067  0.2936  0.3707 -0.2177
18173TIP3    H175934   6.426   4.165   3.077  0.7825  0.5007  1.3095
18173TIP3    H275935   6.566   4.109   3.070  0.4534 -0.2117  0.1568
18174TIP3   OH275936   5.709   1.561   1.034  0.5231  0.0783  0.1013
18174TIP3    H175937   5.697   1.556   1.129 -0.6498 -0.0643 -0.0363
18174TIP3    H275938   5.715   1.470   1.006 -0.1124  0.0758 -0.0563
18175TIP3   OH275939   4.578   6.547   1.897  0.2340 -0.5094 -0.0023
18175TIP3    H175940   4.543   6.587   1.817  0.7201  0.5593  0.3050
18175TIP3    H275941   4.526   6.584   1.968  1.7912  0.9567  0.4418
18176TIP3   OH275942   2.330   2.357   1.913  0.3302  0.1945  0.1802
18176TIP3    H175943   2.376   2.434   1.949  2.7410 -0.1890 -1.8114
18176TIP3    H275944   2.386   2.283   1.937 -0.5938 -0.6347 -0.1835
18177TIP3   OH275945   6.686   6.702   5.984 -0.1646  0.0576 -0.4136
18177TIP3    H175946   6.662   6.721   6.075  0.2578 -0.2683 -0.2306
18177TIP3    H275947   6.739   6.777   5.957 -1.1407  0.6539 -0.7345
18178TIP3   OH275948   0.351   5.509   5.273 -0.1554 -0.1651  0.9904
18178TIP3    H175949   0.409   5.486   5.200 -0.8202  1.0717  0.0311
18178TIP3    H275950   0.333   5.602   5.260 -1.1547 -0.1813  2.1292
18179TIP3   OH275951   2.034   0.103  14.671 -0.0200 -0.2791  0.5066
18179TIP3    H175952   2.068   0.093  14.582 -0.9300 -0.3286  0.1572
18179TIP3    H275953   1.945   0.067  14.667  0.4934 -1.8214  1.8359
18180TIP3   OH275954   1.910   2.735   3.025 -0.2699 -0.1385 -0.5147
18180TIP3    H175955   2.003   2.714   3.026 -0.0656  0.7338 -0.4994
18180TIP3    H275956   1.907   2.828   3.006 -1.0408  0.4724  2.2015
18181TIP3   OH275957   2.228   2.783  11.514  0.3325  0.4430  0.0322
18181TIP3    H175958   2.238   2.775  11.609  0.3515  0.9338  0.0764
18181TIP3    H275959   2.152   2.840  11.504 -0.1569 -0.2482 -0.2597
18182TIP3   OH275960   2.278   5.144   2.052 -0.5258 -0.7789  0.4583
18182TIP3    H175961   2.252   5.202   2.124  1.1864  1.4537 -0.5827
18182TIP3    H275962   2.195   5.112   2.017 -1.5418  0.5106  1.5556
18183TIP3   OH275963   1.222   5.489   0.491 -0.0944  0.1800  0.5128
18183TIP3    H175964   1.129   5.468   0.478 -0.0683  0.2738  0.1455
18183TIP3    H275965   1.221   5.565   0.549 -0.2451  0.0931  0.6247
18184TIP3   OH275966   6.386   3.717  13.370 -0.1461 -0.8077  0.5796
18184TIP3    H175967   6.382   3.654  13.298 -0.6510  0.8618 -0.9269
18184TIP3    H275968   6.480   3.732  13.384 -0.0437 -0.9932  0.1050
18185TIP3   OH275969   4.380   1.620  13.430 -0.2938 -0.1563  0.7148
18185TIP3    H175970   4.331   1.559  13.486 -1.4113 -0.4176 -0.5042
18185TIP3    H275971   4.444   1.660  13.489 -1.5294 -0.3041  2.2264
18186TIP3   OH275972   1.389   1.132   1.500  0.2211 -0.1365  0.6037
18186TIP3    H175973   1.420   1.091   1.581  1.3605 -0.4357  0.0501
18186TIP3    H275974   1.296   1.146   1.514 -0.2793 -2.9958  0.8304
18187TIP3   OH275975   3.853   0.003   0.333 -1.2095  0.2653  0.3092
18187TIP3    H175976   3.818   0.093   0.333  0.7202  1.0712 -0.6338
18187TIP3    H275977   3.943   0.012   0.363  0.0295 -0.8706 -2.6649
18188TIP3   OH275978   3.788   1.617  14.466  0.0892 -0.6021  0.7201
18188TIP3    H175979   3.824   1.705  14.470 -0.2208 -0.1387 -2.9899
18188TIP3    H275980   3.802   1.581  14.553  3.1284  1.9739  1.4753
18189TIP3   OH275981   0.302   5.409   5.530  0.4820 -0.1694  0.6342
18189TIP3    H175982   0.220   5.360   5.526  0.0843  0.3793  1.6654
18189TIP3    H275983   0.330   5.416   5.439  0.3397 -1.9393  0.4219
18190TIP3   OH275984   5.245   3.736   1.345  0.4434  0.5909  0.6315
18190TIP3    H175985   5.196   3.655   1.359 -1.6452  0.8310 -3.7768
18190TIP3    H275986   5.182   3.806   1.362  0.5464  1.0456 -0.7206
18191TIP3   OH275987   3.241   3.206  12.257  1.0641  0.1257  0.2892
18191TIP3    H175988   3.205   3.291  12.230  2.0416  0.9141  1.3920
18191TIP3    H275989   3.272   3.166  12.175  0.7773  0.9150 -0.2164
18192TIP3   OH275990   0.110   4.560   3.381  0.0750  0.0722 -0.0112
18192TIP3    H175991   0.121   4.655   3.386 -0.3857  0.0990  0.5020
18192TIP3    H275992   0.016   4.546   3.367  0.3437 -0.2599 -1.6993
18193TIP3   OH275993   5.231   2.630   5.569 -0.3870 -0.1588  0.4216
18193TIP3    H175994   5.301   2.609   5.631 -0.2871 -0.5463  0.1798
18193TIP3    H275995   5.167   2.680   5.621 -0.8180 -1.3878  1.1097
18194TIP3   OH275996   3.373   6.582  14.715 -0.0709 -0.0237 -0.4981
18194TIP3    H175997   3.464   6.552  14.726  0.5585  1.6273 -0.8946
18194TIP3    H275998   3.341   6.592  14.805  0.3201 -0.1047 -0.3439
18195TIP3   OH275999   0.986   0.557  13.359 -0.4962  0.8179  0.1263
18195TIP3    H176000   1.076   0.529  13.342 -1.0233 -0.6410 -0.4223
18195TIP3    H276001   0.951   0.492  13.421 -1.1635  1.3725  0.3467
18196TIP3   OH276002   1.929   4.517  11.282 -0.1043  0.4369 -0.3105
18196TIP3    H176003   1.862   4.468  11.330 -0.2145 -0.5183 -1.3719
18196TIP3    H276004   1.880   4.588  11.239  0.0653  1.5638  1.2866
18197TIP3   OH276005   5.139   2.708  16.604 -0.6091  0.3788  0.1938
18197TIP3    H176006   5.204   2.658  16.653 -0.1665 -0.6647 -1.3899
18197TIP3    H276007   5.161   2.800  16.621  1.9616  0.0760 -1.0687
18198TIP3   OH276008   2.767   5.258   4.354 -0.0656  0.2010 -0.6762
18198TIP3    H176009   2.832   5.200   4.396  0.4885  1.2865  0.0133
18198TIP3    H276010   2.816   5.338   4.335 -0.8752  0.5229 -1.4270
18199TIP3   OH276011   0.066   2.458  13.524 -0.3035  0.3814  0.0359
18199TIP3    H176012   0.073   2.365  13.548  0.6332  0.4644  0.1355
18199TIP3    H276013   0.142   2.473  13.467 -0.6628  0.9973 -0.2838
18200TIP3   OH276014   4.816   5.471  14.841 -0.0418 -0.8790 -0.1867
18200TIP3    H176015   4.864   5.540  14.796  0.5049 -1.0386  0.1322
18200TIP3    H276016   4.725   5.500  14.841  0.3556  0.5296  1.1602
18201TIP3   OH276017   1.658   0.539   1.764 -0.0924 -0.4150 -0.7640
18201TIP3    H176018   1.703   0.549   1.679 -0.3601 -2.4555 -1.1966
18201TIP3    H276019   1.571   0.506   1.741 -0.0836 -1.2396  0.2948
18202TIP3   OH276020   4.356   4.355  13.264  0.7541 -0.2876 -0.3148
18202TIP3    H176021   4.357   4.289  13.333 -1.1667 -0.2829 -0.2140
18202TIP3    H276022   4.351   4.305  13.183  0.5782 -0.2895 -0.3041
18203TIP3   OH276023   1.872   1.409  13.071  0.5359  0.1574  0.3292
18203TIP3    H176024   1.811   1.465  13.119  2.7105  0.5482  2.8167
18203TIP3    H276025   1.898   1.462  12.995 -1.9499  0.0493 -0.7007
18204TIP3   OH276026   0.173   5.514   0.030 -0.3551  0.2839  0.4230
18204TIP3    H176027   0.199   5.566   0.107  1.9016 -0.0021 -0.0913
18204TIP3    H276028   0.109   5.451   0.064  2.3981 -1.5138  2.6817
18205TIP3   OH276029   2.362   6.717  16.198 -1.0767  0.5090  0.0548
18205TIP3    H176030   2.421   6.737  16.271  1.0006  1.6911 -1.7898
18205TIP3    H276031   2.316   6.800  16.181 -0.1323  0.8324 -1.1041
18206TIP3   OH276032   6.344   0.899   0.146  0.6714 -0.4789 -0.1490
18206TIP3    H176033   6.387   0.922   0.228 -1.0628  2.5454  0.0599
18206TIP3    H276034   6.397   0.941   0.079 -0.6520  1.4839 -0.0549
18207TIP3   OH276035   6.562   3.906  14.566  0.2880  0.7825 -0.1485
18207TIP3    H176036   6.493   3.872  14.624 -0.2170  0.4267 -0.9423
18207TIP3    H276037   6.530   3.990  14.536  1.6058  2.1291  1.9325
18208TIP3   OH276038   1.811   6.127  16.443 -0.5683 -0.6824  0.1198
18208TIP3    H176039   1.726   6.147  16.481 -0.8833 -1.4930 -0.1527
18208TIP3    H276040   1.805   6.036  16.415  0.9555 -1.3322  1.7108
18209TIP3   OH276041   6.357   3.475  15.040  0.2663 -0.8206  0.3204
18209TIP3    H176042   6.360   3.385  15.072  2.3326 -0.5470  1.0032
18209TIP3    H276043   6.437   3.485  14.989 -0.6282  0.2393 -0.9523
18210TIP3   OH276044   1.245   5.407   6.533 -0.2866  0.1760 -0.4816
18210TIP3    H176045   1.294   5.384   6.455 -0.4032 -2.7662  0.1998
18210TIP3    H276046   1.307   5.397   6.605 -1.2059 -1.3049  0.1580
18211TIP3   OH276047   3.402   4.388  13.026  0.2473  0.5215 -0.8039
18211TIP3    H176048   3.321   4.420  12.985 -0.9011 -1.7567 -0.5038
18211TIP3    H276049   3.458   4.362  12.953 -0.5420 -0.6486 -1.0247
18212TIP3   OH276050   1.223   2.555  13.886  0.1083  0.5113  0.0563
18212TIP3    H176051   1.290   2.518  13.943  0.2855  0.2776 -0.3023
18212TIP3    H276052   1.266   2.629  13.842 -0.3691  1.4380  1.0933
18213TIP3   OH276053   1.547   0.269  11.727  0.0399  0.2013  0.0796
18213TIP3    H176054   1.556   0.297  11.635  0.0597  0.1962  0.0801
18213TIP3    H276055   1.479   0.202  11.724 -0.3829  0.6213  0.1548
18214TIP3   OH276056   2.572   6.335  16.715  0.4432 -0.2690  0.2697
18214TIP3    H176057   2.557   6.339  16.809  0.3498 -0.4265  0.2619
18214TIP3    H276058   2.485   6.339  16.676  0.3436 -1.8330  0.2546
18215TIP3   OH276059   5.454   3.316  15.013 -0.2474  0.1120  0.6329
18215TIP3    H176060   5.494   3.340  15.097  0.1638  2.5044 -0.1494
18215TIP3    H276061   5.445   3.400  14.967 -1.2201 -1.0389 -1.3872
18216TIP3   OH276062   0.665   1.278   3.251  0.8350  0.2132  0.0133
18216TIP3    H176063   0.746   1.327   3.240  1.2823 -0.6954 -0.8369
18216TIP3    H276064   0.666   1.250   3.343  1.7847 -0.3082 -0.1492
18217TIP3   OH276065   2.339   0.352  13.955  0.7003 -0.1955  0.2666
18217TIP3    H176066   2.320   0.271  13.908 -1.6407  0.1922  0.4277
18217TIP3    H276067   2.353   0.417  13.885 -2.0339  0.2114 -0.0473
18218TIP3   OH276068   5.945   6.553   3.048 -0.5769 -0.2498  0.1087
18218TIP3    H176069   5.967   6.523   3.136 -0.1364 -1.1258 -0.2935
18218TIP3    H276070   6.028   6.587   3.013 -0.7566  0.1212  0.0324
18219TIP3   OH276071   3.119   6.522   2.557 -0.4112 -0.4381  0.1562
18219TIP3    H176072   3.208   6.495   2.536  0.3120 -0.2332  2.6676
18219TIP3    H276073   3.096   6.585   2.488  1.6648  0.0713 -0.1281
18220TIP3   OH276074   1.514   0.133   1.559  0.0735  0.1814 -0.3936
18220TIP3    H176075   1.591   0.142   1.503  0.0728 -1.4265 -0.7054
18220TIP3    H276076   1.528   0.051   1.606 -0.4288  0.9699  1.2066
18221TIP3   OH276077   3.554   3.721  15.090  0.5255  0.0277  0.1363
18221TIP3    H176078   3.574   3.710  14.997 -0.7494 -0.7342 -0.0670
18221TIP3    H276079   3.640   3.735  15.131  1.0155  1.5023 -1.2812
18222TIP3   OH276080   3.954   1.875  11.950 -0.5409 -0.2258  0.5943
18222TIP3    H176081   4.041   1.863  11.987  0.0299 -2.1400 -1.1424
18222TIP3    H276082   3.962   1.952  11.894  1.0054 -2.0670 -1.9087
18223TIP3   OH276083   0.125   4.087   3.100  0.0202  0.2989  0.4200
18223TIP3    H176084   0.119   4.153   3.169 -0.2433  0.9020 -0.1706
18223TIP3    H276085   0.090   4.130   3.022  2.8673  0.5990 -0.8069
18224TIP3   OH276086   1.336   5.027  12.938 -0.1055 -0.9319  0.2839
18224TIP3    H176087   1.361   4.935  12.949 -2.5857 -1.5911  1.2911
18224TIP3    H276088   1.353   5.066  13.024  2.0006 -0.0921 -0.4558
18225TIP3   OH276089   3.890   5.945   4.818 -0.1111 -0.0660 -0.1275
18225TIP3    H176090   3.916   5.966   4.728  0.3751 -1.1298 -0.2509
18225TIP3    H276091   3.973   5.934   4.865 -0.2405 -3.0270 -0.4133
18226TIP3   OH276092   4.067   4.062  16.640  0.0099 -0.0461 -0.3853
18226TIP3    H176093   4.031   4.065  16.552 -0.1073 -3.8508 -0.6341
18226TIP3    H276094   4.007   4.005  16.689  2.6629 -2.1829  0.6542
18227TIP3   OH276095   6.764   3.811   1.311 -0.1630 -0.0103  0.0658
18227TIP3    H176096   6.850   3.785   1.343 -0.4303  0.1925  0.9801
18227TIP3    H276097   6.754   3.901   1.342 -0.0751  0.5208 -1.3535
18228TIP3   OH276098   0.495   6.455   5.869  0.3029 -0.2807  0.1303
18228TIP3    H176099   0.534   6.368   5.866 -2.9666 -1.9845  1.4685
18228TIP3    H276100   0.535   6.497   5.945 -0.8676 -2.2421  1.9196
18229TIP3   OH276101   3.513   0.224   3.302  0.3710  0.6905 -0.1172
18229TIP3    H176102   3.578   0.268   3.248  0.9175  0.7539  0.5865
18229TIP3    H276103   3.563   0.181   3.371 -0.2112 -0.4710 -0.3950
18230TIP3   OH276104   3.031   3.879   0.540  0.0711  0.8248 -0.3089
18230TIP3    H176105   2.994   3.798   0.506 -0.4547  0.7586  0.3878
18230TIP3    H276106   3.060   3.857   0.629  2.8722  0.5778 -1.2001
18231TIP3   OH276107   6.578   0.863   2.647 -0.6417  0.0525 -0.0677
18231TIP3    H176108   6.561   0.940   2.593 -0.4978  0.4165  0.4012
18231TIP3    H276109   6.610   0.898   2.730  1.1672 -0.5467 -0.4572
18232TIP3   OH276110   4.566   6.551  11.172  0.0343  0.1462 -0.5525
18232TIP3    H176111   4.579   6.492  11.098  0.5067  0.8165 -1.0251
18232TIP3    H276112   4.633   6.526  11.236 -0.3987 -0.4587 -0.3288
18233TIP3   OH276113   0.043   0.985   3.188  0.4782 -0.0246 -0.3062
18233TIP3    H176114  -0.020   1.016   3.254  0.8027 -0.6352  0.2973
18233TIP3    H276115   0.063   1.063   3.137  0.6044  0.5863  0.6353
18234TIP3   OH276116   1.292   6.763  14.152  0.5357 -0.0678 -0.4540
18234TIP3    H176117   1.290   6.683  14.204  0.5128  0.5649  0.5424
18234TIP3    H276118   1.318   6.735  14.064  0.5668 -1.1525 -0.1005
18235TIP3   OH276119   0.466   4.378   1.673  0.1437  0.3380 -0.0920
18235TIP3    H176120   0.453   4.416   1.760  0.1773 -0.1897  0.1460
18235TIP3    H276121   0.546   4.418   1.641  0.3690  0.2083  0.3027
18236TIP3   OH276122   1.052   2.178   5.763 -0.2599  0.1801  0.3431
18236TIP3    H176123   1.117   2.119   5.800 -0.6988  0.6644  1.9899
18236TIP3    H276124   1.102   2.239   5.710  0.2377 -1.3852 -1.0588
18237TIP3   OH276125   2.542   0.632   1.009  0.8366  0.1095  0.0190
18237TIP3    H176126   2.539   0.716   0.963  0.2449 -1.0484 -2.2210
18237TIP3    H276127   2.605   0.646   1.080 -1.1826  3.1910  1.4205
18238TIP3   OH276128   3.295   5.134  15.481  0.1504  0.5487 -0.0982
18238TIP3    H176129   3.226   5.186  15.440 -1.3556 -0.3490  1.1706
18238TIP3    H276130   3.367   5.135  15.419 -1.4515  0.5370 -2.0365
18239TIP3   OH276131   6.094   4.110   2.869 -0.1625  0.4153  0.2058
18239TIP3    H176132   6.186   4.099   2.846 -0.9354 -0.9903 -2.6407
18239TIP3    H276133   6.070   4.028   2.912 -0.8005 -0.7069 -2.0995
18240TIP3   OH276134   4.117   5.818  14.636  0.0348 -0.0827 -0.2632
18240TIP3    H176135   4.034   5.827  14.683 -0.2886 -0.3147 -0.7869
18240TIP3    H276136   4.184   5.822  14.705 -0.3580  0.9940  0.0830
18241TIP3   OH276137   3.173   3.781   5.627  0.3912 -0.3324  0.5234
18241TIP3    H176138   3.117   3.858   5.634  0.2856 -0.2891 -0.6606
18241TIP3    H276139   3.151   3.743   5.542  3.8904  1.0838 -1.2011
18242TIP3   OH276140   5.000   5.319  13.796  0.1801  0.7911  0.0854
18242TIP3    H176141   4.953   5.278  13.723 -0.8667  1.0341  0.6019
18242TIP3    H276142   5.081   5.352  13.757  0.4786 -0.6588 -0.6001
18243TIP3   OH276143   4.568   6.666  17.077 -0.2726  0.1776 -0.6129
18243TIP3    H176144   4.624   6.713  17.016  0.6707  1.6111  1.2501
18243TIP3    H276145   4.594   6.698  17.164 -2.7688 -0.4146  0.4579
18244TIP3   OH276146   5.275   1.393  14.955 -0.3101 -0.1833 -0.8370
18244TIP3    H176147   5.334   1.318  14.951  0.1274  0.0601  0.5939
18244TIP3    H276148   5.258   1.405  15.049  0.1447  1.9069 -0.9832
18245TIP3   OH276149   5.572   3.546   0.408 -0.5919  0.4626  0.1032
18245TIP3    H176150   5.592   3.638   0.426 -0.3181  1.4227 -4.1638
18245TIP3    H276151   5.634   3.497   0.463  0.7129  2.8755  0.9211
18246TIP3   OH276152   0.736   0.034   5.975  0.4133  0.2093 -0.0422
18246TIP3    H176153   0.707   0.077   5.894 -0.1800 -0.9761 -0.4885
18246TIP3    H276154   0.656   0.027   6.028  0.4091 -0.7329 -0.1669
18247TIP3   OH276155   0.062   5.617   1.484  0.3381  0.3010  0.1600
18247TIP3    H176156  -0.021   5.662   1.498 -0.4351 -0.3264 -1.9370
18247TIP3    H276157   0.123   5.687   1.459  0.0428  0.5914  0.2468
18248TIP3   OH276158   0.918   5.325  11.233 -0.5615 -0.0000 -0.5898
18248TIP3    H176159   0.898   5.237  11.265 -1.1194 -0.2595 -1.6303
18248TIP3    H276160   0.965   5.311  11.150 -0.4161  0.6827 -0.6304
18249TIP3   OH276161   4.477   2.721   6.031  0.0130 -0.8027  0.0084
18249TIP3    H176162   4.569   2.723   6.004  0.6698 -1.4977  2.0041
18249TIP3    H276163   4.451   2.630   6.021 -0.0526 -0.8618  0.7126
18250TIP3   OH276164   1.188   2.257   0.559  0.0998 -0.0026  0.4802
18250TIP3    H176165   1.278   2.252   0.591  0.2793 -2.2575 -0.2078
18250TIP3    H276166   1.165   2.167   0.536 -3.0602  0.1080  2.5431
18251TIP3   OH276167   0.908   3.445  11.871  0.0409 -0.1797 -0.0617
18251TIP3    H176168   0.947   3.530  11.892  0.4578 -0.3817  0.0013
18251TIP3    H276169   0.891   3.404  11.956  2.9275 -1.5420 -0.0062
18252TIP3   OH276170   1.897   2.311  15.658 -0.7727  0.5689 -0.0362
18252TIP3    H176171   1.966   2.325  15.593  0.0721 -0.2051  0.6629
18252TIP3    H276172   1.939   2.327  15.742 -0.8132 -1.9253  0.5562
18253TIP3   OH276173   4.793   2.862  15.719 -0.2461  0.1441 -0.1473
18253TIP3    H176174   4.835   2.816  15.646 -0.2427  1.4181 -0.9797
18253TIP3    H276175   4.830   2.950  15.716  0.6751 -0.1097  2.1754
18254TIP3   OH276176   5.637   3.884   0.704  0.0469 -0.4528  0.2165
18254TIP3    H176177   5.701   3.815   0.689  3.1272  1.5766  2.6439
18254TIP3    H276178   5.658   3.951   0.639  0.9322  0.4922  1.4234
18255TIP3   OH276179   3.568   5.266   2.157 -0.0451 -0.7509 -0.2756
18255TIP3    H176180   3.654   5.306   2.168  0.5083 -2.3022  1.5918
18255TIP3    H276181   3.583   5.195   2.094 -0.1129 -0.6083 -0.4534
18256TIP3   OH276182   4.504   3.596  13.138 -0.0961 -0.0898  0.5104
18256TIP3    H176183   4.516   3.523  13.199 -1.5068 -0.5176  0.2981
18256TIP3    H276184   4.427   3.573  13.087  0.7594  0.5032 -1.1162
18257TIP3   OH276185   2.436   5.720  12.221 -0.4344 -0.3385  0.4135
18257TIP3    H176186   2.450   5.679  12.136 -0.7523  2.3717 -1.0357
18257TIP3    H276187   2.483   5.663  12.283  1.0118 -1.6148 -1.7290
18258TIP3   OH276188   5.663   3.845  15.509 -0.5831 -0.0226 -0.4070
18258TIP3    H176189   5.714   3.813  15.584  1.1419  0.1107 -1.4776
18258TIP3    H276190   5.727   3.855  15.439 -1.9754  0.9155 -1.5942
18259TIP3   OH276191   5.521   2.253   5.137 -0.0868  0.3908  0.6030
18259TIP3    H176192   5.490   2.166   5.115 -0.6171 -0.3865  3.8083
18259TIP3    H276193   5.447   2.311   5.121 -0.3153 -0.0277  0.1289
18260TIP3   OH276194   4.296   3.287   3.803 -0.2945 -0.1051  0.2933
18260TIP3    H176195   4.354   3.362   3.820 -1.5969  1.2064 -0.8069
18260TIP3    H276196   4.356   3.213   3.791  1.0669  0.8817  0.7651
18261TIP3   OH276197   3.912   4.060   3.182  0.4466 -0.6939  0.0837
18261TIP3    H176198   3.903   3.970   3.214  0.9480 -0.4309  0.9992
18261TIP3    H276199   3.853   4.111   3.239  0.3664 -0.4032 -0.2567
18262TIP3   OH276200   4.023   5.254   2.733  0.3758 -0.3458 -0.3264
18262TIP3    H176201   3.939   5.301   2.733 -0.6945 -2.1835  0.2790
18262TIP3    H276202   3.999   5.163   2.720  2.2652 -0.9735  0.3665
18263TIP3   OH276203   4.601   4.270   1.121  0.4101  0.2146  0.0834
18263TIP3    H176204   4.546   4.202   1.160  0.9952 -0.5738 -0.4417
18263TIP3    H276205   4.583   4.348   1.173 -0.7927 -0.1658  0.2625
18264TIP3   OH276206   6.608   3.195   4.923  0.0567 -0.3064  0.0130
18264TIP3    H176207   6.630   3.282   4.959 -0.1546  0.0903 -0.7922
18264TIP3    H276208   6.521   3.176   4.959 -0.1448  0.0781 -0.2544
18265TIP3   OH276209   6.279   1.455  17.009 -0.4460 -0.1051 -0.3025
18265TIP3    H176210   6.195   1.478  16.969  0.3077  0.2664 -1.7637
18265TIP3    H276211   6.327   1.538  17.011 -0.5699 -0.0312  1.7764
18266TIP3   OH276212   6.068   0.051   4.770 -0.1537 -0.2928 -0.4394
18266TIP3    H176213   6.015  -0.001   4.710  0.1004 -0.0646 -0.8597
18266TIP3    H276214   6.015   0.055   4.850 -0.7478 -0.1236 -0.8319
18267TIP3   OH276215   2.936   1.695   6.240  0.5757  0.1725  0.0442
18267TIP3    H176216   2.933   1.599   6.236 -1.1972  0.1679  0.4211
18267TIP3    H276217   2.872   1.718   6.308  0.6073  1.6363 -0.3888
18268TIP3   OH276218   0.972   6.587  14.502 -0.7262  0.0971  0.1221
18268TIP3    H176219   0.975   6.549  14.413 -1.3216 -1.4541  0.7235
18268TIP3    H276220   0.930   6.672  14.490  2.8009  1.8103 -1.6388
18269TIP3   OH276221   3.168   4.352   1.741 -0.2467 -0.0351 -0.4651
18269TIP3    H176222   3.152   4.379   1.831  2.2630  0.8420 -0.1969
18269TIP3    H276223   3.197   4.432   1.697  0.9677 -0.9280 -1.3581
18270TIP3   OH276224   0.477   1.275  12.901  0.4697 -0.5457 -0.2161
18270TIP3    H176225   0.529   1.199  12.926  0.1009 -1.0417 -0.9381
18270TIP3    H276226   0.422   1.293  12.978  0.3285 -1.2025 -0.1621
18271TIP3   OH276227   3.528   0.990  12.890 -0.1199 -0.0793 -0.1723
18271TIP3    H176228   3.592   1.012  12.958 -0.8730 -0.0131  0.5188
18271TIP3    H276229   3.469   1.065  12.887 -0.5820 -0.4494 -0.3269
18272TIP3   OH276230   2.563   3.256   4.344  0.5974  0.0686 -0.6934
18272TIP3    H176231   2.606   3.341   4.355  2.2024 -0.6462 -1.0557
18272TIP3    H276232   2.605   3.199   4.408  1.7821 -1.1853 -2.4601
18273TIP3   OH276233   4.542   1.098  13.395  0.3038  0.3773 -0.2740
18273TIP3    H176234   4.603   1.169  13.376  0.4253  0.7943  1.5594
18273TIP3    H276235   4.563   1.031  13.330  0.6063  1.7279 -1.6509
18274TIP3   OH276236   5.724   5.370   4.433  0.0237 -0.4222  0.6326
18274TIP3    H176237   5.730   5.284   4.475 -0.2255 -0.8417 -0.1720
18274TIP3    H276238   5.739   5.432   4.504 -1.2430 -1.0952  1.5188
18275TIP3   OH276239   4.045   5.477   5.319 -0.1997 -0.4739 -0.2090
18275TIP3    H176240   4.049   5.571   5.337  1.9523 -0.4590 -0.4591
18275TIP3    H276241   4.136   5.453   5.301 -0.9454 -2.2721 -1.9149
18276TIP3   OH276242   5.526   2.465  14.468  0.3641 -0.2150  0.1414
18276TIP3    H176243   5.564   2.551  14.455  1.2196  0.1201  3.7783
18276TIP3    H276244   5.432   2.481  14.479  0.2747  0.0012 -0.8974
18277TIP3   OH276245   1.436   2.533  14.465 -0.4752  0.2660  0.2773
18277TIP3    H176246   1.421   2.462  14.403 -0.5583  0.3425  0.2098
18277TIP3    H276247   1.354   2.582  14.465  0.0365  1.1482 -0.6707
18278TIP3   OH276248   1.087   6.408  11.619 -0.3910 -0.1757  0.1857
18278TIP3    H176249   1.068   6.483  11.675  1.9587  1.1964 -0.7271
18278TIP3    H276250   1.002   6.380  11.586 -1.5844  0.4572  2.5160
18279TIP3   OH276251   0.132   0.122  15.657 -0.5339  0.0695  0.0334
18279TIP3    H176252   0.222   0.093  15.639 -1.1108 -1.1609 -1.0568
18279TIP3    H276253   0.097   0.057  15.718 -0.7452  0.4449  0.3163
18280TIP3   OH276254   2.562   1.011  16.510  0.3448 -0.0161  0.0074
18280TIP3    H176255   2.656   1.028  16.501  0.7655 -2.1009 -0.0293
18280TIP3    H276256   2.556   0.954  16.587 -0.9877  0.7673  0.4987
18281TIP3   OH276257   0.719   0.160   4.769 -0.1177 -0.0236  0.0781
18281TIP3    H176258   0.773   0.153   4.690 -0.3723 -0.3018 -0.0724
18281TIP3    H276259   0.735   0.249   4.801  1.8262 -0.6633  1.0371
18282TIP3   OH276260   4.876   3.529  13.195  1.0595 -0.0695 -0.1001
18282TIP3    H176261   4.824   3.449  13.188 -1.2079  1.1662  1.3797
18282TIP3    H276262   4.967   3.499  13.190  0.2849 -2.6195 -0.3433
18283TIP3   OH276263   1.068   4.355  13.990  0.0405 -0.0857 -0.1728
18283TIP3    H176264   1.028   4.425  13.939  0.0704 -1.0823 -1.6365
18283TIP3    H276265   1.046   4.275  13.943 -0.3118 -1.1290  1.6420
18284TIP3   OH276266   6.125   5.434  14.131  0.2975  0.2591 -0.0998
18284TIP3    H176267   6.058   5.374  14.163  0.0543  0.7783  0.4022
18284TIP3    H276268   6.193   5.434  14.200  1.2536 -0.9386 -1.0079
18285TIP3   OH276269   2.536   3.385  16.270  0.1247  0.0760 -0.4174
18285TIP3    H176270   2.563   3.477  16.267  2.4671 -0.5575 -0.8758
18285TIP3    H276271   2.463   3.379  16.207 -1.8241  2.0515  1.4879
18286TIP3   OH276272   4.283   6.242   1.055  0.2272 -0.2086  0.2807
18286TIP3    H176273   4.197   6.268   1.021 -0.3596 -1.2194  0.9167
18286TIP3    H276274   4.265   6.164   1.107  1.3594  0.2658  1.4421
18287TIP3   OH276275   5.134   4.353   3.672  0.0330  0.5250  0.0762
18287TIP3    H176276   5.074   4.390   3.607 -0.4451  0.6525  0.5907
18287TIP3    H276277   5.208   4.322   3.620  0.2935  1.8735 -0.4040
18288TIP3   OH276278   2.327   2.187   6.023 -0.1313  0.4746 -0.0226
18288TIP3    H176279   2.323   2.091   6.028  0.3600  0.4166 -0.6585
18288TIP3    H276280   2.403   2.205   5.967  0.2878  1.2546  0.7868
18289TIP3   OH276281   3.049   1.770   4.533  0.6133  0.0643 -0.1914
18289TIP3    H176282   3.011   1.755   4.619 -1.2109  0.0907 -0.9497
18289TIP3    H276283   2.979   1.747   4.471  0.5298  3.4921 -1.6088
18290TIP3   OH276284   2.960   4.800  15.089  0.6443 -0.2070  0.2258
18290TIP3    H176285   2.965   4.895  15.085 -0.4803 -0.1779 -1.4926
18290TIP3    H276286   2.898   4.782  15.160 -1.7357  0.5351 -1.4975
18291TIP3   OH276287   0.909   0.063  11.522  0.0810  0.2067  0.2717
18291TIP3    H176288   0.914   0.156  11.543 -1.3750  0.2295  0.5835
18291TIP3    H276289   0.997   0.030  11.543  0.9867  1.6903 -0.9392
18292TIP3   OH276290   2.185   1.047  15.091  0.5695 -0.4901 -0.0925
18292TIP3    H176291   2.132   1.023  15.167  0.4278 -1.3421 -0.4533
18292TIP3    H276292   2.275   1.026  15.116  0.3843 -2.0711 -0.6362
18293TIP3   OH276293   2.157   6.171  15.241 -0.0817  0.2484  0.3475
18293TIP3    H176294   2.180   6.176  15.333 -0.9275  0.6775  0.5399
18293TIP3    H276295   2.240   6.186  15.195 -0.0200  2.2670  1.0147
18294TIP3   OH276296   5.673   0.346   3.887  0.3441 -0.1608 -0.1081
18294TIP3    H176297   5.688   0.253   3.876 -0.2539 -0.1066 -1.6783
18294TIP3    H276298   5.608   0.368   3.820  2.0647  1.7729 -1.2662
18295TIP3   OH276299   2.182   0.435  16.717 -0.9758 -0.4933  0.0759
18295TIP3    H176300   2.152   0.391  16.797 -1.4692 -0.2247  0.0371
18295TIP3    H276301   2.102   0.458  16.670 -0.6992 -0.2199 -0.2686
18296TIP3   OH276302   2.453   0.247   3.807 -0.0327  0.1191 -0.2387
18296TIP3    H176303   2.481   0.167   3.852  1.2541 -0.0776 -1.2956
18296TIP3    H276304   2.534   0.297   3.796 -0.9008  1.8422  0.8641
18297TIP3   OH276305   5.048   1.872  16.743  0.5657  0.1269 -0.4082
18297TIP3    H176306   5.110   1.841  16.810 -1.8194 -0.7194  1.5541
18297TIP3    H276307   5.080   1.835  16.661  1.2374 -2.4620  0.9300
18298TIP3   OH276308   2.360   4.318   0.747 -0.1649 -0.0208  0.2394
18298TIP3    H176309   2.354   4.412   0.762 -0.1618  0.0643 -0.3057
18298TIP3    H276310   2.433   4.290   0.803 -0.5183  0.2029  0.8297
18299TIP3   OH276311   0.918   3.787   2.643 -0.2245  0.0381 -0.6980
18299TIP3    H176312   0.985   3.763   2.707  1.2661  1.3743 -1.6778
18299TIP3    H276313   0.883   3.870   2.675 -1.9186 -0.9249  0.1230
18300TIP3   OH276314   2.157   2.660  14.432  0.0876 -0.1691 -0.1861
18300TIP3    H176315   2.070   2.673  14.395  1.0988  2.1031 -2.0443
18300TIP3    H276316   2.144   2.599  14.505 -3.4243  1.8465  1.1029
18301TIP3   OH276317   1.359   0.026   4.742  0.1157 -0.0630  0.2898
18301TIP3    H176318   1.266   0.042   4.729 -0.0320 -0.9957  0.1217
18301TIP3    H276319   1.364  -0.031   4.819  0.7252  1.9614  1.8475
18302TIP3   OH276320   4.829   0.378   4.768  0.0670 -0.1299 -0.5230
18302TIP3    H176321   4.819   0.320   4.843  0.5936 -0.7101 -0.8831
18302TIP3    H276322   4.741   0.407   4.747 -0.0224  0.5490  0.7081
18303TIP3   OH276323   5.457   0.411  12.090 -0.1630 -0.0771 -0.0816
18303TIP3    H176324   5.463   0.340  12.154  0.7283  0.7801  0.8210
18303TIP3    H276325   5.391   0.470  12.126  0.9471  0.8403  0.5278
18304TIP3   OH276326   3.542   2.287  15.992  0.1016 -0.3817 -0.4850
18304TIP3    H176327   3.493   2.209  16.016  1.0220 -1.0147 -0.6120
18304TIP3    H276328   3.512   2.307  15.903 -1.8344  0.7972  0.3619
18305TIP3   OH276329   0.443   1.867   2.510 -0.0872 -0.1709  0.4259
18305TIP3    H176330   0.389   1.910   2.444  1.8159  0.5202 -0.7518
18305TIP3    H276331   0.467   1.937   2.571  0.8489 -0.0933 -0.0165
18306TIP3   OH276332   4.402   3.656   1.716  0.6662 -0.7630 -0.4232
18306TIP3    H176333   4.383   3.743   1.750  1.8236 -0.3866 -0.6861
18306TIP3    H276334   4.330   3.637   1.655  1.1512  0.6395 -1.4870
18307TIP3   OH276335   1.474   3.558   5.603 -0.1914  0.3433 -0.0494
18307TIP3    H176336   1.475   3.622   5.532  1.0633 -0.1945 -0.5426
18307TIP3    H276337   1.507   3.606   5.679 -0.8280  0.7146  0.0048
18308TIP3   OH276338   4.355   1.632  12.689  0.2284 -0.5197  0.2988
18308TIP3    H176339   4.433   1.627  12.744  0.1633 -0.4054  0.4040
18308TIP3    H276340   4.339   1.725  12.678  0.3862 -0.5419 -0.1262
18309TIP3   OH276341   0.936   3.762  11.632 -0.0670 -0.6080 -0.2656
18309TIP3    H176342   0.871   3.807  11.578 -0.3019 -1.9550 -1.1493
18309TIP3    H276343   0.939   3.813  11.713 -0.6272  0.7349 -1.0534
18310TIP3   OH276344   2.425   0.444   1.784 -0.0328 -0.2614 -0.7022
18310TIP3    H176345   2.457   0.388   1.855 -0.4441 -0.1186 -0.4057
18310TIP3    H276346   2.417   0.384   1.709 -3.1995 -1.2854  0.3211
18311TIP3   OH276347   1.788   2.262  13.321  0.4249  0.3751 -0.0954
18311TIP3    H176348   1.838   2.282  13.399  1.7901  0.9700 -1.0772
18311TIP3    H276349   1.778   2.167  13.321 -0.9893  0.4802  1.5847
18312TIP3   OH276350   1.060   6.645  16.605  0.1615  0.5402 -0.6243
18312TIP3    H176351   0.981   6.591  16.601  0.5178  0.0306 -0.9453
18312TIP3    H276352   1.031   6.733  16.581 -0.4572  0.5252  0.0559
18313TIP3   OH276353   1.504   2.914  12.014  0.2264 -0.3007 -0.0169
18313TIP3    H176354   1.451   2.861  12.073 -0.4960  2.1986  1.7629
18313TIP3    H276355   1.448   2.928  11.937 -1.7784  2.0496  1.6999
18314TIP3   OH276356   2.679   1.320  14.457  0.1668 -0.4588  0.2310
18314TIP3    H176357   2.643   1.305  14.369 -2.7112 -0.0499  1.2257
18314TIP3    H276358   2.660   1.238  14.504 -0.8310  0.2951  1.1860
18315TIP3   OH276359   2.005   1.392  14.294  0.6613  0.3012 -0.3964
18315TIP3    H176360   1.912   1.370  14.285  0.3451  0.9942  0.9088
18315TIP3    H276361   2.050   1.324  14.244 -0.5072 -0.6077 -0.2705
18316TIP3   OH276362   6.560   2.432   0.617 -0.1874 -0.1602  1.0359
18316TIP3    H176363   6.509   2.478   0.684  0.0421 -1.0064  1.8140
18316TIP3    H276364   6.546   2.339   0.636  1.9279 -0.4439  1.5302
18317TIP3   OH276365   3.098   0.986   4.606  0.3796  0.0645  0.0046
18317TIP3    H176366   3.122   1.079   4.615 -0.2922  0.1963  0.5090
18317TIP3    H276367   3.178   0.944   4.576  1.2978  0.4773  1.7206
18318TIP3   OH276368   1.020   6.184   4.848 -0.3552  0.0612  0.1891
18318TIP3    H176369   1.042   6.123   4.779 -2.2498 -1.6969  1.0373
18318TIP3    H276370   0.924   6.193   4.843 -0.2123  2.5604  0.4605
18319TIP3   OH276371   3.846   1.127  10.607  0.6564 -0.0967 -0.2348
18319TIP3    H176372   3.812   1.205  10.652 -0.8754 -1.3079  0.8261
18319TIP3    H276373   3.779   1.060  10.622  0.4381 -0.8199 -3.7234
18320TIP3   OH276374   2.936   6.462  12.917  0.4659 -0.1875 -0.0093
18320TIP3    H176375   2.917   6.556  12.919 -1.3507 -0.4991 -0.6649
18320TIP3    H276376   2.998   6.451  12.845  0.6170  0.5005  0.0119
18321TIP3   OH276377   0.033   4.994   1.327 -0.0426  0.0098  0.7167
18321TIP3    H176378   0.021   5.024   1.417 -0.6547  1.7282  0.0973
18321TIP3    H276379  -0.047   4.946   1.307  0.5484 -1.3227  1.4090
18322TIP3   OH276380   2.020   0.273   4.972  0.4421  0.1111  0.5460
18322TIP3    H176381   1.984   0.253   4.885  1.4468  0.7460 -0.0405
18322TIP3    H276382   2.081   0.202   4.989 -0.4373 -0.5195  1.1737
18323TIP3   OH276383   1.344   0.811   2.168  0.2547 -0.7534  0.6410
18323TIP3    H176384   1.364   0.877   2.102 -0.6070  0.0925  1.2021
18323TIP3    H276385   1.370   0.728   2.128  1.4192 -0.0707 -0.0451
18324TIP3   OH276386   2.711   0.301   1.486 -0.2093 -0.4812 -0.1024
18324TIP3    H176387   2.750   0.386   1.506  0.1565 -0.6632 -0.0292
18324TIP3    H276388   2.667   0.275   1.567  0.1049 -0.5894  0.0362
18325TIP3   OH276389   4.799   3.514   0.489 -0.4699  0.2477 -0.0546
18325TIP3    H176390   4.760   3.470   0.413 -1.2733  0.7864  0.0395
18325TIP3    H276391   4.839   3.593   0.453 -0.5431  0.3266  0.0408
18326TIP3   OH276392   3.420   0.140  14.604  0.0866 -0.7355  0.2100
18326TIP3    H176393   3.455   0.052  14.622  0.2801 -1.0239 -1.4393
18326TIP3    H276394   3.344   0.124  14.548  0.7277  0.1865 -0.9462
18327TIP3   OH276395   0.519   5.779  11.268 -0.6032 -0.3980 -0.0381
18327TIP3    H176396   0.503   5.690  11.299 -0.8039 -0.3672 -0.0560
18327TIP3    H276397   0.437   5.807  11.228 -0.3100 -0.4737 -0.7000
18328TIP3   OH276398   5.726   2.173  12.483 -0.4608 -0.2857  0.2008
18328TIP3    H176399   5.673   2.170  12.563  1.5223  1.3224  1.7159
18328TIP3    H276400   5.806   2.124  12.506  0.6639  1.2310 -0.3008
18329TIP3   OH276401   5.808   5.724  13.639  0.0331  0.2744  0.7772
18329TIP3    H176402   5.826   5.777  13.716  1.0167  0.1957  0.6197
18329TIP3    H276403   5.861   5.763  13.570  0.8749 -0.9562  0.6828
18330TIP3   OH276404   1.339   6.155   3.101  0.3038  0.4036 -0.4868
18330TIP3    H176405   1.279   6.114   3.039 -2.8416  0.3521  2.2652
18330TIP3    H276406   1.320   6.248   3.095 -0.7170  0.3175  0.9385
18331TIP3   OH276407   4.729   1.018  15.425 -0.2441 -0.4580  0.0605
18331TIP3    H176408   4.808   0.967  15.409  0.4984 -0.0566  2.1775
18331TIP3    H276409   4.676   0.964  15.484 -0.6604  0.0886  0.1991
18332TIP3   OH276410   5.362   4.875  12.596  0.7216 -0.3886  0.0671
18332TIP3    H176411   5.272   4.897  12.570  0.6850 -1.5978 -0.9911
18332TIP3    H276412   5.399   4.956  12.628 -1.3710 -0.2694  2.4512
18333TIP3   OH276413   4.115   2.620   5.261 -0.5224  0.2938 -0.0145
18333TIP3    H176414   4.121   2.715   5.255  2.1075  0.1414 -1.1515
18333TIP3    H276415   4.149   2.599   5.349  0.8166  0.3422 -0.4970
18334TIP3   OH276416   5.346   1.748   1.127  0.4589  0.1347  0.1515
18334TIP3    H176417   5.391   1.814   1.074  0.7720  0.0504  0.3110
18334TIP3    H276418   5.253   1.761   1.107  0.5372  0.4452 -0.0220
18335TIP3   OH276419   4.739   3.692  13.033  0.2288 -0.1746  0.0587
18335TIP3    H176420   4.669   3.659  13.090 -0.0614  1.9386  1.0222
18335TIP3    H276421   4.819   3.658  13.072  0.0280  1.1452  1.7321
18336TIP3   OH276422   1.034   2.428   4.371 -0.2364  0.3497 -0.3775
18336TIP3    H176423   1.099   2.419   4.441 -1.3861  0.8732  0.7892
18336TIP3    H276424   0.988   2.344   4.371  1.6717 -0.8353 -2.5773
18337TIP3   OH276425   3.431   6.104   3.762 -0.7799 -0.3523  0.6387
18337TIP3    H176426   3.342   6.102   3.728 -1.2669 -1.0023  1.8856
18337TIP3    H276427   3.424   6.150   3.845  0.0599 -0.3965  0.7452
18338TIP3   OH276428   4.385   5.118   0.424 -0.1892  0.1068  0.6000
18338TIP3    H176429   4.414   5.043   0.371 -2.5116  1.7240 -3.4063
18338TIP3    H276430   4.455   5.182   0.415 -0.1660  0.0270  0.1505
18339TIP3   OH276431   2.846   3.045  12.106  0.2087 -0.1865  0.0746
18339TIP3    H176432   2.866   3.136  12.130  0.1261 -0.7040  2.2711
18339TIP3    H276433   2.832   3.048  12.011  0.0576  2.1184  0.1154
18340TIP3   OH276434   2.243   3.915  14.776 -0.4797  0.0350 -0.3294
18340TIP3    H176435   2.274   3.862  14.850 -2.6368 -1.0113 -0.0799
18340TIP3    H276436   2.311   3.981  14.763  0.9043 -0.9884  1.2874
18341TIP3   OH276437   0.994   0.899  10.854  0.2031 -0.3639  0.4148
18341TIP3    H176438   0.942   0.922  10.931 -1.3431  1.3733 -1.0390
18341TIP3    H276439   1.021   0.984  10.817  1.1875 -1.1475 -0.7800
18342TIP3   OH276440   4.865   5.579  16.454 -0.7677  0.2032 -0.2723
18342TIP3    H176441   4.854   5.542  16.366  0.8027 -3.4101  0.8644
18342TIP3    H276442   4.949   5.625  16.450  0.2034 -1.4807 -0.3054
18343TIP3   OH276443   6.552   3.304   2.658 -0.1403  0.1132 -0.0917
18343TIP3    H176444   6.471   3.256   2.673  0.7671 -1.3738  0.3887
18343TIP3    H276445   6.614   3.265   2.720  1.0301  0.9622 -0.6937
18344TIP3   OH276446   0.685   0.505  12.491 -0.3632  0.0244 -0.2179
18344TIP3    H176447   0.629   0.446  12.541 -0.8050 -0.0725 -0.8208
18344TIP3    H276448   0.694   0.464  12.405  0.0035  0.4216 -0.3743
18345TIP3   OH276449   6.111   5.847   1.093  0.6047 -0.0841 -0.4783
18345TIP3    H176450   6.193   5.801   1.076  1.5693  1.0985  0.8033
18345TIP3    H276451   6.117   5.928   1.042  0.5333  0.3226  0.1539
18346TIP3   OH276452   0.826   3.442  11.299  0.0926 -0.0506 -0.3070
18346TIP3    H176453   0.897   3.379  11.287  0.4471  0.2761  0.0330
18346TIP3    H276454   0.773   3.434  11.219 -0.3448 -1.3607  0.0833
18347TIP3   OH276455   5.566   2.784   4.710  0.7277 -0.1635 -0.3538
18347TIP3    H176456   5.610   2.857   4.668  0.3518  1.6426  2.1322
18347TIP3    H276457   5.566   2.807   4.803 -0.4025 -2.8299  0.3955
18348TIP3   OH276458   4.321   1.253  13.494 -0.4481 -0.2540  0.2648
18348TIP3    H176459   4.361   1.278  13.577 -0.9021 -1.4324  0.8556
18348TIP3    H276460   4.393   1.218  13.442 -0.0166  1.1710 -0.1559
18349TIP3   OH276461   0.455   1.746  11.753  0.1026 -0.5847  0.3892
18349TIP3    H176462   0.395   1.785  11.817  1.0497  1.5759  0.0597
18349TIP3    H276463   0.534   1.801  11.758  1.5782 -2.5341 -0.1188
18350TIP3   OH276464   3.245   1.467   4.954 -0.1808  0.0637  0.3078
18350TIP3    H176465   3.314   1.437   4.895 -0.0834  1.3306 -0.2665
18350TIP3    H276466   3.254   1.413   5.032  0.3845 -0.9111 -0.4162
18351TIP3   OH276467   0.978   0.299  15.252 -0.9436  0.0109  0.6971
18351TIP3    H176468   0.975   0.204  15.267 -0.2052 -0.2679 -0.6768
18351TIP3    H276469   0.995   0.307  15.158  0.4513  1.4869  1.0233
18352TIP3   OH276470   6.707   1.342  17.139 -0.4164 -0.5332  0.0838
18352TIP3    H176471   6.664   1.334  17.224  0.4596 -4.3726  0.3474
18352TIP3    H276472   6.636   1.368  17.079 -1.2213  1.4039  1.7382
18353TIP3   OH276473   4.308   3.717  12.200 -0.5744  0.5728  0.1946
18353TIP3    H176474   4.284   3.809  12.214 -0.1664  0.5856  0.8922
18353TIP3    H276475   4.399   3.720  12.173 -0.5146  0.3683  0.3682
18354TIP3   OH276476   2.106   1.416   5.150 -0.0642  0.7142  0.4163
18354TIP3    H176477   2.141   1.458   5.071 -0.3610  0.8828  0.3750
18354TIP3    H276478   2.140   1.326   5.146  1.0215  1.0960  0.7905
18355TIP3   OH276479   6.775   4.257   3.338  0.2625  0.0102 -0.0182
18355TIP3    H176480   6.789   4.267   3.432  3.3031 -0.8960 -0.2590
18355TIP3    H276481   6.721   4.332   3.313 -1.5997 -0.3414  2.5855
18356TIP3   OH276482   5.292   2.478  13.821 -0.0830  0.5132 -0.3693
18356TIP3    H176483   5.304   2.556  13.874  0.7375  0.7012 -0.8179
18356TIP3    H276484   5.378   2.462  13.781 -0.6914  0.4296 -1.6989
18357TIP3   OH276485   2.896   1.618   2.135 -0.8398 -0.2261 -0.3338
18357TIP3    H176486   2.863   1.529   2.135 -0.6676 -0.2898 -0.1596
18357TIP3    H276487   2.818   1.673   2.144 -0.9101 -0.3695 -0.0841
18358TIP3   OH276488   6.144   3.871   3.776  0.5858  0.2130  0.1601
18358TIP3    H176489   6.071   3.839   3.723 -0.7038  1.1778  1.2859
18358TIP3    H276490   6.158   3.804   3.842  1.6639 -0.6122 -0.8584
18359TIP3   OH276491   2.685   1.697  14.555  0.1994 -0.0587  0.0316
18359TIP3    H176492   2.705   1.695  14.461  1.1751 -1.3445  0.2394
18359TIP3    H276493   2.740   1.766  14.590 -0.0823  0.3497 -0.3128
18360TIP3   OH276494   2.333   4.477  14.909 -0.0164  0.0897 -0.2882
18360TIP3    H176495   2.408   4.418  14.922  0.1043  0.1195 -0.8089
18360TIP3    H276496   2.371   4.564  14.912 -0.2189  0.1488  0.6311
18361TIP3   OH276497   1.105   4.407   5.620 -0.3125 -0.9090  0.4087
18361TIP3    H176498   1.115   4.420   5.714  1.2458 -1.2933  0.3294
18361TIP3    H276499   1.088   4.495   5.585  1.0793 -0.4411  0.8493
18362TIP3   OH276500   1.646   1.586   3.331 -0.1534 -0.1005 -0.1279
18362TIP3    H176501   1.681   1.670   3.360 -0.0783  0.1567 -0.9341
18362TIP3    H276502   1.551   1.596   3.339 -0.1408  0.0276 -0.1279
18363TIP3   OH276503   1.185   5.918  13.277 -0.2504  0.1473  0.6622
18363TIP3    H176504   1.225   5.888  13.195 -0.0407  3.1405 -0.4547
18363TIP3    H276505   1.256   5.914  13.341  0.0538 -0.6125  0.2880
18364TIP3   OH276506   1.283   4.239  11.578 -0.9354  0.0228 -0.8517
18364TIP3    H176507   1.224   4.163  11.588  2.0028 -2.2872  0.4625
18364TIP3    H276508   1.323   4.227  11.491 -1.6471  1.0633 -1.3468
18365TIP3   OH276509   0.959   0.231   0.193  0.3661  0.1067  0.4087
18365TIP3    H176510   0.880   0.177   0.189 -0.7209  1.6933 -1.7581
18365TIP3    H276511   0.997   0.225   0.106  3.1677 -1.2251  1.5986
18366TIP3   OH276512   5.736   3.157   3.628 -0.6992  0.1922  0.1003
18366TIP3    H176513   5.823   3.194   3.610 -0.5908 -0.5880 -1.0885
18366TIP3    H276514   5.732   3.151   3.724  0.2101  1.0475  0.2081
18367TIP3   OH276515   1.992   1.220  15.436 -0.3019  0.0447 -0.1799
18367TIP3    H176516   2.012   1.130  15.461  0.6765 -0.2752 -1.8973
18367TIP3    H276517   2.076   1.255  15.406 -0.3110  2.0650  1.8445
18368TIP3   OH276518   6.449   3.093   0.860 -0.2647 -0.7486 -0.5811
18368TIP3    H176519   6.397   3.162   0.818  1.4394  0.8284 -0.2025
18368TIP3    H276520   6.496   3.051   0.788 -0.2415 -0.5918 -0.6572
18369TIP3   OH276521   3.305   6.551   5.645  0.1862  0.0616 -0.2320
18369TIP3    H176522   3.300   6.463   5.681  0.4437  0.1504  0.0241
18369TIP3    H276523   3.395   6.579   5.661 -0.0300  0.5628  0.1501
18370TIP3   OH276524   0.489   0.337  14.800 -0.1925 -0.4333  0.6088
18370TIP3    H176525   0.560   0.282  14.835 -0.4105 -0.1813  1.4847
18370TIP3    H276526   0.524   0.426  14.802  0.2838 -0.5502 -1.1363
18371TIP3   OH276527   3.327   0.649  16.374 -0.0723  0.1747  0.2695
18371TIP3    H176528   3.338   0.569  16.323 -1.8757 -0.6557  1.0774
18371TIP3    H276529   3.319   0.718  16.309  0.8933 -0.3597 -0.4600
18372TIP3   OH276530   0.350   4.794   0.882  0.0891  0.1466  0.2902
18372TIP3    H176531   0.418   4.841   0.930  0.0479 -0.0314  0.5281
18372TIP3    H276532   0.386   4.779   0.795  1.8095 -3.0467  1.3976
18373TIP3   OH276533   4.422   6.387   6.328 -0.3986 -0.0111 -0.6086
18373TIP3    H176534   4.342   6.335   6.322 -1.4204  1.3748  0.4605
18373TIP3    H276535   4.396   6.467   6.374  1.6092  0.4517 -0.1681
18374TIP3   OH276536   0.545   2.850  14.503  0.2408 -0.4770 -0.1229
18374TIP3    H176537   0.621   2.884  14.550  0.5386 -0.4095 -0.6353
18374TIP3    H276538   0.507   2.785  14.562  1.3665 -1.3413 -0.2975
18375TIP3   OH276539   5.170   4.997  11.576  0.2240  0.1541 -0.0155
18375TIP3    H176540   5.091   5.038  11.612 -0.0763 -0.6872  0.3083
18375TIP3    H276541   5.177   4.913  11.623 -0.3684 -1.1472 -2.1200
18376TIP3   OH276542   5.965   5.215   0.043  0.0156  0.0102 -0.4748
18376TIP3    H176543   5.991   5.299   0.005  0.5551  0.7040  1.3396
18376TIP3    H276544   5.907   5.237   0.115 -0.3644 -1.2228 -0.3732
18377TIP3   OH276545   5.298   0.907  15.979 -0.4096  0.4310  0.4112
18377TIP3    H176546   5.342   0.834  15.937  0.3481  1.2044 -0.1751
18377TIP3    H276547   5.247   0.867  16.049  0.0140 -0.6475  0.1276
18378TIP3   OH276548   6.430   3.212  13.793  0.4220 -0.5549 -0.6059
18378TIP3    H176549   6.367   3.210  13.866  0.0732  0.2686 -0.8737
18378TIP3    H276550   6.500   3.152  13.820 -0.0376 -0.7879  0.0986
18379TIP3   OH276551   3.870   3.653   0.956  0.5024  0.5655 -0.1304
18379TIP3    H176552   3.800   3.716   0.936 -0.6220 -0.6762 -0.2939
18379TIP3    H276553   3.878   3.656   1.051  2.9185  3.4256 -0.2726
18380TIP3   OH276554   1.763   0.512  15.773 -0.0585 -0.4208 -0.2900
18380TIP3    H176555   1.717   0.435  15.740 -2.0111  1.3400 -2.0199
18380TIP3    H276556   1.718   0.533  15.855  0.5043 -1.1189  0.2058
18381TIP3   OH276557   0.840   5.140   3.017  0.2568 -0.3618  0.7763
18381TIP3    H176558   0.908   5.078   2.990  1.2385  1.1845 -0.5008
18381TIP3    H276559   0.882   5.226   3.008 -0.8548  0.4831  3.0749
18382TIP3   OH276560   6.713   1.675  16.662 -0.4074 -0.5395 -0.1541
18382TIP3    H176561   6.799   1.637  16.643  1.1325  2.2708  0.6543
18382TIP3    H276562   6.698   1.655  16.754 -1.0371 -1.6894 -0.4840
18383TIP3   OH276563   2.538   2.388   4.564  0.0873  0.1431 -0.3002
18383TIP3    H176564   2.564   2.295   4.563  0.0667  0.1237  0.4186
18383TIP3    H276565   2.450   2.388   4.603  0.6180  0.5721  0.9729
18384TIP3   OH276566   0.016   1.199   1.922 -0.8611  0.2603  0.1507
18384TIP3    H176567   0.047   1.114   1.955 -0.6184 -0.4523 -1.8274
18384TIP3    H276568   0.052   1.206   1.834 -0.0044  2.9070  0.6060
18385TIP3   OH276569   1.388   4.516   3.355 -0.0972  0.1404 -0.1862
18385TIP3    H176570   1.478   4.550   3.350  0.1513 -0.1461  1.7045
18385TIP3    H276571   1.333   4.593   3.339  0.3969  0.0003 -3.2471
18386TIP3   OH276572   4.021   2.242   2.583 -0.1914 -0.7591  0.1998
18386TIP3    H176573   4.019   2.334   2.611 -0.7319 -0.7670  0.1927
18386TIP3    H276574   4.061   2.245   2.496  1.0511 -0.6829  0.7476
18387TIP3   OH276575   6.140   6.435  14.475 -0.1073  0.6295  0.0850
18387TIP3    H176576   6.168   6.361  14.420 -0.5368 -0.3721  1.1665
18387TIP3    H276577   6.060   6.404  14.517 -1.2925  2.3927 -0.7867
18388TIP3   OH276578   6.299   6.266  12.679  0.4508 -0.1714  0.0190
18388TIP3    H176579   6.215   6.310  12.672 -0.4014 -1.5740  0.8670
18388TIP3    H276580   6.350   6.296  12.604 -1.1211  0.0397 -0.9883
18389TIP3   OH276581   1.415   2.004  13.003  0.1860  0.6523  0.5904
18389TIP3    H176582   1.380   1.944  12.936  1.0762 -1.3535  1.8254
18389TIP3    H276583   1.362   1.987  13.080 -0.1995  2.2477  0.7062
18390TIP3   OH276584   2.412   2.991   4.827  0.6904  0.2421  0.1405
18390TIP3    H176585   2.334   2.953   4.787  0.0507 -0.2572  1.7930
18390TIP3    H276586   2.402   3.085   4.813 -0.6297  0.2526  1.0101
18391TIP3   OH276587   6.294   5.979   5.777  0.5500 -0.0579 -0.6066
18391TIP3    H176588   6.319   5.892   5.746  0.6472  0.0944 -0.9593
18391TIP3    H276589   6.255   6.022   5.700 -2.3903 -0.8746  0.2880
18392TIP3   OH276590   1.381   2.650  12.890 -0.7013 -0.2494 -0.7422
18392TIP3    H176591   1.422   2.651  12.976  0.1188  0.6126 -1.1304
18392TIP3    H276592   1.451   2.671  12.829 -0.8365 -2.6360 -1.8405
18393TIP3   OH276593   3.998   3.716   4.434 -0.3993 -0.1639  0.3849
18393TIP3    H176594   3.992   3.712   4.530 -0.0344 -0.5860  0.3928
18393TIP3    H276595   4.088   3.687   4.414 -0.3589  0.2598 -0.0637
18394TIP3   OH276596   4.254   1.170   3.265  0.2366  0.2127 -0.3439
18394TIP3    H176597   4.247   1.265   3.272  0.3455  0.1536  0.7764
18394TIP3    H276598   4.336   1.149   3.311  1.0516 -0.2800 -1.9710
18395TIP3   OH276599   3.577   4.600  14.903  0.1910  0.3047  0.4580
18395TIP3    H176600   3.649   4.583  14.964  0.5163  0.6020  0.1604
18395TIP3    H276601   3.572   4.521  14.850  0.2532  0.2583  0.5205
18396TIP3   OH276602   4.830   2.823   4.418 -0.5153  0.6581 -0.2280
18396TIP3    H176603   4.841   2.868   4.502  1.5319  0.6752 -0.4395
18396TIP3    H276604   4.878   2.740   4.429  1.4782  1.4904 -1.9400
18397TIP3   OH276605   3.256   4.793  14.543  0.9012 -0.3760  0.3802
18397TIP3    H176606   3.273   4.780  14.450  1.3122  0.1494  0.3792
18397TIP3    H276607   3.280   4.710  14.584  1.3305 -0.3944  0.0958
18398TIP3   OH276608   5.364   1.886   0.169  0.0527 -0.1421  0.2888
18398TIP3    H176609   5.344   1.799   0.202  2.1447 -0.7359  0.1341
18398TIP3    H276610   5.433   1.919   0.226 -0.7762  1.5058  0.4261
18399TIP3   OH276611   6.661   0.588   5.260 -0.4274 -0.0104 -0.0193
18399TIP3    H176612   6.673   0.493   5.269 -0.6401  0.0641  1.2495
18399TIP3    H276613   6.736   0.626   5.306  0.1271  0.4524 -1.2697
18400TIP3   OH276614   3.539   5.990   4.275 -0.2260  0.3652 -0.3407
18400TIP3    H176615   3.567   5.993   4.184 -1.6593 -0.8463 -0.8645
18400TIP3    H276616   3.581   5.912   4.311  0.8271  1.1728  0.2408
18401TIP3   OH276617   4.031   6.329  12.430 -0.8532 -0.4802  0.4042
18401TIP3    H176618   4.125   6.327  12.414 -0.9194 -2.0291  0.0887
18401TIP3    H276619   3.997   6.394  12.368  0.1186  0.9524  1.3131
18402TIP3   OH276620   0.934   3.589  12.826  0.0736  0.3251  0.1807
18402TIP3    H176621   1.011   3.574  12.879 -1.3067 -1.3090  1.8637
18402TIP3    H276622   0.885   3.506  12.830 -1.8219  1.3253 -0.6849
18403TIP3   OH276623   1.828   4.154  14.993  0.4656  0.3440  0.0680
18403TIP3    H176624   1.906   4.102  15.012 -0.2115  0.0011  2.2531
18403TIP3    H276625   1.862   4.240  14.968  1.5925  0.5705  2.1153
18404TIP3   OH276626   5.659   4.134   4.344  0.0268 -0.2030  0.7348
18404TIP3    H176627   5.603   4.210   4.338 -0.3002 -0.5144 -0.5261
18404TIP3    H276628   5.604   4.066   4.384 -1.0503 -0.9304 -1.7520
18405TIP3   OH276629   0.721   0.963   4.813 -0.4507  0.1094 -0.6297
18405TIP3    H176630   0.751   1.038   4.762 -0.8153  1.2211  0.7415
18405TIP3    H276631   0.699   0.897   4.747  0.1603  1.0897 -1.8528
18406TIP3   OH276632   0.514   3.013  13.545  0.3199  0.2177 -0.0756
18406TIP3    H176633   0.419   3.002  13.542  0.2097  1.1721 -0.3265
18406TIP3    H276634   0.539   2.985  13.633 -0.4237  1.6430  0.6202
18407TIP3   OH276635   1.245   0.862   4.145  0.1859 -0.3364  0.3553
18407TIP3    H176636   1.289   0.777   4.138 -1.1288 -0.9200 -2.1078
18407TIP3    H276637   1.157   0.839   4.176  0.2013  0.2814  0.8601
18408TIP3   OH276638   3.593   6.476   0.847 -0.1835  0.1965  0.1814
18408TIP3    H176639   3.536   6.404   0.871 -1.0049  1.3817  2.0115
18408TIP3    H276640   3.681   6.438   0.841 -0.7436 -1.1072  0.1366
18409TIP3   OH276641   3.910   6.564   5.859 -0.2098 -0.0624 -0.3082
18409TIP3    H176642   3.977   6.520   5.912 -1.6461  0.2280  1.8614
18409TIP3    H276643   3.858   6.492   5.823 -2.2221 -0.3721  2.7928
18410TIP3   OH276644   6.587   4.354   1.644 -0.3402 -0.3440  0.4740
18410TIP3    H176645   6.611   4.274   1.692  1.2778 -0.0598  0.2102
18410TIP3    H276646   6.563   4.322   1.557  0.5449 -0.5604  0.2888
18411TIP3   OH276647   6.472   1.450  14.743  0.3442 -0.1930 -0.1737
18411TIP3    H176648   6.533   1.404  14.801  1.0689 -0.5878 -1.2180
18411TIP3    H276649   6.522   1.465  14.663 -0.5694  0.5389 -0.6279
18412TIP3   OH276650   5.785   4.594  12.616  0.1956 -0.1776  0.1052
18412TIP3    H176651   5.790   4.546  12.698  0.0915  0.7732  0.6814
18412TIP3    H276652   5.876   4.613  12.593  0.2063 -0.1609  0.1629
18413TIP3   OH276653   3.698   2.739  12.081 -0.0166  0.6775 -0.2731
18413TIP3    H176654   3.724   2.758  11.991  2.1747  0.6297  0.2863
18413TIP3    H276655   3.761   2.673  12.111 -1.2268  0.0635  1.0426
18414TIP3   OH276656   5.001   4.207  13.598 -0.1542 -0.9548 -0.3165
18414TIP3    H176657   5.087   4.246  13.579 -0.1467 -1.1417 -0.6718
18414TIP3    H276658   4.980   4.237  13.686 -0.4522  0.3947 -0.8279
18415TIP3   OH276659   4.116   6.306   4.953 -0.1427 -0.7335  0.4839
18415TIP3    H176660   4.197   6.346   4.984 -0.1562 -1.4342  1.4850
18415TIP3    H276661   4.056   6.379   4.941 -0.1141 -0.3916  2.1252
18416TIP3   OH276662   2.994   3.238   3.966 -0.2217  0.6110 -0.0597
18416TIP3    H176663   2.940   3.283   3.901  0.5621 -0.7349 -1.7097
18416TIP3    H276664   2.937   3.169   3.999 -0.3025  0.6999 -0.0113
18417TIP3   OH276665   4.909   5.863  10.923 -0.4553 -0.7631 -0.5055
18417TIP3    H176666   4.888   5.822  10.839 -1.6124 -2.3356  0.5029
18417TIP3    H276667   4.971   5.932  10.900  0.3931 -2.0713 -2.4841
18418TIP3   OH276668   6.748   4.824  10.639  0.1518 -0.6161  0.2301
18418TIP3    H176669   6.737   4.918  10.632  0.5872 -0.5900 -0.1927
18418TIP3    H276670   6.708   4.790  10.559  2.3996 -0.5725 -0.9826
18419TIP3   OH276671   4.095   2.220   0.107 -0.4046 -0.4298  0.3872
18419TIP3    H176672   4.156   2.259   0.044  1.4654 -1.1738  1.6927
18419TIP3    H276673   4.059   2.144   0.061 -0.5912  0.1747 -0.4956
18420TIP3   OH276674   6.338   6.204   1.600  0.3179  0.6184 -0.0759
18420TIP3    H176675   6.411   6.249   1.641  0.6776 -0.7520  0.8630
18420TIP3    H276676   6.326   6.125   1.653 -1.2209  0.3390 -0.7842
18421TIP3   OH276677   1.645   5.112  15.513 -0.3521  0.3362  0.3422
18421TIP3    H176678   1.571   5.053  15.497 -0.0562 -0.2476  1.0809
18421TIP3    H276679   1.625   5.190  15.461  0.8132 -1.6308 -3.3897
18422TIP3   OH276680   2.009   5.071   4.557 -0.3350 -0.2695  0.1310
18422TIP3    H176681   2.051   5.111   4.480  0.6439 -0.5150  0.5180
18422TIP3    H276682   2.062   5.100   4.631 -0.6282 -0.8993  0.5977
18423TIP3   OH276683   1.347   6.111   4.880 -0.3183 -0.3059  0.0888
18423TIP3    H176684   1.264   6.156   4.900 -0.0301  0.6163 -0.7016
18423TIP3    H276685   1.327   6.057   4.804 -0.3926 -0.7049  0.3891
18424TIP3   OH276686   1.682   5.255   2.782 -0.2180  0.2209 -0.1427
18424TIP3    H176687   1.644   5.213   2.705 -1.1343  1.2720 -0.2834
18424TIP3    H276688   1.689   5.347   2.759 -0.7738  0.5993  1.1290
18425TIP3   OH276689   5.283   0.610   4.181  0.8210 -0.1878  0.1508
18425TIP3    H176690   5.209   0.581   4.234 -0.4247 -0.5821 -1.7280
18425TIP3    H276691   5.360   0.585   4.232 -0.0976 -5.4735 -0.4620
18426TIP3   OH276692   2.735   4.638   4.686  0.0072  0.4103  0.0407
18426TIP3    H176693   2.669   4.591   4.635 -2.9648  1.8086  2.3009
18426TIP3    H276694   2.747   4.585   4.764  0.7372  0.7609  0.1793
18427TIP3   OH276695   0.641   4.402   4.836 -0.0632  0.5006 -0.1491
18427TIP3    H176696   0.706   4.472   4.833  0.2437  0.2627  0.7315
18427TIP3    H276697   0.626   4.387   4.929 -2.2994  1.3737 -0.3189
18428TIP3   OH276698   2.532   2.195  14.958  0.5504  0.5346 -0.6284
18428TIP3    H176699   2.590   2.192  15.033  1.0852  2.1802 -0.9174
18428TIP3    H276700   2.449   2.158  14.989  2.0726 -3.2774 -0.6327
18429TIP3   OH276701   4.498   6.454   5.422 -0.2713 -0.0330  0.6488
18429TIP3    H176702   4.466   6.369   5.392  0.1372  0.2886 -0.7951
18429TIP3    H276703   4.425   6.492   5.471 -0.7570 -0.8447  0.5739
18430TIP3   OH276704   5.767   2.490  14.886  0.1270  0.7115 -0.1483
18430TIP3    H176705   5.717   2.549  14.943 -1.5514 -2.2080  1.6682
18430TIP3    H276706   5.715   2.410  14.883  3.4013 -1.6006 -0.3856
18431TIP3   OH276707   0.864   6.673   0.947  0.0345  0.1128  0.1022
18431TIP3    H176708   0.801   6.614   0.989 -0.0094 -1.4772 -2.0164
18431TIP3    H276709   0.949   6.633   0.964  0.2475  0.8711  0.8354
18432TIP3   OH276710   2.903   3.487  14.717  0.4319 -0.5738 -0.2002
18432TIP3    H176711   2.963   3.485  14.792  0.1036 -0.7669  0.0617
18432TIP3    H276712   2.871   3.577  14.714  0.1027 -0.6784  0.1672
18433TIP3   OH276713   5.517   2.292   4.646 -0.0195 -0.3547 -0.2926
18433TIP3    H176714   5.440   2.282   4.591 -0.7222  2.0187  0.1268
18433TIP3    H276715   5.518   2.385   4.670  1.0165 -0.9723  2.5425
18434TIP3   OH276716   6.397   4.366  12.548  0.2777 -0.5425 -0.2333
18434TIP3    H176717   6.473   4.343  12.602 -0.2243  0.8440  1.1156
18434TIP3    H276718   6.435   4.404  12.469  1.0062 -0.2695  0.2334
18435TIP3   OH276719   5.577   0.452   1.238 -1.0989  0.0036 -0.1912
18435TIP3    H176720   5.493   0.456   1.285  0.2067 -2.4808  2.7552
18435TIP3    H276721   5.639   0.496   1.296  0.1114 -0.6315 -0.9624
18436TIP3   OH276722   6.665   2.074  12.913 -0.1065  0.3828  0.1829
18436TIP3    H176723   6.701   2.005  12.859 -0.6948  0.3828 -0.2207
18436TIP3    H276724   6.601   2.118  12.857 -2.1314 -0.8014  1.4311
18437TIP3   OH276725   3.753   6.025  16.908  0.0697 -0.4318  0.2196
18437TIP3    H176726   3.837   6.050  16.945 -0.3347  1.1793  0.1236
18437TIP3    H276727   3.768   6.017  16.814 -0.5647  3.4732 -0.3746
18438TIP3   OH276728   0.744   0.703  13.758  0.0313  0.8441  0.1050
18438TIP3    H176729   0.738   0.716  13.663  1.4376 -0.9898 -0.2889
18438TIP3    H276730   0.669   0.751  13.793 -0.3005  1.8984 -1.8852
18439TIP3   OH276731   6.436   6.415  12.203  0.2650  0.5190  0.0772
18439TIP3    H176732   6.406   6.473  12.134  1.3550  0.6192 -0.3305
18439TIP3    H276733   6.437   6.328  12.162 -1.8988  0.0607  0.8422
18440TIP3   OH276734   4.970   5.780  15.425  0.2897 -0.7248 -0.8975
18440TIP3    H176735   5.041   5.727  15.461  0.2549 -0.0498  0.2173
18440TIP3    H276736   5.013   5.859  15.393  0.2070 -0.9490 -1.5902
18441TIP3   OH276737   3.826   1.216  11.344 -0.1728  0.1636 -0.8360
18441TIP3    H176738   3.911   1.185  11.373 -0.7859 -2.0484 -1.1860
18441TIP3    H276739   3.763   1.164  11.395 -1.3002  1.0569 -1.2698
18442TIP3   OH276740   4.832   4.026  16.855 -0.1057  0.3957 -0.4316
18442TIP3    H176741   4.806   3.999  16.943 -0.3692  1.1253 -0.2826
18442TIP3    H276742   4.877   3.949  16.819 -1.4912 -0.5102 -0.2917
18443TIP3   OH276743   4.579   5.167   3.845 -0.1010 -0.4821  0.4026
18443TIP3    H176744   4.645   5.236   3.845  0.4128 -0.9210 -1.2590
18443TIP3    H276745   4.623   5.092   3.885  0.0309 -0.4436  0.3294
18444TIP3   OH276746   6.499   0.443  15.225  0.2899 -0.0920 -0.4314
18444TIP3    H176747   6.539   0.502  15.161 -0.2281  0.7035 -0.0410
18444TIP3    H276748   6.492   0.359  15.179 -1.4417  0.8259 -1.9612
18445TIP3   OH276749   3.308   5.026  15.090  0.0902  0.0967 -0.7846
18445TIP3    H176750   3.333   4.961  15.024  0.1296  0.9297 -1.6252
18445TIP3    H276751   3.223   5.060  15.059 -0.0427  0.2771 -0.2347
18446TIP3   OH276752   2.002   5.421   1.695  0.1709  0.0546  0.0827
18446TIP3    H176753   1.928   5.387   1.646 -0.0552  0.9260 -0.1893
18446TIP3    H276754   2.079   5.380   1.655 -0.1341 -0.5728  0.1346
18447TIP3   OH276755   5.727   6.322   6.355 -0.2713  0.4996 -0.1217
18447TIP3    H176756   5.638   6.296   6.379 -0.1721 -1.2523 -1.4130
18447TIP3    H276757   5.784   6.263   6.405  0.1626  1.3610  0.4186
18448TIP3   OH276758   6.470   6.078  17.031  0.4428 -0.0118  0.1353
18448TIP3    H176759   6.471   6.068  16.935  0.1629  0.0044  0.1311
18448TIP3    H276760   6.427   6.162  17.046 -1.9954 -1.2086  0.3637
18449TIP3   OH276761   4.541   2.354   2.778 -0.3380 -0.1635 -0.7054
18449TIP3    H176762   4.578   2.438   2.807  1.1696  0.2291 -3.4754
18449TIP3    H276763   4.560   2.350   2.684 -4.2828 -1.6169 -1.6251
18450TIP3   OH276764   0.619   4.808  15.507  0.4044 -0.0199 -0.2252
18450TIP3    H176765   0.576   4.740  15.560  1.5937 -0.7991 -0.2223
18450TIP3    H276766   0.683   4.760  15.455  1.9871  1.2011  0.5088
18451TIP3   OH276767   5.224   2.444  13.239  0.1232 -0.3296  0.4765
18451TIP3    H176768   5.224   2.538  13.258  1.2444 -0.2321  0.0803
18451TIP3    H276769   5.244   2.403  13.323 -2.1089 -0.3438  1.0524
18452TIP3   OH276770   6.427   5.498  10.446  0.2812 -0.0907  0.1306
18452TIP3    H176771   6.407   5.504  10.540 -0.1844 -0.9404  0.0987
18452TIP3    H276772   6.378   5.569  10.406 -1.5024 -1.2142  0.2443
18453TIP3   OH276773   3.070   6.692  15.180 -0.1372 -0.4519  0.2228
18453TIP3    H176774   3.075   6.624  15.247  1.6753 -1.3548 -0.7578
18453TIP3    H276775   3.065   6.774  15.229 -1.3822 -1.2081  1.4311
18454TIP3   OH276776   0.621   6.073  14.697 -0.4751 -0.5459 -0.2047
18454TIP3    H176777   0.631   5.980  14.717 -0.5548 -0.3063  1.0403
18454TIP3    H276778   0.683   6.090  14.627 -0.8220 -1.6429 -0.7907
18455TIP3   OH276779   0.873   6.548   3.336  0.1878 -0.5347  0.0520
18455TIP3    H176780   0.885   6.603   3.414 -2.0188  1.0535 -0.6450
18455TIP3    H276781   0.779   6.548   3.320  0.5037 -1.4240 -2.2261
18456TIP3   OH276782   4.983   5.929  14.156  0.2614 -0.4370 -0.8201
18456TIP3    H176783   4.951   5.857  14.101 -2.2304 -0.2881  0.2738
18456TIP3    H276784   4.904   5.979  14.177  0.8240 -0.9513  3.4860
18457TIP3   OH276785   0.574   0.534  13.480  0.3346  0.8270  0.2352
18457TIP3    H176786   0.516   0.556  13.553  0.9814 -1.7676  1.6605
18457TIP3    H276787   0.641   0.479  13.519  1.3742  0.2932 -2.1437
18458TIP3   OH276788   5.304   0.408   0.460  0.0777 -0.5687  0.4107
18458TIP3    H176789   5.381   0.431   0.407 -0.7565 -1.2641 -1.2015
18458TIP3    H276790   5.333   0.334   0.513  0.3049 -1.4389 -0.8700
18459TIP3   OH276791   1.978   0.880   6.219 -0.7613 -0.3787 -0.6889
18459TIP3    H176792   1.977   0.948   6.287  0.8408 -1.1544  0.1623
18459TIP3    H276793   1.890   0.843   6.221 -1.7583  1.8020 -1.3453
18460TIP3   OH276794   1.817   2.583   3.261 -0.2721 -0.2294  0.4473
18460TIP3    H176795   1.840   2.629   3.181 -1.6955  2.1377  1.2984
18460TIP3    H276796   1.760   2.511   3.231  3.6994 -3.0860 -1.1162
18461TIP3   OH276797   6.233   1.615  14.606  0.2842  0.3623  0.1512
18461TIP3    H176798   6.220   1.531  14.651  1.1357  0.6763  1.0225
18461TIP3    H276799   6.318   1.647  14.638  0.8336  0.7085 -1.5379
18462TIP3   OH276800   5.792   5.510   0.750  0.5921  0.1602  0.0648
18462TIP3    H176801   5.736   5.439   0.781  1.2954 -0.5017 -0.1621
18462TIP3    H276802   5.733   5.585   0.740  0.0859  0.0151  1.6706
18463TIP3   OH276803   0.311   1.092   5.275 -0.0453  0.1926  0.1855
18463TIP3    H176804   0.370   1.021   5.248 -0.4523  0.0886 -0.4645
18463TIP3    H276805   0.234   1.082   5.218 -0.0174  1.2873 -0.0715
18464TIP3   OH276806   4.297   5.313  11.511 -0.3924  0.0212  0.4651
18464TIP3    H176807   4.324   5.378  11.446 -0.8758 -1.0195 -0.8336
18464TIP3    H276808   4.366   5.315  11.577 -0.1693  1.5133  0.2241
18465TIP3   OH276809   2.119   4.274  11.549  0.1755  0.7703 -0.2386
18465TIP3    H176810   2.110   4.305  11.639 -0.3707 -0.4927  0.1715
18465TIP3    H276811   2.212   4.285  11.529  0.5745 -0.1140  0.9601
18466TIP3   OH276812   1.942   5.528  17.033 -0.3106  0.5943  0.0308
18466TIP3    H176813   1.898   5.472  17.097 -0.4021  1.3112  0.6153
18466TIP3    H276814   1.982   5.467  16.971 -1.1355 -0.0971  0.1520
18467TIP3   OH276815   4.224   6.246   5.504  0.2345  0.2022  0.1747
18467TIP3    H176816   4.275   6.183   5.455  1.4351  1.0487  0.2882
18467TIP3    H276817   4.133   6.227   5.481  0.6732 -0.4638 -1.0901
18468TIP3   OH276818   2.972   5.507  10.801  0.2371 -0.3261 -0.5114
18468TIP3    H176819   3.006   5.596  10.796  1.7655 -0.8349  0.3302
18468TIP3    H276820   3.017   5.460  10.730 -0.5848 -0.4428 -0.9718
18469TIP3   OH276821   3.341   5.295   4.918  0.1198 -0.7301  0.0361
18469TIP3    H176822   3.335   5.249   4.835  0.8083  0.5905 -0.7769
18469TIP3    H276823   3.274   5.254   4.973 -0.2349 -1.7334 -1.1061
18470TIP3   OH276824   0.390   5.207   5.960  0.0132  0.5734 -0.1713
18470TIP3    H176825   0.301   5.238   5.944  0.9610  2.9893 -1.2473
18470TIP3    H276826   0.422   5.178   5.874  1.2309  2.6041 -0.4676
18471TIP3   OH276827   5.931   4.978  17.078  0.6362 -0.4158  0.0751
18471TIP3    H176828   5.919   5.004  17.170  2.2389 -1.7680  0.7353
18471TIP3    H276829   5.844   4.984  17.040  0.1014  1.1254  1.4141
18472TIP3   OH276830   0.256   3.908  16.897 -0.8198  0.1760  0.3630
18472TIP3    H176831   0.196   3.836  16.917  0.0403 -0.9200 -0.8186
18472TIP3    H276832   0.260   3.910  16.802 -0.0718  1.1409  0.4017
18473TIP3   OH276833   0.274   5.933   0.048  0.7392 -0.3275  0.5166
18473TIP3    H176834   0.357   5.888   0.035  1.3604  0.9095  0.0572
18473TIP3    H276835   0.294   6.025   0.036 -0.6566  0.0231  0.6562
18474TIP3   OH276836   0.243   6.251  16.606  0.5085  0.2951 -0.5171
18474TIP3    H176837   0.147   6.251  16.603  0.4345  0.5280  1.0937
18474TIP3    H276838   0.269   6.213  16.522 -1.0106 -0.5639 -0.6445
18475TIP3   OH276839   0.081   0.146  15.366  0.5096 -0.5626 -0.5397
18475TIP3    H176840   0.138   0.190  15.428 -0.9185 -0.5469  0.8199
18475TIP3    H276841   0.051   0.216  15.307 -0.5829  0.0504  0.7031
18476TIP3   OH276842   0.037   3.751  16.981  0.2282 -0.0605  0.5447
18476TIP3    H176843  -0.005   3.677  16.938  0.9743 -0.1963  0.0327
18476TIP3    H276844   0.048   3.723  17.072 -0.5415 -0.1220  0.6231
18477TIP3   OH276845   5.320   5.797   5.669  0.1055 -0.9774  0.7086
18477TIP3    H176846   5.383   5.740   5.713  1.5499 -1.1074 -1.3727
18477TIP3    H276847   5.363   5.821   5.587 -1.7043  0.6949  0.1711
18478TIP3   OH276848   0.962   0.644  16.193  0.2160 -0.2775  0.2798
18478TIP3    H176849   0.917   0.606  16.117 -0.3998  0.1389  0.4366
18478TIP3    H276850   1.024   0.706  16.155 -0.6118  0.4785  0.1494
18479TIP3   OH276851   6.118   0.887   0.839 -0.1839 -0.6782  0.7035
18479TIP3    H176852   6.200   0.837   0.838 -1.2742 -2.6587  2.6328
18479TIP3    H276853   6.096   0.895   0.932 -1.2272  1.5339  0.3427
18480TIP3   OH276854   4.681   4.411   5.005 -0.4079  0.5003 -0.2676
18480TIP3    H176855   4.750   4.442   4.947  0.4429 -0.5283  0.1410
18480TIP3    H276856   4.722   4.338   5.053 -1.8823 -0.3620 -0.2614
18481TIP3   OH276857   3.811   5.087  15.983 -0.1467  0.0361 -0.0999
18481TIP3    H176858   3.741   5.101  16.046 -1.6434  1.0275 -1.8896
18481TIP3    H276859   3.850   5.173  15.970  0.8042 -0.3418  0.1950
18482TIP3   OH276860   0.406   4.109  13.108 -0.7001 -0.0588 -0.2153
18482TIP3    H176861   0.393   4.031  13.054  0.6463  0.1726 -0.9017
18482TIP3    H276862   0.444   4.174  13.049 -1.9663  1.2107  0.2965
18483TIP3   OH276863   2.005   4.362   1.932 -0.4265 -0.6603 -0.0742
18483TIP3    H176864   1.923   4.382   1.977 -0.2290 -0.8082  0.3689
18483TIP3    H276865   1.998   4.269   1.911 -1.0554 -0.3098 -1.5128
18484TIP3   OH276866   0.146   4.984   4.775  0.6973  0.3847  0.3301
18484TIP3    H176867   0.121   4.895   4.751 -0.5184  1.0917 -1.1959
18484TIP3    H276868   0.111   5.039   4.705  0.1495  2.2361  1.9367
18485TIP3   OH276869   2.930   5.279  12.829 -0.2745 -0.3142  0.5206
18485TIP3    H176870   2.974   5.194  12.827 -0.5608 -0.4675 -1.4017
18485TIP3    H276871   2.999   5.341  12.851  0.1214 -0.9333  1.0829
18486TIP3   OH276872   3.649   6.106   0.702  0.3746 -0.5298  0.2973
18486TIP3    H176873   3.610   6.149   0.626 -0.9395 -0.3520  1.0416
18486TIP3    H276874   3.735   6.147   0.712  0.1451  0.1594 -0.4782
18487TIP3   OH276875   2.065   0.317   0.317  0.5885  0.3620  0.5401
18487TIP3    H176876   1.983   0.347   0.356 -1.1384  1.5093 -3.4089
18487TIP3    H276877   2.069   0.223   0.337 -1.1146  0.5073  1.7103
18488TIP3   OH276878   2.576   5.277  10.803 -0.4486 -0.3225  0.6323
18488TIP3    H176879   2.657   5.288  10.852 -0.9279 -0.6826  1.5363
18488TIP3    H276880   2.521   5.350  10.831 -0.1735  0.3465 -0.5393
18489TIP3   OH276881   2.842   6.674  13.301  0.0082  0.3527  0.0276
18489TIP3    H176882   2.888   6.758  13.291 -1.7127  1.2926 -0.4616
18489TIP3    H276883   2.880   6.636  13.380 -0.4892  2.5481  1.4395
18490TIP3   OH276884   3.639   4.219   5.733 -0.4496 -0.2339  0.5392
18490TIP3    H176885   3.669   4.129   5.723 -1.3169 -0.3924 -1.0322
18490TIP3    H276886   3.545   4.215   5.717 -0.4180  1.0074 -0.1462
18491TIP3   OH276887   2.116   1.329   3.911  0.5279  0.2748 -0.2490
18491TIP3    H176888   2.064   1.372   3.979  0.6943  0.6561 -0.3552
18491TIP3    H276889   2.092   1.376   3.831  2.0191  1.3804 -0.1055
18492TIP3   OH276890   0.382   0.413   5.315  0.1533  0.7725  0.3471
18492TIP3    H176891   0.328   0.432   5.238 -0.4445  0.5886  0.7154
18492TIP3    H276892   0.319   0.405   5.387  0.5474 -0.7296  0.5477
18493TIP3   OH276893   6.717   6.427  14.878  0.3209 -0.2229  0.0108
18493TIP3    H176894   6.812   6.427  14.867  0.3320 -0.4660  0.1096
18493TIP3    H276895   6.702   6.489  14.949  0.4801 -0.8756  0.6272
18494TIP3   OH276896   0.566   4.124  12.586 -0.3237  0.3090 -0.1448
18494TIP3    H176897   0.625   4.071  12.531  1.0768  0.6538  0.9720
18494TIP3    H276898   0.487   4.071  12.594  0.1652 -0.5742 -0.9473
18495TIP3   OH276899   0.511   2.369   5.721  0.0657 -0.0237 -0.6656
18495TIP3    H176900   0.599   2.384   5.687 -0.3935  2.1993 -1.0679
18495TIP3    H276901   0.463   2.330   5.648  0.8201 -1.8393 -0.2492
18496TIP3   OH276902   0.898   5.423   2.794 -0.5860 -0.2025 -0.0793
18496TIP3    H176903   0.855   5.430   2.879 -0.6824  0.4684 -0.1729
18496TIP3    H276904   0.889   5.331   2.769 -0.2777 -0.4715  0.7783
18497TIP3   OH276905   4.217   3.587   1.521 -0.0171  0.2169 -0.5671
18497TIP3    H176906   4.208   3.604   1.427 -0.9023 -0.5563 -0.6339
18497TIP3    H276907   4.131   3.555   1.548  0.4148 -0.1861  0.3747
18498TIP3   OH276908   5.143   4.774  13.912  0.6231  0.1198 -0.6229
18498TIP3    H176909   5.100   4.843  13.861 -0.4192  0.6849  0.9536
18498TIP3    H276910   5.223   4.816  13.945  0.5720  0.2051 -0.6072
18499TIP3   OH276911   4.688   4.042   3.203  0.5497 -0.1658  0.2435
18499TIP3    H176912   4.726   4.106   3.142 -2.5983 -0.8622 -2.7836
18499TIP3    H276913   4.732   3.960   3.180  1.6576  0.0986  1.2823
18500TIP3   OH276914   5.627   5.064  15.529 -0.7736  0.3963 -0.2707
18500TIP3    H176915   5.650   5.005  15.457  0.1945 -0.6664  0.8557
18500TIP3    H276916   5.705   5.119  15.541 -0.8260  0.3841  0.1362
18501TIP3   OH276917   4.095   0.911   5.161  0.2704 -0.5319 -0.3400
18501TIP3    H176918   4.144   0.932   5.240  0.1111 -0.7373 -0.1875
18501TIP3    H276919   4.011   0.955   5.172  0.5200  0.0476 -0.7252
18502TIP3   OH276920   4.985   3.726  11.720 -0.2347  0.2858 -0.3801
18502TIP3    H176921   4.982   3.745  11.814  1.0995  2.1527 -0.6549
18502TIP3    H276922   5.078   3.731  11.697 -0.2828 -2.2548 -1.4485
18503TIP3   OH276923   3.067   2.157   2.075 -0.0740 -0.1868 -0.2121
18503TIP3    H176924   3.077   2.067   2.042 -0.1893 -0.6582  0.9945
18503TIP3    H276925   3.154   2.178   2.111 -0.3128 -0.1868  0.3783
18504TIP3   OH276926   0.094   1.990  17.038 -0.3817 -0.1064 -0.0590
18504TIP3    H176927   0.068   2.044  16.964  0.0380  0.9638  0.5622
18504TIP3    H276928   0.162   1.932  17.002  0.5071  1.0542 -0.2960
18505TIP3   OH276929   1.398   2.093   3.025  0.1350 -0.7318  0.1350
18505TIP3    H176930   1.377   2.186   3.030  0.8394 -0.6351  1.3944
18505TIP3    H276931   1.464   2.079   3.092  1.4461 -1.7758 -1.2978
18506TIP3   OH276932   0.492   5.495  15.863 -0.4224 -0.4990  0.0189
18506TIP3    H176933   0.467   5.437  15.935  0.7404 -0.6618  0.3084
18506TIP3    H276934   0.586   5.480  15.851 -0.3856  0.2963 -0.8381
18507TIP3   OH276935   4.083   5.234   3.765 -0.1281  0.1050 -0.2210
18507TIP3    H176936   4.133   5.163   3.804  1.6931  0.6719 -1.4375
18507TIP3    H276937   3.991   5.211   3.782  0.3609 -2.8326 -1.0825
18508TIP3   OH276938   1.943   3.051   2.146  0.1826  0.1148 -0.4482
18508TIP3    H176939   1.916   3.143   2.145  1.1477  0.4622  1.5502
18508TIP3    H276940   1.871   3.005   2.190 -0.1096 -0.0422 -1.0742
18509TIP3   OH276941   1.834   5.564  14.079  0.4616 -0.5342 -0.2225
18509TIP3    H176942   1.855   5.630  14.144  1.8593 -0.0598 -1.0978
18509TIP3    H276943   1.912   5.561  14.022  0.6671 -3.2522  0.0678
18510TIP3   OH276944   2.663   6.330   3.394 -0.4321 -0.1892  0.2225
18510TIP3    H176945   2.635   6.253   3.345 -0.8682  0.5462 -0.7062
18510TIP3    H276946   2.582   6.372   3.422 -0.2034  0.0916  0.4711
18511TIP3   OH276947   1.583   1.361  15.323 -0.1181  0.2103 -0.0237
18511TIP3    H176948   1.584   1.275  15.365 -1.0157  1.4982  2.9528
18511TIP3    H276949   1.675   1.387  15.320 -0.0090  0.0820  1.3108
18512TIP3   OH276950   5.264   6.642  13.803 -0.7369  0.3965 -0.3766
18512TIP3    H176951   5.172   6.638  13.828 -0.4322  0.6628  0.8287
18512TIP3    H276952   5.301   6.712  13.857  0.2403  0.0854 -0.6198
18513TIP3   OH276953   2.276   0.334   2.523 -0.1580  0.4965 -0.1467
18513TIP3    H176954   2.358   0.300   2.559 -0.1652 -0.6263 -1.1127
18513TIP3    H276955   2.225   0.361   2.599  0.0946 -1.1709  0.6534
18514TIP3   OH276956   1.998   4.440   3.707  0.2442 -0.0140  0.3207
18514TIP3    H176957   2.016   4.380   3.635  0.2244  1.5579 -1.0605
18514TIP3    H276958   2.027   4.393   3.786  0.0357 -1.8737 -0.6646
18515TIP3   OH276959   4.299   4.493  11.712  0.6524  0.6830  0.1168
18515TIP3    H176960   4.306   4.399  11.698  1.9418  0.6376  0.8947
18515TIP3    H276961   4.365   4.531  11.655  2.0088  0.8861  1.7359
18516TIP3   OH276962   3.492   5.275   5.208 -0.3644 -0.0712  0.0895
18516TIP3    H176963   3.429   5.215   5.249 -1.5486  0.6033 -0.7028
18516TIP3    H276964   3.438   5.340   5.164  0.8985  1.1309  0.2599
18517TIP3   OH276965   4.420   6.684  15.913 -0.5377 -0.1826  0.0643
18517TIP3    H176966   4.511   6.657  15.898 -0.6642 -1.2850  1.1255
18517TIP3    H276967   4.410   6.681  16.008 -1.6426  0.0535 -0.0361
18518TIP3   OH276968   3.976   5.651  15.806 -0.0801  0.7316 -0.1958
18518TIP3    H176969   3.933   5.593  15.743  0.1188  1.0591 -0.6464
18518TIP3    H276970   4.041   5.698  15.753  0.5148  0.5709  0.3830
18519TIP3   OH276971   5.503   1.089   4.601 -0.2237  0.0724 -0.0316
18519TIP3    H176972   5.590   1.056   4.619 -0.4137 -0.6646 -0.4290
18519TIP3    H276973   5.504   1.108   4.507 -0.8402 -1.0242 -0.2719
18520TIP3   OH276974   0.020   6.330  16.152  0.0846 -0.1524  0.7121
18520TIP3    H176975  -0.015   6.319  16.064  0.9076  0.1513  0.3394
18520TIP3    H276976   0.007   6.244  16.194  0.0873 -0.4280  0.1522
18521TIP3   OH276977   3.178   5.053  11.430  0.1537 -0.3332 -0.0766
18521TIP3    H176978   3.269   5.082  11.439 -0.4121  1.2319  0.9714
18521TIP3    H276979   3.160   5.062  11.336  1.2876 -1.4387 -0.4341
18522TIP3   OH276980   6.131   6.291  15.491  0.4883 -0.0316 -0.2701
18522TIP3    H176981   6.155   6.206  15.453  4.2462  1.1627 -1.0572
18522TIP3    H276982   6.051   6.274  15.540 -0.9123 -3.1946 -3.2223
18523TIP3   OH276983   2.262   0.554   1.264 -0.1714  0.3043  0.0231
18523TIP3    H176984   2.261   0.564   1.169  0.6627  2.9755  0.2087
18523TIP3    H276985   2.355   0.542   1.286 -0.4266 -0.9860  0.4858
18524TIP3   OH276986   6.761   2.959  11.091  0.1942  0.2444  0.1242
18524TIP3    H176987   6.729   2.971  11.001  0.8410  1.4802  0.0293
18524TIP3    H276988   6.783   3.048  11.120 -0.6547 -0.0405  1.7630
18525TIP3   OH276989   5.857   3.326   2.356  0.1945  0.3150 -0.4918
18525TIP3    H176990   5.768   3.343   2.324 -0.4935 -2.3768 -0.2437
18525TIP3    H276991   5.903   3.288   2.282 -0.3551 -2.7050  0.5989
18526TIP3   OH276992   4.206   2.046   3.768 -0.1961 -0.1863 -0.5805
18526TIP3    H176993   4.194   1.971   3.826 -1.7381  0.0738 -0.5018
18526TIP3    H276994   4.214   2.121   3.828 -1.0366 -0.0108 -0.6751
18527TIP3   OH276995   0.249   4.366   0.971 -0.2753  0.2966 -0.2086
18527TIP3    H176996   0.257   4.449   1.020  1.0549  0.3460 -0.4827
18527TIP3    H276997   0.237   4.393   0.880  1.4018  0.2265 -0.4871
18528TIP3   OH276998   2.863   2.393  15.342  0.4269 -0.1545 -0.1863
18528TIP3    H176999   2.827   2.305  15.330 -0.1215 -0.0369  0.5787
18528TIP3    H277000   2.907   2.412  15.259 -2.3861  0.2319 -1.7055
18529TIP3   OH277001   0.210   6.036   5.090  0.4674 -0.1500  0.0543
18529TIP3    H177002   0.169   6.101   5.033  3.0501  1.8479  0.2618
18529TIP3    H277003   0.296   6.019   5.051  0.5004 -2.2883  0.8906
18530TIP3   OH277004   0.778   1.606   3.990 -0.6096  0.2124 -0.4639
18530TIP3    H177005   0.776   1.677   4.053  0.5288  0.6236 -0.8596
18530TIP3    H277006   0.869   1.576   3.990 -0.6557  0.0079 -1.6587
18531TIP3   OH277007   0.369   0.008  16.338 -0.1550 -0.8919  0.7527
18531TIP3    H177008   0.307  -0.065  16.334 -1.8986  0.5486  0.0205
18531TIP3    H277009   0.422  -0.001  16.258 -0.3397 -1.3559  0.6784
18532TIP3   OH277010   4.048   4.080   4.557 -0.4646 -0.4845  0.0677
18532TIP3    H177011   4.049   4.030   4.475 -0.4402  1.1953 -1.0117
18532TIP3    H277012   4.116   4.039   4.611  1.1906 -0.1701 -1.6833
18533TIP3   OH277013   3.034   5.323  15.658  0.4153 -0.2100  0.0063
18533TIP3    H177014   3.065   5.405  15.696  1.6921  0.2812 -1.9877
18533TIP3    H277015   3.060   5.256  15.722  1.2064  0.7128  0.6808
18534TIP3   OH277016   0.595   3.755  11.334 -0.7517 -0.5815  0.2935
18534TIP3    H177017   0.588   3.689  11.403 -1.9929 -1.0357 -0.2404
18534TIP3    H277018   0.508   3.758  11.294 -0.1956  0.0217 -0.9400
18535TIP3   OH277019   2.746   0.434  15.912 -0.2485 -0.3657  0.6245
18535TIP3    H177020   2.735   0.396  15.825 -0.4355 -2.1473  1.3756
18535TIP3    H277021   2.745   0.358  15.971 -1.0226  0.8621  2.2620
18536TIP3   OH277022   5.486   5.632   0.843  0.3909  0.4008 -0.8284
18536TIP3    H177023   5.440   5.583   0.774 -0.3535  1.0936 -0.8468
18536TIP3    H277024   5.460   5.723   0.828  1.5164  0.7622 -0.6126
18537TIP3   OH277025   5.707   5.416  16.237  0.2366 -0.4141  0.8162
18537TIP3    H177026   5.796   5.393  16.210  0.5970  0.1287  1.5111
18537TIP3    H277027   5.657   5.336  16.224  0.8014 -0.7009  0.3335
18538TIP3   OH277028   4.051   2.464   4.974 -0.0936  0.3756  0.0801
18538TIP3    H177029   4.021   2.555   4.975  3.0751  1.5783 -0.4074
18538TIP3    H277030   3.974   2.413   4.997 -1.9156  3.1988  0.8095
18539TIP3   OH277031   2.986   5.588   6.447  0.1954  0.3455 -0.4148
18539TIP3    H177032   2.910   5.547   6.405  0.8850  0.4815 -1.8511
18539TIP3    H277033   2.985   5.554   6.536 -0.7279 -0.7875 -0.8255
18540TIP3   OH277034   0.921   1.484   5.692  0.3028 -0.2986  0.5432
18540TIP3    H177035   0.965   1.412   5.737  0.0781 -0.0513  1.1572
18540TIP3    H277036   0.968   1.562   5.720  0.4976 -0.1898 -0.0651
18541TIP3   OH277037   0.346   1.070   3.242  0.1909 -0.5099  0.3896
18541TIP3    H177038   0.274   1.118   3.199 -0.8746 -2.4265 -0.0963
18541TIP3    H277039   0.360   1.117   3.324 -0.2544  1.0699 -0.3834
18542TIP3   OH277040   3.213   4.355   0.910  0.3108 -0.1540 -0.7620
18542TIP3    H177041   3.221   4.450   0.912 -2.3157  0.1170  0.9491
18542TIP3    H277042   3.263   4.325   0.986 -2.4689  0.3331  1.4035
18543TIP3   OH277043   4.275   3.396  17.266  0.4054  0.3442  0.1682
18543TIP3    H177044   4.216   3.325  17.289  1.3575 -0.8925 -1.0491
18543TIP3    H277045   4.331   3.359  17.198  1.1157  2.1802 -0.2903
18544TIP3   OH277046   6.739   5.497  15.878 -0.4152 -1.1392  0.0319
18544TIP3    H177047   6.750   5.416  15.929  0.2007 -2.3732 -1.9511
18544TIP3    H277048   6.825   5.538  15.880 -0.9200 -0.0768  1.6849
18545TIP3   OH277049   1.620   4.671   3.320  0.5633  0.2053  0.2569
18545TIP3    H177050   1.690   4.614   3.353  1.2231  1.0779  0.3837
18545TIP3    H277051   1.627   4.751   3.372 -0.9657  0.0627  0.7327
18546TIP3   OH277052   6.704   6.490   5.673  0.0524  0.6222 -0.0159
18546TIP3    H177053   6.674   6.526   5.589  0.3290  0.1314 -0.3313
18546TIP3    H277054   6.641   6.525   5.737 -0.8843  0.0477 -0.5898
18547TIP3   OH277055   3.200   0.882  12.206  0.5310  0.3131 -0.2004
18547TIP3    H177056   3.125   0.834  12.171 -0.4227  1.5578  0.0611
18547TIP3    H277057   3.184   0.886  12.301 -0.0821  2.2235 -0.3594
18548TIP3   OH277058   5.050   4.918   0.143 -0.0179  0.6815 -0.9306
18548TIP3    H177059   5.120   4.933   0.079  1.5301  0.9566  0.7563
18548TIP3    H277060   5.077   4.968   0.220 -0.2327 -2.0442  1.0378
18549TIP3   OH277061   4.631   5.789  11.030  0.0475  0.7094 -0.2889
18549TIP3    H177062   4.540   5.770  11.004 -0.2476  0.5026  0.8381
18549TIP3    H277063   4.677   5.706  11.015 -0.3100  0.3325  0.6373
18550TIP3   OH277064   1.277   4.272   2.068 -0.1209 -0.3515  0.3211
18550TIP3    H177065   1.187   4.253   2.095  0.6445 -1.6817  2.1336
18550TIP3    H277066   1.319   4.307   2.146  1.4438 -1.5931  0.0890
18551TIP3   OH277067   3.478   2.103   4.597  0.1672  0.2154 -0.2835
18551TIP3    H177068   3.528   2.181   4.573  0.0892  0.3795  0.0766
18551TIP3    H277069   3.453   2.064   4.514  0.3522  0.4838 -0.4663
18552TIP3   OH277070   0.253   3.910   1.034  0.4100 -0.1733  0.0356
18552TIP3    H177071   0.160   3.900   1.011  0.6489  1.7770 -2.1176
18552TIP3    H277072   0.296   3.834   0.996 -0.2450 -0.9831  0.8657
18553TIP3   OH277073   3.388   3.897   1.768 -0.4230  0.6389  0.4861
18553TIP3    H177074   3.296   3.918   1.787 -0.2688  2.2248 -0.3796
18553TIP3    H277075   3.417   3.966   1.708  0.6309 -1.2422 -1.2708
18554TIP3   OH277076   4.505   3.242   5.596  0.5207 -0.0753 -0.9720
18554TIP3    H177077   4.487   3.236   5.690  0.3551  0.1545 -0.9888
18554TIP3    H277078   4.446   3.178   5.556  0.3478  0.0691 -0.9491
18555TIP3   OH277079   4.855   0.825   4.813  0.1915 -0.2899  0.3750
18555TIP3    H177080   4.915   0.899   4.819  1.2895 -0.9984 -1.0531
18555TIP3    H277081   4.909   0.749   4.835 -0.7121 -0.7654  1.0344
18556TIP3   OH277082   0.750   4.370  16.503  0.3051  0.1869  0.9733
18556TIP3    H177083   0.813   4.319  16.452  0.6104  0.5933  0.9410
18556TIP3    H277084   0.764   4.460  16.476  0.2884  0.3778  1.5881
18557TIP3   OH277085   5.497   2.993  12.181  0.0215  0.4495  0.7167
18557TIP3    H177086   5.571   2.934  12.169 -0.0793  0.5984 -0.9457
18557TIP3    H277087   5.426   2.936  12.212  0.6347  0.1929  1.6814
18558TIP3   OH277088   2.838   6.527   6.027  0.1426 -0.4358  0.3186
18558TIP3    H177089   2.906   6.587   5.999 -0.3194  0.3942  0.9093
18558TIP3    H277090   2.797   6.496   5.946  0.9166 -0.5891 -0.0154
18559TIP3   OH277091   3.017   5.408   0.633  0.4711 -0.4048 -0.2419
18559TIP3    H177092   3.093   5.361   0.597  0.5002 -0.3705 -0.2256
18559TIP3    H277093   3.022   5.392   0.727  0.1275 -0.8842 -0.3050
18560TIP3   OH277094   0.801   4.730   3.143 -0.3412 -0.3222 -0.6314
18560TIP3    H177095   0.783   4.663   3.209 -1.7014 -0.7061 -1.3543
18560TIP3    H277096   0.749   4.805   3.170 -0.2870 -0.2101 -0.8378
18561TIP3   OH277097   2.493   0.256  15.282 -0.4687 -0.2737  0.6340
18561TIP3    H177098   2.571   0.236  15.231 -1.3922  1.2671 -1.5327
18561TIP3    H277099   2.501   0.201  15.360  1.7117 -1.7172 -0.4941
18562TIP3   OH277100   2.767   5.072  14.066 -0.1937  0.8095 -0.1235
18562TIP3    H177101   2.734   5.126  13.994 -1.1527 -0.5399 -0.7270
18562TIP3    H277102   2.704   5.084  14.137  0.6447  1.9808  0.4653
18563TIP3   OH277103   2.962   3.854  15.104 -0.3442 -0.1205 -0.2176
18563TIP3    H177104   3.022   3.808  15.163 -0.5194 -0.0893 -0.0161
18563TIP3    H277105   2.881   3.804  15.107  0.6484 -2.1338 -3.0324
18564TIP3   OH277106   0.960   4.802  15.445  0.6213 -0.0171 -0.0731
18564TIP3    H177107   0.987   4.730  15.387 -0.2362 -0.8715  0.5527
18564TIP3    H277108   0.915   4.863  15.387 -0.7897 -1.1648 -0.2424
18565TIP3   OH277109   5.562   6.456   1.529  0.1898  0.0163  0.6227
18565TIP3    H177110   5.593   6.365   1.521  1.9549  0.4971  1.3699
18565TIP3    H277111   5.641   6.509   1.517 -0.7591  1.4563  0.4920
18566TIP3   OH277112   1.324   2.648   3.876  0.3278 -0.4912  0.1273
18566TIP3    H177113   1.417   2.637   3.858  0.5556 -0.1536  1.0443
18566TIP3    H277114   1.286   2.675   3.792  1.0687 -0.5310 -0.2252
18567TIP3   OH277115   0.350   0.153   4.751  0.1100  1.1721  0.6143
18567TIP3    H177116   0.436   0.117   4.729  0.2987  1.2003  1.3027
18567TIP3    H277117   0.318   0.191   4.669  0.9496  1.5651  0.4643
18568TIP3   OH277118   0.743   4.563  15.402 -0.0685 -0.1025 -0.1203
18568TIP3    H177119   0.742   4.526  15.491 -2.0699  0.4934  0.1511
18568TIP3    H277120   0.718   4.490  15.346  1.4651 -0.5538 -0.2801
18569TIP3   OH277121   4.599   4.773  12.522  0.0402 -0.0938 -0.1098
18569TIP3    H177122   4.510   4.743  12.539 -0.2444  1.2509  0.8120
18569TIP3    H277123   4.638   4.701  12.471 -2.1923  0.1633 -2.3753
18570TIP3   OH277124   5.917   5.061  13.507  0.2165 -0.2145 -0.0355
18570TIP3    H177125   6.006   5.056  13.543  0.2049  1.0357  0.2283
18570TIP3    H277126   5.929   5.098  13.419  0.2629 -3.4076 -1.5219
18571TIP3   OH277127   4.084   1.588  12.004 -0.1183 -0.1622 -0.5523
18571TIP3    H177128   4.000   1.550  12.027  0.0200 -0.6248 -0.8038
18571TIP3    H277129   4.063   1.655  11.939 -0.3698  0.2646 -0.0431
18572TIP3   OH277130   0.846   0.378  14.980 -0.0172  0.6102  0.2205
18572TIP3    H177131   0.856   0.308  14.916 -1.3366 -0.4053  1.0809
18572TIP3    H277132   0.869   0.458  14.932  1.6034 -0.3790 -0.7580
18573TIP3   OH277133   3.948   6.387  15.813  0.2638 -0.7139 -0.2740
18573TIP3    H177134   3.955   6.376  15.719 -0.4104 -1.7680 -0.2304
18573TIP3    H277135   4.027   6.433  15.839  1.1024 -1.5981 -1.1864
18574TIP3   OH277136   4.571   3.658   2.569 -0.2080  0.4258  0.0699
18574TIP3    H177137   4.603   3.632   2.483 -0.7930 -0.5768  0.1396
18574TIP3    H277138   4.477   3.637   2.567 -0.4626  1.4592  0.5567
18575TIP3   OH277139   6.626   1.711   2.524 -0.9887 -0.4269  0.2784
18575TIP3    H177140   6.654   1.654   2.596  1.1391 -0.8786 -0.8181
18575TIP3    H277141   6.546   1.671   2.491 -1.1526 -1.0710  1.4178
18576TIP3   OH277142   6.640   1.555  13.919  0.1961  0.1800  0.0972
18576TIP3    H177143   6.582   1.481  13.937  0.6944 -1.3889 -3.8739
18576TIP3    H277144   6.726   1.515  13.904  0.8291  1.7382 -0.6215
18577TIP3   OH277145   0.478   2.276  14.828 -0.0108  0.5381 -0.3832
18577TIP3    H177146   0.398   2.286  14.880 -0.9917  0.3845 -1.8018
18577TIP3    H277147   0.466   2.193  14.781  0.2021  1.3223 -1.8946
18578TIP3   OH277148   5.720   2.259   4.860  0.0499  0.0940 -0.0319
18578TIP3    H177149   5.643   2.298   4.821  0.5588  0.8356 -0.3265
18578TIP3    H277150   5.687   2.187   4.914 -1.1237  2.0057  1.9804
18579TIP3   OH277151   3.822   6.324   4.433  0.2924 -0.1581 -0.4241
18579TIP3    H177152   3.877   6.323   4.511 -0.4298  0.2284  0.1011
18579TIP3    H277153   3.736   6.352   4.464 -1.1195 -3.7728 -0.6060
18580TIP3   OH277154   5.073   2.358   5.911  0.5699  0.6192  0.4392
18580TIP3    H177155   4.995   2.336   5.962 -0.0504  1.4441 -0.1264
18580TIP3    H277156   5.065   2.306   5.831  0.6601  0.6279  0.4240
18581TIP3   OH277157   3.210   4.463   0.631  0.5048 -0.5885 -0.3239
18581TIP3    H177158   3.233   4.396   0.695 -0.8076 -1.0115 -0.2848
18581TIP3    H277159   3.136   4.427   0.583 -1.2675  1.4304  0.7261
18582TIP3   OH277160   0.016   3.964   4.350 -0.1067  0.5738  0.1133
18582TIP3    H177161   0.032   3.901   4.420 -0.5742 -0.3131 -0.5476
18582TIP3    H277162   0.103   3.986   4.316  0.0062 -1.1716 -0.8659
18583TIP3   OH277163   4.304   4.334   0.867  0.2000 -0.5282 -0.1348
18583TIP3    H177164   4.381   4.290   0.902  1.2330  1.0916 -0.3075
18583TIP3    H277165   4.334   4.375   0.786 -0.2464  1.8409  0.8122
18584TIP3   OH277166   4.501   3.506   3.884 -0.5223 -0.5169 -0.4300
18584TIP3    H177167   4.506   3.435   3.948 -1.4313 -1.0678 -0.9456
18584TIP3    H277168   4.578   3.560   3.902  0.0540 -1.4951  0.1307
18585TIP3   OH277169   1.627   6.711  13.907  0.1352  0.0438  0.0496
18585TIP3    H177170   1.617   6.707  14.003  2.2369  1.1652  0.3747
18585TIP3    H277171   1.559   6.773  13.879  0.4606  0.8664  1.0193
18586TIP3   OH277172   4.084   0.344  12.879 -0.1498  0.0845 -0.0073
18586TIP3    H177173   4.041   0.324  12.795  0.5699  1.1250 -0.6400
18586TIP3    H277174   4.015   0.331  12.944 -1.4025  1.4686 -0.9808
18587TIP3   OH277175   6.127   4.229  11.035  0.2053 -0.3043  0.8708
18587TIP3    H177176   6.168   4.276  10.962  0.5773  0.3779  1.5051
18587TIP3    H277177   6.118   4.139  11.003 -1.3568  0.3495 -0.7184
18588TIP3   OH277178   3.698   3.911  14.612  0.1146 -0.3918 -0.0532
18588TIP3    H177179   3.727   3.996  14.578  1.8641 -0.4953  1.0762
18588TIP3    H277180   3.645   3.933  14.688  0.7402 -0.3106  0.3621
18589TIP3   OH277181   0.102   1.359  15.718  0.1413  0.8457 -0.7542
18589TIP3    H177182   0.079   1.348  15.810 -1.8791 -0.2937 -1.3411
18589TIP3    H277183   0.097   1.454  15.704  0.4331  1.0316  0.2747
18590TIP3   OH277184   3.506   0.840  15.535  0.0668 -0.3334 -0.7081
18590TIP3    H177185   3.479   0.926  15.503  1.4256  0.0756 -0.8159
18590TIP3    H277186   3.519   0.852  15.629 -2.1880 -1.0916 -0.2254
18591TIP3   OH277187   0.517   3.263  14.392  0.6163 -0.3479  0.2310
18591TIP3    H177188   0.481   3.227  14.311  1.3239  1.2655 -0.8425
18591TIP3    H277189   0.523   3.357  14.376  0.9672 -0.0102  2.0957
18592TIP3   OH277190   3.358   1.721   5.285  0.5710  0.0477 -0.6323
18592TIP3    H177191   3.278   1.731   5.232  0.0802  1.0594  0.2776
18592TIP3    H277192   3.370   1.626   5.291 -2.1958 -0.3087  1.5585
18593TIP3   OH277193   1.322   6.468  17.115 -0.0546 -0.5520  0.4961
18593TIP3    H177194   1.375   6.533  17.069  0.0460 -2.3450 -2.1308
18593TIP3    H277195   1.276   6.420  17.046 -3.4649 -0.5588  2.5234
18594TIP3   OH277196   2.750   2.541   2.287 -0.3065 -0.1184 -0.3900
18594TIP3    H177197   2.727   2.449   2.296  0.5964 -0.2852  0.5093
18594TIP3    H277198   2.820   2.554   2.351  1.3850  0.5622 -2.2730
18595TIP3   OH277199   0.251   4.273  12.792  0.0969  0.1421  0.2599
18595TIP3    H177200   0.202   4.228  12.861 -0.0743  0.6009  0.4408
18595TIP3    H277201   0.243   4.366  12.813 -0.2292  0.3121 -0.5594
18596TIP3   OH277202   2.683   3.398  17.230 -0.0889 -0.4290  0.0449
18596TIP3    H177203   2.684   3.405  17.325 -0.8693  0.4548  0.0004
18596TIP3    H277204   2.593   3.416  17.205  0.3742  0.6285 -0.9557
18597TIP3   OH277205   3.958   3.308   4.741 -0.1753  0.4513 -0.3986
18597TIP3    H177206   3.959   3.344   4.830  2.1258  0.7428 -0.4930
18597TIP3    H277207   3.976   3.215   4.752  2.1594  0.8262 -0.6241
18598TIP3   OH277208   4.656   3.141  14.812  0.0107 -0.2363 -0.1468
18598TIP3    H177209   4.566   3.146  14.779  0.2966 -0.1109 -0.9271
18598TIP3    H277210   4.647   3.157  14.906 -0.8256 -0.6061 -0.1510
18599TIP3   OH277211   0.851   4.713  15.679 -0.0378  0.3019 -0.0719
18599TIP3    H177212   0.898   4.750  15.604  1.1844 -0.5532  0.2246
18599TIP3    H277213   0.760   4.736  15.665  0.4432  1.8691 -0.7894
18600TIP3   OH277214   3.035   2.344  12.295 -0.1497 -0.4434  0.2575
18600TIP3    H177215   3.016   2.288  12.219 -0.6017  1.2335 -0.9196
18600TIP3    H277216   3.110   2.302  12.337  1.4759 -0.3454 -2.2980
18601TIP3   OH277217   2.487   5.671  14.148 -0.0701  0.1645 -0.0464
18601TIP3    H177218   2.501   5.585  14.108  0.6913 -0.3877  1.3518
18601TIP3    H277219   2.547   5.673  14.222 -2.7817  0.2920  2.3421
18602TIP3   OH277220   3.481   3.177  16.749  0.6632  0.1146 -0.1466
18602TIP3    H177221   3.431   3.106  16.791 -1.7240  1.3638 -0.7061
18602TIP3    H277222   3.500   3.238  16.821  0.6386  0.0311 -0.0680
18603TIP3   OH277223   2.778   4.739   2.667 -0.3961 -0.5172  0.7077
18603TIP3    H177224   2.774   4.650   2.703 -1.9729 -0.4974  0.6462
18603TIP3    H277225   2.762   4.727   2.573  0.0475 -0.2121  0.5881
18604TIP3   OH277226   1.778   1.098  12.381  0.2587 -0.0800 -0.1209
18604TIP3    H177227   1.743   1.143  12.458  1.1123  2.9052 -1.3380
18604TIP3    H277228   1.860   1.143  12.363  1.1940 -2.1929 -1.5129
18605TIP3   OH277229   3.441   5.499   2.112  0.6321  0.0582 -0.3426
18605TIP3    H177230   3.373   5.501   2.045  2.8236  1.2683 -2.7248
18605TIP3    H277231   3.466   5.407   2.119 -0.7564 -0.3043  0.1046
18606TIP3   OH277232   4.355   1.627  16.176  0.3706  0.1055 -0.3727
18606TIP3    H177233   4.414   1.703  16.184 -0.7630  0.9766  0.0362
18606TIP3    H277234   4.354   1.607  16.082  1.1273  0.2186 -0.4148
18607TIP3   OH277235   0.332   3.736  15.601  0.0283 -0.2718  0.3022
18607TIP3    H177236   0.349   3.650  15.638 -2.3264 -0.5691  0.8023
18607TIP3    H277237   0.368   3.797  15.665 -0.8575 -0.8471  1.3659
18608TIP3   OH277238   3.676   0.874   4.166  0.2684  0.2454 -0.0249
18608TIP3    H177239   3.620   0.802   4.195  1.0030  0.5289  2.2445
18608TIP3    H277240   3.615   0.941   4.135 -0.6410  0.1853  1.5360
18609TIP3   OH277241   4.281   4.542  16.705 -0.3464  0.0320  0.0345
18609TIP3    H177242   4.209   4.605  16.699 -1.1904 -0.9880 -1.1738
18609TIP3    H277243   4.238   4.459  16.729  0.6082 -0.2901  0.6677
18610TIP3   OH277244   4.820   1.391  14.372 -0.1759  0.2754  0.5808
18610TIP3    H177245   4.759   1.408  14.444  2.7238 -0.5059  3.4097
18610TIP3    H277246   4.829   1.296  14.370  2.2756  0.4158  1.5545
18611TIP3   OH277247   3.194   2.318   0.167  0.1526 -0.3447 -0.0925
18611TIP3    H177248   3.217   2.236   0.123 -1.3489 -0.9372  0.1623
18611TIP3    H277249   3.201   2.297   0.260 -0.3022 -0.2166 -0.0273
18612TIP3   OH277250   3.995   5.190   3.489  0.0689  0.0085  0.5070
18612TIP3    H177251   4.035   5.149   3.566  1.0531 -1.4532 -0.7462
18612TIP3    H277252   3.947   5.120   3.447  0.7341  0.4248 -0.9978
18613TIP3   OH277253   2.590   6.467  17.257 -0.0753 -0.5041 -0.3184
18613TIP3    H177254   2.511   6.436  17.301  1.1059  0.7347  2.9817
18613TIP3    H277255   2.611   6.549  17.300  1.6691  0.5075 -2.8587
18614TIP3   OH277256   5.301   3.869   3.851 -0.0541  0.6377 -0.4003
18614TIP3    H177257   5.269   3.817   3.777 -1.1619  2.5714 -1.3786
18614TIP3    H277258   5.309   3.807   3.923 -4.0805 -0.4846 -0.6532
18615TIP3   OH277259   5.021   0.044   0.040  0.1212 -0.2670 -0.1315
18615TIP3    H177260   5.023  -0.029   0.101  0.1907 -0.1377  0.0223
18615TIP3    H277261   5.072   0.113   0.084 -3.0299  1.2481  1.4627
18616TIP3   OH277262   5.827   0.264  12.149 -0.2038 -0.8079 -0.1325
18616TIP3    H177263   5.890   0.201  12.184 -0.5770 -0.4611  1.2519
18616TIP3    H277264   5.844   0.344  12.199 -0.4054 -0.1078 -1.1566
18617TIP3   OH277265   3.830   0.488   6.225  0.0036 -0.1917 -0.2632
18617TIP3    H177266   3.764   0.421   6.246 -0.3681 -0.2193 -1.4886
18617TIP3    H277267   3.790   0.570   6.253 -0.1916 -0.3018 -0.2155
18618TIP3   OH277268   3.624   1.463  16.436 -0.1588 -0.7004  0.1578
18618TIP3    H177269   3.671   1.380  16.431 -2.2211 -1.9313 -0.2098
18618TIP3    H277270   3.577   1.458  16.519 -0.4767 -0.0043  0.0235
18619TIP3   OH277271   3.818   0.777  14.652 -0.0582  0.1778 -0.0626
18619TIP3    H177272   3.893   0.731  14.690  0.6257 -0.1434 -1.7360
18619TIP3    H277273   3.820   0.754  14.559 -1.2384  1.5125 -0.4517
18620TIP3   OH277274   0.197   0.446   2.059  0.5339  0.9635  0.1475
18620TIP3    H177275   0.147   0.438   1.978  0.4897  0.4833  0.2174
18620TIP3    H277276   0.136   0.488   2.121  0.1951  0.3482  0.2437
18621TIP3   OH277277   4.275   4.256   0.435  0.1788 -0.0719  0.0115
18621TIP3    H177278   4.347   4.249   0.497  2.1839 -1.0898 -2.2724
18621TIP3    H277279   4.220   4.180   0.453  0.6384 -0.2521  0.6678
18622TIP3   OH277280   0.610   0.331   5.954 -0.5980 -0.0036 -0.1459
18622TIP3    H177281   0.560   0.255   5.923  1.0900 -0.3007 -2.3653
18622TIP3    H277282   0.642   0.305   6.040  0.1984 -1.9813 -0.9786
18623TIP3   OH277283   2.839   2.169   3.697  0.1228 -0.6127 -0.2060
18623TIP3    H177284   2.851   2.182   3.603  2.8524 -1.4302 -0.0825
18623TIP3    H277285   2.821   2.256   3.731 -0.9952 -0.3125 -1.4727
18624TIP3   OH277286   0.289   0.166  14.534  0.3652  0.6364 -0.3008
18624TIP3    H177287   0.375   0.188  14.498  1.0901 -1.0053  0.3063
18624TIP3    H277288   0.276   0.227  14.606  1.6001  0.1343  0.3751
18625TIP3   OH277289   3.443   0.716   6.031 -0.4104 -0.1231 -0.4084
18625TIP3    H177290   3.434   0.650   6.100  0.3575 -0.1439 -0.3167
18625TIP3    H277291   3.417   0.798   6.073  0.9821  0.0272  0.2120
18626TIP3   OH277292   1.887   1.787   1.789  0.1595  0.1250 -0.0837
18626TIP3    H177293   1.836   1.836   1.725  1.2590 -1.8132 -2.6131
18626TIP3    H277294   1.887   1.697   1.757  0.7341 -0.9939  2.7258
18627TIP3   OH277295   4.575   2.114   3.190 -0.4283  0.4259 -0.3146
18627TIP3    H177296   4.641   2.046   3.207  0.5833  1.4008 -0.1679
18627TIP3    H277297   4.571   2.119   3.095 -0.0485  0.5709 -0.3266
18628TIP3   OH277298   0.070   0.931   3.800 -0.1984  0.0662 -0.1130
18628TIP3    H177299  -0.023   0.909   3.790 -0.0198 -0.4514 -0.6948
18628TIP3    H277300   0.077   0.962   3.890 -0.6189 -1.5699  0.5208
18629TIP3   OH277301   5.768   2.681  11.357 -0.2887 -0.4665 -0.2692
18629TIP3    H177302   5.763   2.590  11.387 -0.0068 -0.1713  0.7309
18629TIP3    H277303   5.837   2.681  11.290  2.0084 -0.4649  1.9311
18630TIP3   OH277304   5.128   1.425  16.783  0.2686 -0.0354 -0.2152
18630TIP3    H177305   5.105   1.405  16.873  1.3051 -0.0494  0.0666
18630TIP3    H277306   5.053   1.472  16.748 -1.7115 -3.1410 -0.4964
18631TIP3   OH277307   5.967   3.066  15.730  0.2645 -0.3092 -0.4750
18631TIP3    H177308   6.057   3.061  15.763  0.0701 -0.6629  0.0190
18631TIP3    H277309   5.961   2.996  15.666 -0.3418 -1.9182  1.2276
18632TIP3   OH277310   1.405   6.017   4.225 -0.3117  0.0540  0.2085
18632TIP3    H177311   1.498   6.036   4.213 -0.1831 -1.3124 -1.4712
18632TIP3    H277312   1.401   5.961   4.303  0.4628 -0.9091 -0.4202
18633TIP3   OH277313   5.655   6.410  14.696  0.5733  0.7178 -0.1641
18633TIP3    H177314   5.563   6.430  14.708  0.3326 -0.2026 -0.3710
18633TIP3    H277315   5.668   6.326  14.742  1.3040  0.8441 -0.1223
18634TIP3   OH277316   2.182   1.088   6.049 -0.1597  0.3212 -0.0529
18634TIP3    H177317   2.104   1.125   6.009  0.4525 -0.2602 -1.9045
18634TIP3    H277318   2.159   0.997   6.068 -0.3076  0.4728  0.4865
18635TIP3   OH277319   4.584   6.388   4.751  0.1229  0.1074 -0.3751
18635TIP3    H177320   4.552   6.306   4.715  1.3208  0.1442 -1.5973
18635TIP3    H277321   4.647   6.420   4.686  1.4202  0.8155  1.1681
18636TIP3   OH277322   4.836   1.416   5.189  0.2314 -0.2848  0.1542
18636TIP3    H177323   4.747   1.383   5.197 -0.5904  1.9607  1.0294
18636TIP3    H277324   4.845   1.438   5.096 -0.9246  1.4023  0.3950
18637TIP3   OH277325   3.154   5.528  12.564 -0.0591 -0.0417 -0.6034
18637TIP3    H177326   3.237   5.566  12.594  0.6086  0.1772 -2.6072
18637TIP3    H277327   3.103   5.517  12.644  1.6393  0.4464  0.6071
18638TIP3   OH277328   6.067   4.905   3.448 -0.0979  0.1822 -0.4162
18638TIP3    H177329   6.019   4.849   3.509  1.8161 -0.3340  0.6986
18638TIP3    H277330   6.046   4.994   3.477  0.6669 -0.0510  0.9839
18639TIP3   OH277331   3.015   0.713  13.410 -0.2556  0.1364 -0.5093
18639TIP3    H177332   2.935   0.742  13.454  0.5687 -0.6668  1.6157
18639TIP3    H277333   3.072   0.790  13.413 -0.5592  0.3955 -1.1262
18640TIP3   OH277334   3.623   4.617  12.944 -0.0394  0.4577  0.3952
18640TIP3    H177335   3.600   4.640  13.034  1.8667  3.1607  0.3118
18640TIP3    H277336   3.701   4.562  12.953 -0.4121 -0.0637  0.4247
18641TIP3   OH277337   1.710   2.240   1.084 -0.2202 -0.2574 -0.0693
18641TIP3    H177338   1.735   2.310   1.144 -0.8874  0.8805 -1.0686
18641TIP3    H277339   1.694   2.164   1.140 -1.7301  0.9986  1.3093
18642TIP3   OH277340   1.372   2.005   2.589 -0.1186 -0.8371  0.2695
18642TIP3    H177341   1.303   2.008   2.655  1.0886 -2.2484  1.6654
18642TIP3    H277342   1.452   1.989   2.638  0.8422 -1.7824 -1.4981
18643TIP3   OH277343   6.742   0.444  14.774  0.0351 -0.6069 -0.0637
18643TIP3    H177344   6.828   0.402  14.784  0.4157 -0.4026 -1.9354
18643TIP3    H277345   6.692   0.381  14.722 -0.2130  0.1600 -0.7850
18644TIP3   OH277346   4.256   2.592   1.327 -0.3467  0.1749  0.1026
18644TIP3    H177347   4.326   2.583   1.261  0.2377 -1.0101  0.8512
18644TIP3    H277348   4.178   2.557   1.284 -0.6738  2.0638 -0.9608
18645TIP3   OH277349   2.764   4.454  15.076 -0.2509 -0.3716 -0.4271
18645TIP3    H177350   2.724   4.522  15.130  2.2886 -0.9293  2.4292
18645TIP3    H277351   2.690   4.411  15.033 -2.3839  0.7917  1.8352
18646TIP3   OH277352   0.108   5.316  17.052 -0.2465  0.6732 -0.7524
18646TIP3    H177353   0.119   5.328  17.147 -0.2442 -1.3453 -0.4657
18646TIP3    H277354   0.168   5.379  17.013  1.6780 -0.2003  0.6338
18647TIP3   OH277355   4.627   1.433  16.702  0.0736 -0.0814  0.2212
18647TIP3    H177356   4.700   1.463  16.648  0.3481  0.3087  0.7958
18647TIP3    H277357   4.568   1.509  16.708 -0.8923 -0.6964 -1.0675
18648TIP3   OH277358   2.265   5.710   2.214 -0.2928  0.4865  0.8169
18648TIP3    H177359   2.204   5.697   2.286  0.4262  1.7699  1.6988
18648TIP3    H277360   2.213   5.754   2.146 -0.7915 -0.0877  0.8189
18649TIP3   OH277361   2.566   3.509  13.084  0.2751  0.4084 -0.1523
18649TIP3    H177362   2.556   3.426  13.038  0.6163  0.6968 -0.7638
18649TIP3    H277363   2.562   3.486  13.177  2.3525 -0.5936 -0.2438
18650TIP3   OH277364   0.937   1.122  15.826 -0.3734  0.3775 -0.5005
18650TIP3    H177365   0.985   1.040  15.816 -0.4804 -0.1048  2.3017
18650TIP3    H277366   0.874   1.105  15.896  1.4473  3.6022  2.2106
18651TIP3   OH277367   4.453   4.433  13.910 -0.1254  0.2385  0.2369
18651TIP3    H177368   4.496   4.447  13.995 -0.0667 -1.3624  0.5157
18651TIP3    H277369   4.362   4.457  13.924  0.5129  3.2464 -0.2312
18652TIP3   OH277370   4.969   4.879   1.640 -0.5654  0.0357 -0.5553
18652TIP3    H177371   4.894   4.851   1.692 -0.1474 -0.8762 -0.4390
18652TIP3    H277372   4.969   4.975   1.648  0.0413 -0.1171  1.8779
18653TIP3   OH277373   5.662   1.718   3.110  0.5833 -0.0271 -0.3873
18653TIP3    H177374   5.628   1.729   3.198  1.4122 -1.1396  0.0855
18653TIP3    H277375   5.587   1.689   3.058  0.0097  0.9880 -0.1555
18654TIP3   OH277376   2.081   2.113  12.830  0.0273 -0.4171  0.3348
18654TIP3    H177377   1.990   2.131  12.852  0.2223  1.4148 -0.1675
18654TIP3    H277378   2.129   2.191  12.858  1.3170 -1.0032 -0.1388
18655TIP3   OH277379   2.372   2.588  10.866 -0.1573 -0.0448  0.1731
18655TIP3    H177380   2.343   2.562  10.778  0.3417  0.1846 -0.0612
18655TIP3    H277381   2.426   2.665  10.851  1.9593 -1.3873  0.4250
18656TIP3   OH277382   4.383   4.370  17.157  0.5215 -0.3379  0.2066
18656TIP3    H177383   4.346   4.455  17.133 -3.8121 -1.6944  1.1706
18656TIP3    H277384   4.442   4.390  17.230 -0.1675  1.8538  0.2366
18657TIP3   OH277385   4.738   5.744  14.287 -0.2534  0.0102 -0.5114
18657TIP3    H177386   4.650   5.705  14.291  0.4131 -1.4889  0.3733
18657TIP3    H277387   4.739   5.807  14.359 -0.5378 -0.0944 -0.4146
18658TIP3   OH277388   2.339   4.023  12.755  0.3032 -0.4463  0.2106
18658TIP3    H177389   2.339   4.022  12.851  0.9223  0.4287  0.2231
18658TIP3    H277390   2.431   4.030  12.731  0.0528  0.7807 -0.4270
18659TIP3   OH277391   1.589   3.754   1.867  0.0843 -0.0484 -0.4798
18659TIP3    H177392   1.551   3.841   1.878  0.9044  0.2682 -0.0040
18659TIP3    H277393   1.524   3.705   1.818  0.1061  1.1745 -1.8085
18660TIP3   OH277394   0.968   3.571   4.366  0.0772 -0.5843 -0.2831
18660TIP3    H177395   0.892   3.585   4.422 -0.1435 -1.3588 -0.3726
18660TIP3    H277396   0.953   3.484   4.327  2.2032 -1.9301  1.6508
18661TIP3   OH277397   3.892   4.042   4.853  0.5356 -0.6778 -0.9205
18661TIP3    H177398   3.893   3.947   4.838  1.4029 -0.7850 -0.2521
18661TIP3    H277399   3.978   4.072   4.823  1.2233 -0.4826  1.1068
18662TIP3   OH277400   2.432   2.006  10.484 -0.0294 -0.9799 -0.4694
18662TIP3    H177401   2.357   2.062  10.465 -1.4735 -2.3874  0.8512
18662TIP3    H277402   2.394   1.923  10.510  2.0466 -2.7461 -2.6101
18663TIP3   OH277403   2.707   6.697   6.518  0.8520  0.2071 -0.1108
18663TIP3    H177404   2.793   6.718   6.554  1.1145  0.3459 -0.8110
18663TIP3    H277405   2.722   6.619   6.464  0.3286 -0.4185  0.6190
18664TIP3   OH277406   3.174   6.232   1.533  0.0032  0.9007 -0.1647
18664TIP3    H177407   3.161   6.160   1.471 -0.3891  0.3520  0.5388
18664TIP3    H277408   3.260   6.216   1.571 -0.0929  0.7818  0.0070
18665TIP3   OH277409   6.186   5.869  11.919  0.0968 -0.7473  0.1031
18665TIP3    H177410   6.165   5.895  11.829  1.3386  0.3664  0.1004
18665TIP3    H277411   6.280   5.849  11.917  0.0414 -1.1583  1.0617
18666TIP3   OH277412   2.074   0.187  11.287 -0.1371  0.0441 -0.4637
18666TIP3    H177413   1.995   0.224  11.328  0.1418 -0.2456  0.3582
18666TIP3    H277414   2.080   0.099  11.322 -0.4586 -0.5980 -1.9528
18667TIP3   OH277415   1.722   0.886  14.622  0.1619 -0.0546 -0.0947
18667TIP3    H177416   1.801   0.835  14.639  2.3789  2.1187 -2.7438
18667TIP3    H277417   1.707   0.936  14.702 -0.1536 -2.3619  1.3651
18668TIP3   OH277418   0.015   5.715  11.793  0.9077 -0.0772  0.0730
18668TIP3    H177419  -0.025   5.667  11.865 -0.7740  0.3671 -0.5103
18668TIP3    H277420  -0.015   5.805  11.804  0.0679 -0.1231 -1.5252
18669TIP3   OH277421   2.994   0.249   2.941 -0.1837  0.5652 -0.1652
18669TIP3    H177422   3.049   0.326   2.924 -0.6832  2.2652  4.3638
18669TIP3    H277423   2.911   0.285   2.973 -1.4892 -1.9112 -0.5306
18670TIP3   OH277424   3.057   1.870  13.112 -0.8340 -0.0359 -0.0249
18670TIP3    H177425   3.083   1.823  13.032  0.0395 -0.1871  0.3387
18670TIP3    H277426   3.025   1.954  13.081 -0.0839  0.0809 -0.5168
18671TIP3   OH277427   0.099   5.656  11.553 -0.1121 -0.3074  0.2088
18671TIP3    H177428   0.135   5.568  11.560  1.9248  0.5856  1.7775
18671TIP3    H277429   0.077   5.681  11.642 -0.8921  0.7010 -0.2417
18672TIP3   OH277430   2.025   3.557  12.512  0.6788 -0.6389 -0.0990
18672TIP3    H177431   2.010   3.476  12.560  2.4650  0.5662  2.7560
18672TIP3    H277432   2.114   3.549  12.477  1.2870  0.4143  1.1000
18673TIP3   OH277433   0.313   0.305  12.760  0.1340 -0.2776 -0.5089
18673TIP3    H177434   0.358   0.229  12.797  0.8043  0.7450  0.8814
18673TIP3    H277435   0.221   0.292  12.780  0.4862  0.3034  1.7621
18674TIP3   OH277436   0.921   4.122  12.152  0.2096  0.1435 -0.3106
18674TIP3    H177437   0.852   4.170  12.106 -1.0837  0.6345  2.0087
18674TIP3    H277438   0.947   4.054  12.090 -1.4046  0.7742 -1.7826
18675TIP3   OH277439   5.433   0.199   4.772 -0.1405 -0.6698 -0.0255
18675TIP3    H177440   5.339   0.185   4.758 -0.2776 -0.0348  0.2063
18675TIP3    H277441   5.456   0.141   4.844 -0.3688 -0.8002 -0.0583
18676TIP3   OH277442   1.798   0.695   0.214  0.4587 -0.0589  0.0152
18676TIP3    H177443   1.712   0.687   0.171 -1.0470  0.9036  2.6455
18676TIP3    H277444   1.827   0.784   0.194  0.3922 -0.0614 -0.0915
18677TIP3   OH277445   3.284   3.480   6.555  0.0009 -0.0056 -0.0407
18677TIP3    H177446   3.242   3.420   6.493  3.2309  0.4699 -3.0537
18677TIP3    H277447   3.226   3.555   6.559 -0.5204 -0.2092 -2.3340
18678TIP3   OH277448   1.381   6.308   0.733 -0.4170 -0.4027 -0.1598
18678TIP3    H177449   1.337   6.265   0.660  0.3662 -1.3417 -0.1097
18678TIP3    H277450   1.471   6.322   0.702 -0.4669  0.5160  0.1014
18679TIP3   OH277451   4.759   0.089  17.254 -0.1235  0.0905  0.1838
18679TIP3    H177452   4.850   0.069  17.276 -0.0278 -0.8649 -0.9735
18679TIP3    H277453   4.762   0.116  17.162 -1.0955 -0.6344 -0.0702
18680TIP3   OH277454   4.594   6.374  14.634  0.9329 -0.2528  0.6287
18680TIP3    H177455   4.650   6.390  14.711  1.4569 -1.6272  0.5537
18680TIP3    H277456   4.529   6.445  14.637  0.7292 -0.4658  2.5449
18681TIP3   OH277457   3.207   5.742  14.364 -0.2529  0.3247 -0.4827
18681TIP3    H177458   3.246   5.751  14.451  1.0463  0.1807 -1.0139
18681TIP3    H277459   3.236   5.655  14.335 -2.2367 -0.4204 -0.3324
18682TIP3   OH277460   1.044   2.435  14.299 -0.0639  0.0154 -0.3391
18682TIP3    H177461   1.012   2.513  14.254 -1.1211  0.1099  0.5374
18682TIP3    H277462   1.047   2.459  14.391  0.9214 -0.5575 -0.2126
18683TIP3   OH277463   0.968   4.622  13.889 -0.3766  0.0140  0.0345
18683TIP3    H177464   1.000   4.711  13.901 -0.7033 -0.0662  1.8205
18683TIP3    H277465   0.909   4.627  13.814  1.8779  0.6462 -1.7823
18684TIP3   OH277466   4.558   2.318   4.811 -0.3545  0.4053 -0.2392
18684TIP3    H177467   4.579   2.362   4.729 -1.7591  1.1594 -0.2315
18684TIP3    H277468   4.631   2.339   4.869  0.6710 -0.1568 -1.2726
18685TIP3   OH277469   1.713   0.992   4.421 -0.2049 -0.0939  0.0875
18685TIP3    H177470   1.664   1.020   4.498 -0.3020  1.7658 -0.5925
18685TIP3    H277471   1.692   0.899   4.411 -2.3401  0.2709  0.7367
18686TIP3   OH277472   3.843   6.187  13.192 -0.1959 -0.1309 -0.5305
18686TIP3    H177473   3.768   6.195  13.133 -0.6815 -0.0915  0.0837
18686TIP3    H277474   3.894   6.114  13.156 -0.2793  0.1406 -1.2127
18687TIP3   OH277475   3.848   4.457  14.036  0.6483  0.0737  0.1533
18687TIP3    H177476   3.806   4.390  14.090  0.8310  0.1643  0.4139
18687TIP3    H277477   3.798   4.457  13.955 -0.9348  1.3270  1.0528
18688TIP3   OH277478   0.860   3.371  16.905  0.5229 -0.8485 -0.1357
18688TIP3    H177479   0.925   3.431  16.870  1.4813 -1.3373  0.7499
18688TIP3    H277480   0.786   3.427  16.930  1.3862 -0.0209  0.6583
18689TIP3   OH277481   2.976   3.829  11.706 -0.1150  0.2654  0.3918
18689TIP3    H177482   3.052   3.835  11.764 -1.7023  2.8665  2.4688
18689TIP3    H277483   2.988   3.899  11.642  0.9115 -1.6638 -1.6523
18690TIP3   OH277484   2.096   4.360  13.819 -0.2429  0.6444  0.2276
18690TIP3    H177485   2.036   4.320  13.756 -1.2793 -0.0904  1.6314
18690TIP3    H277486   2.168   4.297  13.827  0.0752  0.9087 -0.4662
18691TIP3   OH277487   6.535   6.121  11.387 -0.0410 -0.0806 -0.2434
18691TIP3    H177488   6.525   6.187  11.456 -0.3163  1.1573 -1.4260
18691TIP3    H277489   6.627   6.095  11.393  0.2530  0.9174 -0.1814
18692TIP3   OH277490   4.806   0.713  12.642  0.0243  0.1101  0.1719
18692TIP3    H177491   4.743   0.698  12.712  0.4650  0.6793  0.6975
18692TIP3    H277492   4.837   0.803  12.655  1.7607 -0.4945  0.6058
18693TIP3   OH277493   1.623   1.288   5.119  0.4574  0.0500  0.1889
18693TIP3    H177494   1.683   1.235   5.170 -0.1788  0.8532  1.8405
18693TIP3    H277495   1.548   1.302   5.177 -0.7785  0.1323 -1.3515
18694TIP3   OH277496   0.749   2.427  12.647 -0.0203  0.3787 -0.3329
18694TIP3    H177497   0.674   2.435  12.588 -0.7649 -0.1645  0.5216
18694TIP3    H277498   0.792   2.346  12.620 -1.0433 -0.5091  0.6011
18695TIP3   OH277499   0.883   5.564   3.641 -0.0505  0.5537 -0.0002
18695TIP3    H177500   0.870   5.568   3.736 -1.6140 -0.3201 -0.1316
18695TIP3    H277501   0.950   5.496   3.629 -0.4048  0.1185  0.4509
18696TIP3   OH277502   5.634   2.463  13.051 -0.2664 -0.3215 -0.1176
18696TIP3    H177503   5.712   2.519  13.047  2.2370 -3.4780 -0.3623
18696TIP3    H277504   5.631   2.419  12.966 -0.9496 -1.8424  0.6411
18697TIP3   OH277505   6.102   1.380   2.452 -0.4580 -0.2793 -0.2910
18697TIP3    H177506   6.185   1.351   2.415 -1.2355  0.2747 -2.6672
18697TIP3    H277507   6.043   1.306   2.441 -0.4480 -0.4936  0.9261
18698TIP3   OH277508   0.294   0.461   0.829  0.1132 -0.1601  0.1745
18698TIP3    H177509   0.241   0.536   0.802  0.8197  0.0072 -0.8077
18698TIP3    H277510   0.358   0.498   0.890  0.1611 -0.0582  0.0626
18699TIP3   OH277511   5.005   5.690   4.278  0.1864  0.2367  0.1667
18699TIP3    H177512   5.026   5.770   4.326  0.7105  0.0998  0.1753
18699TIP3    H277513   5.090   5.650   4.261  0.0102  0.2559 -0.8311
18700TIP3   OH277514   0.182   0.735  16.755  0.2315 -0.0666  0.0783
18700TIP3    H177515   0.264   0.714  16.710 -0.1674  0.0786 -0.7430
18700TIP3    H277516   0.130   0.782  16.689 -1.9017 -3.1054 -0.6218
18701TIP3   OH277517   5.754   0.796   5.430  0.4904 -0.5528 -0.4377
18701TIP3    H177518   5.706   0.782   5.511  0.0616  1.6857 -0.2276
18701TIP3    H277519   5.686   0.808   5.363  0.7932 -0.2947 -0.7040
18702TIP3   OH277520   0.340   6.664  14.878 -0.1194 -0.2600 -0.4598
18702TIP3    H177521   0.333   6.755  14.905  0.0764 -0.5948  0.7890
18702TIP3    H277522   0.301   6.614  14.951  1.6277 -1.2782 -0.1610
18703TIP3   OH277523   1.789   4.439  11.578  0.2372  0.2427 -0.5266
18703TIP3    H177524   1.750   4.414  11.661  0.9402  0.6119 -0.0753
18703TIP3    H277525   1.742   4.518  11.551  0.8635  0.8782  0.1781
18704TIP3   OH277526   1.066   2.590  13.564 -0.3816  0.4740 -0.4573
18704TIP3    H177527   1.016   2.666  13.533 -1.5530  0.8020  2.0095
18704TIP3    H277528   1.099   2.617  13.649 -1.1203 -1.8841  0.6361
18705TIP3   OH277529   1.415   0.924  11.289  0.2949  0.1037  0.0709
18705TIP3    H177530   1.435   0.998  11.231  0.0100  1.1753  1.3053
18705TIP3    H277531   1.329   0.892  11.259  0.9729 -0.5556 -1.2606
18706TIP3   OH277532   3.455   3.960   3.132 -0.2094 -0.3874  0.2927
18706TIP3    H177533   3.360   3.949   3.118 -0.0753 -1.0470 -0.1604
18706TIP3    H277534   3.463   3.980   3.225 -0.8949  0.9516  0.0943
18707TIP3   OH277535   4.389   6.003   2.872 -0.5179  0.5372  0.2004
18707TIP3    H177536   4.370   5.920   2.914 -1.8840  0.9499  0.4835
18707TIP3    H277537   4.340   6.000   2.790 -1.2157  1.3278  0.5601
18708TIP3   OH277538   2.230   5.200   6.072  0.0065 -0.2088 -0.2393
18708TIP3    H177539   2.155   5.168   6.123 -0.6978  1.1867 -0.3624
18708TIP3    H277540   2.275   5.261   6.131 -0.2033  0.6059 -0.9052
18709TIP3   OH277541   3.461   4.147  13.175 -0.3911 -0.1385  0.3306
18709TIP3    H177542   3.463   4.232  13.133  0.1686 -0.7626 -0.9603
18709TIP3    H277543   3.503   4.161  13.260  1.8024  0.4488 -0.7673
18710TIP3   OH277544   1.060   5.844   2.185  0.1959 -1.2253  0.2006
18710TIP3    H177545   1.134   5.785   2.196  1.7913  0.6129 -0.1087
18710TIP3    H277546   1.054   5.891   2.268 -0.1535 -0.8700 -0.0208
18711TIP3   OH277547   0.294   1.523   5.181 -0.0882  0.6534 -0.3665
18711TIP3    H177548   0.377   1.494   5.143  0.9038  1.6405  0.9582
18711TIP3    H277549   0.316   1.602   5.231 -2.1861  2.1695 -1.6360
18712TIP3   OH277550   1.170   6.104   4.345 -0.1393  0.2354 -0.1904
18712TIP3    H177551   1.253   6.090   4.299 -1.2569  1.7910 -2.9630
18712TIP3    H277552   1.178   6.193   4.381 -0.9645  0.8975 -1.5410
18713TIP3   OH277553   5.304   1.574   2.650  0.5420  0.1742  0.0157
18713TIP3    H177554   5.268   1.486   2.637  0.9409  0.1037 -0.6535
18713TIP3    H277555   5.394   1.559   2.677  0.5980  0.3777 -0.0585
18714TIP3   OH277556   2.701   1.035  12.919 -0.1920  0.6946  0.4837
18714TIP3    H177557   2.625   0.993  12.961 -0.0670  1.5089  1.5427
18714TIP3    H277558   2.776   1.002  12.967  0.4652 -2.0527 -2.0755
18715TIP3   OH277559   4.924   2.827  12.238  0.0603 -0.7536  0.1686
18715TIP3    H177560   4.974   2.856  12.162  0.7977 -1.9635  0.1595
18715TIP3    H277561   4.856   2.893  12.250  1.5164  0.8377  0.0271
18716TIP3   OH277562   0.485   6.352  14.336  0.1782  0.0726  0.0542
18716TIP3    H177563   0.416   6.380  14.395  0.9934 -0.9516  1.5490
18716TIP3    H277564   0.475   6.257  14.331  0.1312  0.1231 -1.4940
18717TIP3   OH277565   2.332   4.717   3.609  0.0096  0.3424 -0.5257
18717TIP3    H177566   2.366   4.664   3.537 -0.6160 -0.6594 -0.1091
18717TIP3    H277567   2.315   4.654   3.680  0.1135  1.2334  0.3107
18718TIP3   OH277568   2.682   1.680  15.212 -0.5846  0.2050 -0.2851
18718TIP3    H177569   2.766   1.635  15.211 -0.5104  0.3073  0.8283
18718TIP3    H277570   2.619   1.613  15.183 -0.0083  0.4411 -2.2597
18719TIP3   OH277571   4.272   2.113   2.706 -0.2091  0.1744 -0.5016
18719TIP3    H177572   4.252   2.060   2.628 -1.1844 -0.6542  0.2868
18719TIP3    H277573   4.187   2.128   2.747  0.2515  0.9242  0.2118
18720TIP3   OH277574   2.765   1.536   0.753 -0.0355  0.2443 -0.3895
18720TIP3    H177575   2.707   1.479   0.804 -0.4180  0.2633 -0.7987
18720TIP3    H277576   2.807   1.477   0.691  2.8055 -0.3804  1.9192
18721TIP3   OH277577   0.854   0.828  15.462 -0.3409 -0.6061 -0.2182
18721TIP3    H177578   0.824   0.787  15.543 -2.6612  0.7354 -0.3091
18721TIP3    H277579   0.904   0.760  15.417 -1.6016 -2.3502  0.9302
18722TIP3   OH277580   4.433   1.319   1.247  0.6124  0.3173  0.0717
18722TIP3    H177581   4.512   1.340   1.297  0.2518 -0.9388  1.2024
18722TIP3    H277582   4.465   1.292   1.161  1.4930 -1.0534  0.8034
18723TIP3   OH277583   5.619   4.288   4.643 -0.2188  0.2109 -0.0567
18723TIP3    H177584   5.658   4.201   4.643  0.4365  0.4934  0.7119
18723TIP3    H277585   5.624   4.317   4.734  0.8459  1.6072 -0.5136
18724TIP3   OH277586   3.450   1.044  17.240 -0.4376 -0.1270 -0.1156
18724TIP3    H177587   3.389   0.972  17.221 -0.8399  0.2086 -0.1034
18724TIP3    H277588   3.450   1.050  17.335 -1.1228  0.4958 -0.1459
18725TIP3   OH277589   1.675   5.456  13.880  0.3441 -0.0576  0.9512
18725TIP3    H177590   1.637   5.521  13.822  0.7286  0.0641  0.8310
18725TIP3    H277591   1.740   5.504  13.931 -0.3657 -0.0390  1.8805
18726TIP3   OH277592   1.082   0.844   2.239  0.1764 -0.4122  0.7159
18726TIP3    H177593   1.176   0.860   2.227 -0.1172  1.1472  0.1981
18726TIP3    H277594   1.046   0.931   2.257 -1.4253 -0.7161 -0.8210
18727TIP3   OH277595   3.506   3.033   0.217 -0.0401  0.0572 -1.0086
18727TIP3    H177596   3.422   2.988   0.214 -0.1644  0.2569 -0.6189
18727TIP3    H277597   3.526   3.041   0.311  0.5404 -0.2306 -1.1017
18728TIP3   OH277598   0.967   3.332   5.673  0.0230 -0.1480  0.2763
18728TIP3    H177599   0.909   3.403   5.646 -2.6315 -2.0423  0.4591
18728TIP3    H277600   0.966   3.335   5.769  1.6802  0.8362  0.2848
18729TIP3   OH277601   6.356   3.800  15.671 -0.7289  0.3048 -0.5604
18729TIP3    H177602   6.401   3.716  15.660  0.4756  1.0462 -1.5460
18729TIP3    H277603   6.278   3.792  15.617 -0.2299  0.0806 -1.2639
18730TIP3   OH277604   6.374   5.668   2.982 -0.1831  0.7535 -0.2901
18730TIP3    H177605   6.356   5.576   2.999  1.6124  0.0896 -1.7290
18730TIP3    H277606   6.319   5.715   3.046 -0.5079 -1.2964  1.0385
18731TIP3   OH277607   1.977   0.178   0.041  0.6763 -0.5536 -0.3809
18731TIP3    H177608   2.029   0.194   0.120  1.2851 -2.7608 -0.2783
18731TIP3    H277609   2.013   0.098   0.004 -0.8157 -0.5795 -1.8897
18732TIP3   OH277610   2.531   0.467   4.384  0.8606  0.4622  0.5051
18732TIP3    H177611   2.472   0.434   4.452  1.4863 -0.2516  0.7158
18732TIP3    H277612   2.474   0.493   4.312  0.3023 -0.3292  0.6557
18733TIP3   OH277613   6.649   5.791  15.887 -0.0748  0.1551 -0.1042
18733TIP3    H177614   6.668   5.842  15.808  1.5153  0.2747  0.3366
18733TIP3    H277615   6.669   5.701  15.863  1.4036  0.3177  0.4499
18734TIP3   OH277616   1.982   5.700  11.076  0.5286  0.2193 -0.1198
18734TIP3    H177617   1.890   5.721  11.085  0.5859  0.5459 -0.2948
18734TIP3    H277618   2.001   5.716  10.983  0.2311 -1.9230 -0.6138
18735TIP3   OH277619   1.357   5.446  13.969 -0.5461 -0.9282 -0.2179
18735TIP3    H177620   1.403   5.365  13.994  0.4796  0.3272  2.3267
18735TIP3    H277621   1.424   5.498  13.924 -0.4642 -0.4805  0.4209
18736TIP3   OH277622   5.843   3.644  14.130 -0.5572 -0.3728  0.2606
18736TIP3    H177623   5.807   3.620  14.044  0.7866 -0.8604 -0.1944
18736TIP3    H277624   5.845   3.561  14.179 -2.4684  0.1084  1.2416
18737TIP3   OH277625   1.800   5.164   3.360 -0.5939  0.5870 -0.5008
18737TIP3    H177626   1.830   5.137   3.274  0.9352 -0.5855  0.3414
18737TIP3    H277627   1.782   5.082   3.407  0.7618  1.0755  0.9841
18738TIP3   OH277628   2.519   0.966  12.068 -0.5275  0.6088 -0.9584
18738TIP3    H177629   2.610   0.939  12.079 -1.0673 -0.8695  0.3649
18738TIP3    H277630   2.523   1.043  12.012  1.4336 -0.0954 -1.8803
18739TIP3   OH277631   0.398   6.289  12.859  0.3384 -0.2710  0.3713
18739TIP3    H177632   0.457   6.229  12.813  0.0183 -0.8942  0.7466
18739TIP3    H277633   0.352   6.335  12.790  0.5704 -0.4809  0.0717
18740TIP3   OH277634   4.966   4.348   0.453 -0.6464  0.2873 -0.6955
18740TIP3    H177635   5.032   4.392   0.507 -1.5682  1.6128 -0.6174
18740TIP3    H277636   4.988   4.255   0.460 -1.0558  0.3190  2.4444
18741TIP3   OH277637   1.294   0.792   0.373 -0.0451 -0.1185  0.3352
18741TIP3    H177638   1.209   0.765   0.409 -0.1515 -0.1680  0.0519
18741TIP3    H277639   1.337   0.711   0.350 -1.1226 -0.0527 -2.2471
18742TIP3   OH277640   2.113   3.586   4.588 -0.4301 -0.3915 -0.0724
18742TIP3    H177641   2.024   3.553   4.599 -0.4875 -0.2710 -0.1828
18742TIP3    H277642   2.135   3.623   4.673 -0.8717  0.5286 -0.3400
18743TIP3   OH277643   3.443   5.847   4.052 -0.2091 -0.1447 -0.3531
18743TIP3    H177644   3.420   5.937   4.027  0.6449  0.6689  1.5458
18743TIP3    H277645   3.367   5.816   4.101 -0.3875 -0.3693 -0.7661
18744TIP3   OH277646   5.969   0.413   1.795  0.5411 -0.2023 -0.2439
18744TIP3    H177647   5.910   0.486   1.776  0.2070 -0.2277  0.6482
18744TIP3    H277648   5.940   0.380   1.880  1.0477 -1.0185 -0.3773
18745TIP3   OH277649   4.447   1.276   5.858  0.3760  0.2508  0.2300
18745TIP3    H177650   4.407   1.272   5.945 -0.8867 -0.0782 -0.3407
18745TIP3    H277651   4.440   1.187   5.824  0.1826  0.5351 -0.4955
18746TIP3   OH277652   4.493   3.412   3.149  0.2146  0.3549 -0.2381
18746TIP3    H177653   4.503   3.329   3.104 -1.0752 -0.5545  1.0496
18746TIP3    H277654   4.406   3.408   3.188 -0.6565  3.1013 -1.6809
18747TIP3   OH277655   2.409   3.052  15.631 -0.5617 -0.6845 -0.7651
18747TIP3    H177656   2.504   3.040  15.625 -0.1624  0.6494  1.7833
18747TIP3    H277657   2.392   3.132  15.581 -0.0083  0.1788  0.3796
18748TIP3   OH277658   6.359   2.682   2.915  0.4583 -0.5051  0.3809
18748TIP3    H177659   6.268   2.657   2.933  0.2775 -0.5984 -0.6311
18748TIP3    H277660   6.410   2.625   2.972  0.0145 -2.6300 -1.2047
18749TIP3   OH277661   1.659   5.619   1.771 -0.3949 -0.1107 -0.1778
18749TIP3    H177662   1.681   5.527   1.757  1.7590  0.6088 -2.2451
18749TIP3    H277663   1.698   5.641   1.855  1.6647 -0.4117 -1.0113
18750TIP3   OH277664   2.632   0.737  13.224 -0.1714  0.2361 -0.2036
18750TIP3    H177665   2.658   0.656  13.180 -0.8178 -0.5003  0.7329
18750TIP3    H277666   2.704   0.797  13.208 -0.6345  0.2000 -2.7445
18751TIP3   OH277667   2.372   0.279  10.341  0.1202 -0.0747  0.4915
18751TIP3    H177668   2.345   0.188  10.332 -0.1500 -0.1678  2.0061
18751TIP3    H277669   2.295   0.323  10.378  0.2512  0.7652 -0.2072
18752TIP3   OH277670   0.086   4.613   1.344  0.3073  0.2249 -0.2524
18752TIP3    H177671   0.089   4.658   1.260  1.7082 -0.0806 -0.3739
18752TIP3    H277672   0.149   4.661   1.399  0.2325 -0.2746  0.2763
18753TIP3   OH277673   1.245   4.853  14.358 -0.5881 -0.1921 -0.1917
18753TIP3    H177674   1.313   4.786  14.365 -1.8618 -1.5791 -0.5844
18753TIP3    H277675   1.292   4.933  14.334  1.1657 -0.5389  1.7752
18754TIP3   OH277676   5.617   6.134   2.515  0.0253  0.1541  0.2963
18754TIP3    H177677   5.553   6.063   2.525  0.3233 -0.3304 -0.9688
18754TIP3    H277678   5.610   6.185   2.596 -3.3264  1.2576 -0.5213
18755TIP3   OH277679   3.520   2.051   1.516 -0.0228 -0.3636  0.2168
18755TIP3    H177680   3.473   2.119   1.564  0.9209  0.3152  0.2086
18755TIP3    H277681   3.591   2.025   1.574  0.6157 -0.1460 -0.4492
18756TIP3   OH277682   1.453   2.342   3.649  0.1553 -0.1468 -0.1863
18756TIP3    H177683   1.389   2.279   3.683  0.2907  0.3689  1.0577
18756TIP3    H277684   1.401   2.408   3.605  0.0472 -1.5202 -2.2598
18757TIP3   OH277685   2.129   4.898   1.980  0.4569 -0.3007  0.7016
18757TIP3    H177686   2.217   4.929   1.957  0.4527 -0.7544  0.0498
18757TIP3    H277687   2.142   4.808   2.009  0.2902 -0.1467  1.2676
18758TIP3   OH277688   2.518   0.861   1.315 -0.0257 -0.4188  0.2359
18758TIP3    H177689   2.590   0.907   1.272 -0.7486 -1.5047 -2.3297
18758TIP3    H277690   2.441   0.883   1.262 -1.0207 -1.6771  1.1198
18759TIP3   OH277691   3.691   2.160  14.012  0.1517  0.2717 -0.6625
18759TIP3    H177692   3.693   2.066  13.997 -1.1325 -0.3649  2.4123
18759TIP3    H277693   3.602   2.186  13.990  0.1710  0.5421 -0.4322
18760TIP3   OH277694   4.907   4.235  17.107 -0.4094  0.1307  0.3368
18760TIP3    H177695   4.878   4.256  17.018 -0.0078  1.1566  0.4417
18760TIP3    H277696   4.988   4.185  17.095 -0.0650  0.7355  0.1400
18761TIP3   OH277697   5.403   1.499  12.778  0.2270 -0.5512 -0.3936
18761TIP3    H177698   5.447   1.581  12.800 -0.2616 -0.4818  0.3314
18761TIP3    H277699   5.469   1.449  12.730  1.2449 -0.6182  1.0264
18762TIP3   OH277700   3.914   6.405   1.404 -0.0777  0.9219  0.1633
18762TIP3    H177701   3.936   6.442   1.318 -1.3022 -1.7104 -1.3900
18762TIP3    H277702   3.829   6.443   1.425  0.2182  1.5593  0.2672
18763TIP3   OH277703   4.845   3.119  12.256  0.4696  0.3367 -0.2919
18763TIP3    H177704   4.842   3.179  12.330  0.2206  1.2592 -1.0281
18763TIP3    H277705   4.923   3.145  12.207 -1.8643  3.0660 -2.9873
18764TIP3   OH277706   3.833   1.060  16.816 -0.8407  0.0934  0.4535
18764TIP3    H177707   3.852   1.023  16.902  1.3209  0.9262  0.4129
18764TIP3    H277708   3.907   1.033  16.762  0.0836  3.0688  0.0341
18765TIP3   OH277709   6.732   5.256   0.448  0.1878  0.7449 -0.3639
18765TIP3    H177710   6.755   5.304   0.368 -2.3201  2.2880 -0.2902
18765TIP3    H277711   6.677   5.183   0.416 -1.0440  1.5205 -0.0994
18766TIP3   OH277712   0.728   4.822   3.881 -0.5457 -0.2499 -0.2698
18766TIP3    H177713   0.721   4.730   3.904 -1.0745 -0.3770 -0.9097
18766TIP3    H277714   0.732   4.868   3.964  0.0119 -0.8671  0.0542
18767TIP3   OH277715   0.429   1.868   4.044 -0.1633  0.2167  0.2684
18767TIP3    H177716   0.417   1.797   4.107 -0.2946  0.2902  0.3281
18767TIP3    H277717   0.472   1.827   3.969  0.0492  0.1420  0.4307
18768TIP3   OH277718   1.437   6.358  15.787 -0.2034 -0.5860  0.0215
18768TIP3    H177719   1.366   6.368  15.724 -0.4893 -1.4120  0.1945
18768TIP3    H277720   1.435   6.439  15.838  0.5640  0.4597 -1.5244
18769TIP3   OH277721   3.141   6.350  15.499 -0.4561  0.3528 -0.4333
18769TIP3    H177722   3.184   6.407  15.435 -0.8377  0.0043 -1.0097
18769TIP3    H277723   3.061   6.395  15.522 -1.7769 -0.8262 -2.4106
18770TIP3   OH277724   4.661   4.904  11.889  0.4525 -0.1398  0.0405
18770TIP3    H177725   4.688   4.887  11.979  0.0899  0.5571  0.2887
18770TIP3    H277726   4.707   4.837  11.837 -0.0064 -1.0811  0.8231
18771TIP3   OH277727   2.054   5.625   4.094 -0.2813  0.7687 -0.5875
18771TIP3    H177728   1.975   5.572   4.096  0.6747 -0.7112 -0.0749
18771TIP3    H277729   2.093   5.605   4.008  1.4409 -1.5639  0.6172
18772TIP3   OH277730   1.559   6.368   0.285  0.0977 -0.1842 -0.3269
18772TIP3    H177731   1.622   6.433   0.317  0.4013 -0.4379 -0.3991
18772TIP3    H277732   1.610   6.287   0.279  0.5615  0.2118 -3.1963
18773TIP3   OH277733   5.639   6.164   1.487 -0.2108 -0.1703  0.3986
18773TIP3    H177734   5.682   6.115   1.557  0.2135  0.4996  0.6261
18773TIP3    H277735   5.625   6.101   1.417  2.4916 -0.1119 -0.2829
18774TIP3   OH277736   2.994   2.631  15.427 -0.3165 -0.1644 -0.8482
18774TIP3    H177737   2.926   2.564  15.426 -0.3401 -0.1708  0.0934
18774TIP3    H277738   2.949   2.713  15.407 -0.6620 -0.1257  0.0513
18775TIP3   OH277739   2.384   0.795  13.243  0.7547 -0.2151 -0.3040
18775TIP3    H177740   2.337   0.717  13.272 -1.8380  1.1640 -0.4711
18775TIP3    H277741   2.476   0.768  13.238 -0.0803 -3.3328 -0.7776
18776TIP3   OH277742   4.170   4.803   0.747 -0.2019 -0.1527 -0.1084
18776TIP3    H177743   4.251   4.777   0.703 -0.0363 -0.3131  0.2817
18776TIP3    H277744   4.197   4.874   0.806 -0.2497 -0.5341  0.3793
18777TIP3   OH277745   4.891   0.821  12.348  0.1025 -0.6623  0.0298
18777TIP3    H177746   4.873   0.878  12.423  2.3989  0.2762 -0.0578
18777TIP3    H277747   4.870   0.733  12.380 -0.4954 -0.1129  1.2195
18778TIP3   OH277748   4.990   1.691  17.102  0.7672 -0.2542 -0.3701
18778TIP3    H177749   4.965   1.782  17.118 -0.5031 -0.6523  0.0519
18778TIP3    H277750   4.921   1.657  17.044  0.7944 -1.1516  0.1007
18779TIP3   OH277751   1.463   3.827  12.299 -0.0263 -0.3735  0.3308
18779TIP3    H177752   1.555   3.812  12.279  0.3636  0.2416  1.6089
18779TIP3    H277753   1.452   3.922  12.295 -0.8443 -0.4858 -0.7420
18780TIP3   OH277754   4.399   6.709  10.486 -0.2836  0.3187 -0.1529
18780TIP3    H177755   4.433   6.781  10.538  0.2348 -0.4527  0.6047
18780TIP3    H277756   4.474   6.650  10.475 -0.7573 -0.2183 -0.5405
18781TIP3   OH277757   1.709   5.782  13.803  0.3536  0.0107  0.1773
18781TIP3    H177758   1.795   5.808  13.769  0.4020 -0.0650  0.2385
18781TIP3    H277759   1.650   5.853  13.778  0.1617 -0.5489 -1.0091
18782TIP3   OH277760   4.420   1.024   0.923 -0.3707 -0.5518  0.0024
18782TIP3    H177761   4.330   1.036   0.952 -0.3446  0.0670 -0.1582
18782TIP3    H277762   4.473   1.041   1.001 -0.3667 -0.4069 -0.0332
18783TIP3   OH277763   5.583   1.717   3.392  0.4181 -0.5368 -0.1675
18783TIP3    H177764   5.507   1.680   3.437 -1.0548  1.8688 -0.5503
18783TIP3    H277765   5.623   1.775   3.457  0.2111  0.4105 -0.8671
18784TIP3   OH277766   3.896   0.780  16.687  0.5673  0.3373  0.1673
18784TIP3    H177767   3.806   0.784  16.721  1.6054 -0.7276  3.3458
18784TIP3    H277768   3.902   0.694  16.646  0.8981 -0.8855  2.6170
18785TIP3   OH277769   3.227   6.714   0.369 -0.4260  0.7758  0.5994
18785TIP3    H177770   3.316   6.745   0.384  0.1731 -0.3415 -0.4991
18785TIP3    H277771   3.237   6.625   0.336 -1.8593  1.2584 -1.2879
18786TIP3   OH277772   2.091   4.046  13.341 -0.0530 -0.1370  0.0731
18786TIP3    H177773   2.125   3.966  13.383 -0.4229  0.1232  0.8759
18786TIP3    H277774   2.065   4.017  13.253  1.2170 -0.5789 -0.1851
18787TIP3   OH277775   6.263   2.064   1.378 -0.3313  0.0322 -0.6724
18787TIP3    H177776   6.176   2.041   1.345 -0.4331  0.0868 -0.4399
18787TIP3    H277777   6.251   2.076   1.472  0.1155 -0.9080 -0.4842
18788TIP3   OH277778   6.153   5.117  17.018 -0.0321  0.3310  0.5878
18788TIP3    H177779   6.141   5.210  17.038 -0.5320  0.2834  0.5364
18788TIP3    H277780   6.075   5.075  17.056 -0.4980  0.1129 -0.5690
18789TIP3   OH277781   0.345   5.153   3.811  0.2988  0.0551  0.3320
18789TIP3    H177782   0.433   5.187   3.827  0.8260 -0.9526 -0.3117
18789TIP3    H277783   0.304   5.150   3.898  0.7608  0.8722  0.5844
18790TIP3   OH277784   2.817   1.316   1.270 -0.2280  0.1174 -0.6617
18790TIP3    H177785   2.815   1.408   1.245  2.4763 -0.1165 -2.0661
18790TIP3    H277786   2.850   1.316   1.360  1.4210  0.5007 -1.2367
18791TIP3   OH277787   0.988   3.853  13.296 -0.4871  0.4573  0.4047
18791TIP3    H177788   0.986   3.795  13.372 -2.0095 -0.0313  0.0267
18791TIP3    H277789   1.018   3.937  13.331  0.3627 -0.1709  1.2305
18792TIP3   OH277790   3.573   4.553   2.916  0.3122  0.0788  0.6866
18792TIP3    H177791   3.625   4.572   2.838 -0.5689  2.2405  0.5700
18792TIP3    H277792   3.482   4.559   2.887 -0.0993 -2.5251  1.1494
18793TIP3   OH277793   4.274   1.442  14.079 -0.4127 -0.1021 -0.2412
18793TIP3    H177794   4.275   1.373  14.013  0.6894  0.0487 -0.4104
18793TIP3    H277795   4.227   1.404  14.154  1.6018 -1.6740  0.3157
18794TIP3   OH277796   4.013   5.442   1.860 -0.3742  0.2616  0.5242
18794TIP3    H177797   3.963   5.409   1.785  1.0611 -0.3688 -0.2022
18794TIP3    H277798   3.981   5.391   1.934 -0.7540 -0.1958  0.0539
18795TIP3   OH277799   5.881   3.258   4.946 -0.5509  0.1115  0.1279
18795TIP3    H177800   5.952   3.292   5.001  0.2578 -0.0820 -0.7843
18795TIP3    H277801   5.840   3.190   5.000 -0.3813  0.5721  0.8573
18796TIP3   OH277802   6.141   2.572  14.626 -0.0489 -0.3402  0.3335
18796TIP3    H177803   6.180   2.638  14.568  0.0770  0.1282  0.9436
18796TIP3    H277804   6.048   2.576  14.608  0.2252 -2.2122 -1.9195
18797TIP3   OH277805   4.183   2.834  12.275  0.5819  0.2340  0.0300
18797TIP3    H177806   4.182   2.858  12.368  0.5101  3.5930 -0.7185
18797TIP3    H277807   4.249   2.890  12.236 -0.9280  0.5170 -2.3068
18798TIP3   OH277808   2.867   0.064   5.775  0.3327  0.5935 -0.1621
18798TIP3    H177809   2.837   0.135   5.831 -0.7146 -0.1791  0.3070
18798TIP3    H277810   2.916   0.107   5.705  1.2966  1.6156  1.0955
18799TIP3   OH277811   2.206   5.191  17.009 -0.6041  0.1922 -0.2414
18799TIP3    H177812   2.294   5.196  16.971 -0.0786 -1.1082  0.7165
18799TIP3    H277813   2.152   5.244  16.951  0.1177 -1.7040 -2.8617
18800TIP3   OH277814   3.808   0.922  13.889 -0.4287  0.4636 -0.1342
18800TIP3    H177815   3.760   0.914  13.806 -2.5112 -1.7038  1.1427
18800TIP3    H277816   3.866   0.997  13.876  1.7940 -1.6351 -4.6820
18801TIP3   OH277817   5.014   0.152  15.298  0.2445  0.2941 -0.1963
18801TIP3    H177818   5.044   0.241  15.279 -0.4350  0.2012 -1.9198
18801TIP3    H277819   5.053   0.098  15.229 -2.0742 -0.1638 -1.2687
18802TIP3   OH277820   0.821   1.329  14.372 -0.0976 -0.0319  0.1609
18802TIP3    H177821   0.810   1.278  14.452  0.0732 -0.6846 -0.2187
18802TIP3    H277822   0.735   1.325  14.329  0.9475 -3.8370 -2.0563
18803TIP3   OH277823   5.267   5.897  14.173 -0.1472 -0.9100 -0.0054
18803TIP3    H177824   5.176   5.919  14.158  0.0499 -0.5972 -0.7624
18803TIP3    H277825   5.289   5.942  14.255  0.2258  1.7730 -1.4636
18804TIP3   OH277826   0.833   0.232   4.535  0.3016  0.3099  0.1559
18804TIP3    H177827   0.913   0.281   4.556  1.3184 -0.9740 -0.5181
18804TIP3    H277828   0.813   0.258   4.445  1.5428 -1.3096 -0.6513
18805TIP3   OH277829   4.967   2.834  11.151 -0.3627  0.0781  0.3212
18805TIP3    H177830   4.891   2.780  11.172 -0.4245  0.3809  0.8988
18805TIP3    H277831   5.042   2.785  11.184 -0.3254 -0.1156 -0.0481
18806TIP3   OH277832   5.557   6.355  12.312  0.5880  0.3770 -0.8072
18806TIP3    H177833   5.630   6.323  12.366 -0.2227  0.3397  0.2981
18806TIP3    H277834   5.487   6.373  12.375 -1.0740 -1.5035 -2.0021
18807TIP3   OH277835   1.877   3.912  14.250  0.4196  0.1695  0.1684
18807TIP3    H177836   1.962   3.879  14.220  0.6313  1.2974 -0.5477
18807TIP3    H277837   1.813   3.851  14.214  0.8413  0.1515 -0.5646
18808TIP3   OH277838   0.641   1.533   1.931 -0.8389  0.0893  0.6509
18808TIP3    H177839   0.557   1.495   1.904 -0.9969  0.2082  0.9794
18808TIP3    H277840   0.680   1.465   1.986 -1.1098  0.3856  1.2172
18809TIP3   OH277841   4.556   0.324   4.906  0.2036 -0.3742  0.3592
18809TIP3    H177842   4.562   0.237   4.865 -0.2313 -0.0853 -0.3467
18809TIP3    H277843   4.494   0.371   4.851  1.3189  0.7700  0.0468
18810TIP3   OH277844   6.423   1.616  14.942 -0.0985  0.1373  0.8595
18810TIP3    H177845   6.476   1.573  15.008  0.7449 -1.3365 -0.6937
18810TIP3    H277846   6.432   1.561  14.864 -2.7135  0.6501  0.0821
18811TIP3   OH277847   5.832   5.771   2.294  0.2009  0.2140  0.0235
18811TIP3    H177848   5.888   5.700   2.324 -0.8671 -1.0778 -0.9474
18811TIP3    H277849   5.819   5.754   2.200 -0.0227  1.7325 -0.2502
18812TIP3   OH277850   5.760   1.730   2.502 -0.2370 -0.3600  0.2820
18812TIP3    H177851   5.790   1.708   2.591 -0.0907  0.2928  0.4043
18812TIP3    H277852   5.680   1.781   2.516  0.1497  0.3158  0.0720
18813TIP3   OH277853   5.097   5.498   0.397 -0.5369  0.1902  0.9676
18813TIP3    H177854   5.159   5.453   0.454  0.8619 -0.9700 -1.3157
18813TIP3    H277855   5.035   5.430   0.372 -1.2017  0.7152  1.1710
18814TIP3   OH277856   4.422   5.347  13.640  0.0542  0.7377 -0.0198
18814TIP3    H177857   4.391   5.376  13.726  3.6703  2.9854  0.7401
18814TIP3    H277858   4.458   5.260  13.656  1.1323  1.3271  0.9261
18815TIP3   OH277859   0.222   1.983   2.718  0.0376  0.1898  0.1622
18815TIP3    H177860   0.203   1.890   2.704  0.9517  0.0140 -0.0196
18815TIP3    H277861   0.186   2.002   2.805 -0.0310 -0.3733  0.2613
18816TIP3   OH277862   3.670   1.940  12.248 -0.0093  0.2527 -0.3301
18816TIP3    H177863   3.692   1.956  12.340  0.1358  3.4001 -0.7987
18816TIP3    H277864   3.704   2.017  12.202 -2.2473 -0.0360 -2.6582
18817TIP3   OH277865   4.656   1.136  12.982  0.3105  0.0307 -0.3426
18817TIP3    H177866   4.585   1.199  12.979  0.0243 -0.1673  1.4618
18817TIP3    H277867   4.662   1.103  12.892 -2.8854 -1.0637 -0.2629
18818TIP3   OH277868   1.501   3.097  16.857 -0.1624  0.0146  0.0112
18818TIP3    H177869   1.431   3.162  16.853 -0.6010 -0.4583 -0.0680
18818TIP3    H277870   1.563   3.125  16.790  1.3406  2.2623  2.1527
18819TIP3   OH277871   4.941   5.272   0.317 -0.5586 -0.5961 -0.5858
18819TIP3    H177872   4.867   5.246   0.261 -0.2031 -1.1752 -0.8022
18819TIP3    H277873   5.016   5.224   0.280  0.0143  0.3294 -0.6484
18820TIP3   OH277874   3.548   0.800  16.045  0.3849 -0.1031 -0.2135
18820TIP3    H177875   3.470   0.839  16.005  1.5344  1.4642 -1.0644
18820TIP3    H277876   3.541   0.707  16.025  0.5363  0.4875 -3.5861
18821TIP3   OH277877   1.432   5.916  14.186  0.0250  0.2868  0.6116
18821TIP3    H177878   1.426   5.821  14.189 -1.1504  0.0897 -3.1778
18821TIP3    H277879   1.396   5.945  14.269 -1.5886 -2.5356  1.0231
18822TIP3   OH277880   4.203   1.187  15.128 -0.2476 -0.2549 -0.3266
18822TIP3    H177881   4.152   1.264  15.104 -1.7308 -1.2136 -0.4113
18822TIP3    H277882   4.283   1.222  15.166 -0.3936  1.3095 -1.3683
18823TIP3   OH277883   0.037   4.439   2.636 -0.1710 -0.0762  0.8698
18823TIP3    H177884  -0.011   4.520   2.655  1.8748  1.5033 -0.2945
18823TIP3    H277885   0.103   4.434   2.705 -0.8465 -1.3088  1.4633
18824TIP3   OH277886   4.991   6.115  16.976 -0.2252  0.0115  0.0804
18824TIP3    H177887   5.076   6.090  17.011 -0.4511 -0.6349  0.1829
18824TIP3    H277888   4.940   6.142  17.052  0.0616  0.9324 -0.0468
18825TIP3   OH277889   3.738   6.502  11.406 -0.6715 -0.2006  0.2701
18825TIP3    H177890   3.781   6.583  11.379  0.0845 -0.5563  0.3738
18825TIP3    H277891   3.801   6.459  11.464 -0.7536 -1.1944 -0.3398
18826TIP3   OH277892   5.610   6.295   2.754  0.5578 -0.1946 -0.0596
18826TIP3    H177893   5.521   6.330   2.745 -0.3748 -2.3435  0.3558
18826TIP3    H277894   5.636   6.317   2.844 -1.3152 -3.2219  1.3558
18827TIP3   OH277895   3.521   3.552   2.683 -0.1201 -0.4759 -0.4942
18827TIP3    H177896   3.563   3.473   2.649  1.1496  0.2055 -0.5597
18827TIP3    H277897   3.546   3.621   2.621 -0.0341  0.2538  0.3355
18828TIP3   OH277898   1.377   0.377   3.268  0.5717 -0.0528  0.1497
18828TIP3    H177899   1.322   0.441   3.313 -1.7776 -1.0350 -1.1698
18828TIP3    H277900   1.359   0.392   3.175  0.2650 -2.3199 -0.2155
18829TIP3   OH277901   5.354   4.672  11.310  0.2592  0.3621  0.0946
18829TIP3    H177902   5.307   4.743  11.267  0.4840  0.7210  0.4413
18829TIP3    H277903   5.445   4.683  11.283  0.3784  0.5069  0.5526
18830TIP3   OH277904   2.033   6.421  12.677  0.1960 -0.2193 -0.8547
18830TIP3    H177905   1.978   6.430  12.755 -0.1183 -1.5795 -0.8952
18830TIP3    H277906   1.971   6.402  12.606  0.3656  2.0795 -1.6975
18831TIP3   OH277907   4.726   5.374   2.760  0.5500  0.5727 -0.1422
18831TIP3    H177908   4.684   5.304   2.810 -2.1880  0.2279 -2.6110
18831TIP3    H277909   4.814   5.381   2.796 -0.2821 -1.5839  2.6477
18832TIP3   OH277910   0.850   3.661   4.610 -0.2391  0.3601 -0.2912
18832TIP3    H177911   0.774   3.609   4.583 -0.9654  1.3938 -0.3038
18832TIP3    H277912   0.902   3.602   4.665 -2.4963  0.4268  2.1034
18833TIP3   OH277913   5.733   4.306   2.707  0.5164 -0.4399 -0.4555
18833TIP3    H177914   5.662   4.370   2.712 -0.2130 -1.2829  0.3294
18833TIP3    H277915   5.710   4.250   2.633  1.6537  0.7345 -1.7722
18834TIP3   OH277916   3.911   4.083   6.226  0.2444  0.2910  0.3780
18834TIP3    H177917   3.922   4.058   6.318 -1.9750 -0.3842  0.5159
18834TIP3    H277918   3.852   4.158   6.228  0.1481  0.2514 -0.4802
18835TIP3   OH277919   6.439   1.297   3.989 -0.0435  0.5346 -0.3352
18835TIP3    H177920   6.349   1.270   3.971  0.0688  1.0782 -1.8247
18835TIP3    H277921   6.453   1.373   3.933  2.3814 -1.4302 -2.6441
18836TIP3   OH277922   3.496   1.221   5.670  0.2911 -0.8845  0.0546
18836TIP3    H177923   3.507   1.133   5.706  0.1210 -0.7876  0.3428
18836TIP3    H277924   3.555   1.276   5.722 -0.7068 -0.5597  0.8718
18837TIP3   OH277925   4.396   3.813  16.285 -0.4308 -0.3050 -0.1160
18837TIP3    H177926   4.408   3.720  16.264  0.1185  0.2480 -2.5253
18837TIP3    H277927   4.329   3.843  16.223  1.4588  1.5150 -1.3856
18838TIP3   OH277928   2.819   1.940  11.174  0.4217 -0.1716  0.1005
18838TIP3    H177929   2.897   1.995  11.184  0.6775 -0.6653  0.8869
18838TIP3    H277930   2.765   1.961  11.250 -0.4007  0.4336 -0.6215
18839TIP3   OH277931   4.958   1.366   3.515  0.1601 -0.8886  0.3712
18839TIP3    H177932   5.030   1.306   3.495  0.7193  0.2130 -1.1198
18839TIP3    H277933   4.944   1.356   3.609  1.9976 -1.4317  0.6260
18840TIP3   OH277934   1.218   4.213  13.728  0.1490  0.1039 -0.3495
18840TIP3    H177935   1.275   4.143  13.698  0.0205  0.6439 -1.9198
18840TIP3    H277936   1.142   4.168  13.766  0.2435 -0.6069 -1.0026
18841TIP3   OH277937   4.305   4.417  15.870 -0.5684 -0.1798 -0.6052
18841TIP3    H177938   4.250   4.456  15.938 -2.6537 -2.1802 -1.0259
18841TIP3    H277939   4.290   4.323  15.879  0.9032 -0.6275 -2.3669
18842TIP3   OH277940   6.420   3.216  12.592 -0.4584 -0.1358  0.6668
18842TIP3    H177941   6.420   3.185  12.682  1.2033 -0.5483  0.5680
18842TIP3    H277942   6.413   3.136  12.539 -0.4658  0.0202  0.4302
18843TIP3   OH277943   0.742   3.753  14.304 -0.0915 -0.3244  1.2015
18843TIP3    H177944   0.821   3.718  14.265 -0.6011  0.2157 -0.3764
18843TIP3    H277945   0.772   3.829  14.355  0.3051  0.6180 -0.3606
18844TIP3   OH277946   1.959   5.975   4.295  0.4192 -0.0958 -0.2404
18844TIP3    H177947   1.915   6.050   4.255  1.2026  1.2889  1.3397
18844TIP3    H277948   1.890   5.911   4.310 -1.3220  2.2228  2.7019
18845TIP3   OH277949   0.127   2.423  15.536  0.4837 -0.5465 -0.0187
18845TIP3    H177950   0.190   2.494  15.538 -1.5652  1.4608  3.1215
18845TIP3    H277951   0.157   2.361  15.602  0.9533 -1.3974 -1.0009
18846TIP3   OH277952   6.336   0.387   5.091 -0.7788 -0.6280  0.1976
18846TIP3    H177953   6.367   0.314   5.145 -1.7497 -1.1080  0.1359
18846TIP3    H277954   6.270   0.430   5.145 -0.7819 -0.2847 -0.0789
18847TIP3   OH277955   4.646   2.494   0.492 -0.3066  0.4743 -0.3850
18847TIP3    H177956   4.630   2.588   0.500  1.8044  0.7389  2.5656
18847TIP3    H277957   4.629   2.460   0.580  0.7494 -1.5683 -0.9136
18848TIP3   OH277958   6.404   1.139  15.236 -0.4405  0.5042 -0.1410
18848TIP3    H177959   6.421   1.136  15.142 -1.4414  2.2552 -0.4267
18848TIP3    H277960   6.470   1.082  15.274  0.0689 -0.1495 -1.8917
18849TIP3   OH277961   1.059   5.010   2.968  0.1834 -0.3638 -0.5538
18849TIP3    H177962   1.101   4.928   2.994  2.6569  0.6088 -1.1938
18849TIP3    H277963   1.058   5.009   2.873  0.9719  0.6537 -0.5977
18850TIP3   OH277964   0.853   1.595   0.621 -0.1971 -0.5273 -0.4443
18850TIP3    H177965   0.915   1.611   0.692  1.8127 -2.4265 -1.6435
18850TIP3    H277966   0.832   1.683   0.588  1.1262  0.2275  0.5950
18851TIP3   OH277967   2.738   5.081  14.561  0.1222  0.5180  0.4948
18851TIP3    H177968   2.771   5.036  14.483  1.9444  0.8246  1.0343
18851TIP3    H277969   2.670   5.023  14.595  0.6424 -0.5679 -0.2475
18852TIP3   OH277970   0.760   1.243  12.084  0.1660 -0.0090 -0.5627
18852TIP3    H177971   0.849   1.261  12.116 -0.0311  0.1998 -0.1249
18852TIP3    H277972   0.756   1.286  11.999 -0.3983  2.3637  0.5769
18853TIP3   OH277973   1.058   5.119   0.358  0.3776  0.4716 -0.1065
18853TIP3    H177974   1.025   5.206   0.381 -0.6510 -0.1641  0.9166
18853TIP3    H277975   1.011   5.096   0.278  1.1919  1.1387 -0.7964
18854TIP3   OH277976   1.285   3.656  12.446  0.2884  0.0433 -0.3770
18854TIP3    H177977   1.301   3.736  12.395 -0.4562  1.7057  1.8186
18854TIP3    H277978   1.198   3.668  12.483 -0.9132 -2.9844 -1.9121
18855TIP3   OH277979   1.699   2.989  14.374 -0.3517  0.5316 -0.0686
18855TIP3    H177980   1.606   3.013  14.382 -0.6353 -0.9608  2.2883
18855TIP3    H277981   1.742   3.037  14.445  0.7395  1.2706 -1.1904
18856TIP3   OH277982   3.041   1.156  12.798 -0.3808  0.5045  0.1451
18856TIP3    H177983   3.113   1.211  12.830  0.8160 -1.6573  1.4148
18856TIP3    H277984   2.962   1.203  12.826  0.5307  2.1938  0.0451
18857TIP3   OH277985   6.528   0.203   2.917 -0.5339  0.2425 -0.2344
18857TIP3    H177986   6.459   0.206   2.850 -0.8166  1.1738  0.0832
18857TIP3    H277987   6.563   0.114   2.911 -1.5644 -0.1561 -0.6044
18858TIP3   OH277988   4.336   1.066   4.305  0.2182 -0.5687 -0.1149
18858TIP3    H177989   4.342   1.129   4.377 -0.2038 -2.2271  1.4507
18858TIP3    H277990   4.285   1.110   4.238 -0.2400  0.6868  1.0222
18859TIP3   OH277991   0.516   2.995  12.449  0.6110 -0.1126  1.2817
18859TIP3    H177992   0.541   2.902  12.447 -1.4371 -0.7136 -0.0815
18859TIP3    H277993   0.493   3.012  12.540 -2.4294 -2.0244  1.0023
18860TIP3   OH277994   2.384   1.631   5.973 -0.4954 -0.3359  0.3782
18860TIP3    H177995   2.362   1.669   5.887  0.2935  1.2339  0.8359
18860TIP3    H277996   2.337   1.547   5.974 -1.0567 -0.0944 -1.3157
18861TIP3   OH277997   0.065   0.549  12.582 -0.0478  0.0776  0.1040
18861TIP3    H177998   0.117   0.625  12.555  0.6646 -0.4561 -0.0583
18861TIP3    H277999   0.117   0.508  12.652 -0.4341 -0.2474  0.2064
18862TIP3   OH278000   3.850   0.836   3.076  0.5282  0.1301  0.0237
18862TIP3    H178001   3.859   0.819   2.982 -1.5192 -0.2369 -0.1604
18862TIP3    H278002   3.881   0.926   3.087  0.2660  0.3860 -1.1146
18863TIP3   OH278003   5.581   4.560  14.628  0.1065  0.1266  0.2439
18863TIP3    H178004   5.501   4.566  14.575 -1.7667 -1.2854  2.6738
18863TIP3    H278005   5.640   4.504  14.577 -1.3507 -0.6757 -0.6480
18864TIP3   OH278006   3.407   0.110  14.895  0.1907 -0.0860 -0.3068
18864TIP3    H178007   3.320   0.133  14.861 -0.3331  1.4553  1.8645
18864TIP3    H278008   3.398   0.019  14.922 -1.2716  0.4552  1.2313
18865TIP3   OH278009   2.546   5.147  17.073  0.2616 -0.1598  0.2566
18865TIP3    H178010   2.528   5.192  16.990  0.2498 -2.1171 -0.8570
18865TIP3    H278011   2.635   5.114  17.064  0.7670  0.7681  1.6058
18866TIP3   OH278012   1.015   3.524   5.263 -0.2345 -0.2406  0.1752
18866TIP3    H178013   0.952   3.591   5.236  0.4806  0.1744 -0.4730
18866TIP3    H278014   1.080   3.571   5.315  1.3260 -0.0186 -1.8460
18867TIP3   OH278015   2.656   5.943  11.968  0.5295  0.0546 -0.3298
18867TIP3    H178016   2.625   5.984  11.887  3.5358  3.2765 -0.0746
18867TIP3    H278017   2.594   5.973  12.035 -0.0382  0.1817 -0.8952
18868TIP3   OH278018   5.848   6.711  11.882  0.2973 -0.1662 -0.4486
18868TIP3    H178019   5.772   6.737  11.934 -0.7546 -0.5350 -1.7373
18868TIP3    H278020   5.872   6.625  11.918  1.7884  1.0558  1.6901
18869TIP3   OH278021   2.821   5.479   5.869 -0.6273  0.2465 -0.4575
18869TIP3    H178022   2.870   5.427   5.806  0.2649  1.4391 -0.7914
18869TIP3    H278023   2.739   5.500   5.824  0.2657  1.6354 -1.5389
18870TIP3   OH278024   4.787   6.140  15.042  0.1707 -0.4782 -0.2220
18870TIP3    H178025   4.819   6.158  15.130  1.2605 -0.7153 -0.5430
18870TIP3    H278026   4.771   6.227  15.004  2.0923 -0.2341 -0.5989
18871TIP3   OH278027   6.202   2.350   5.944  0.0177 -0.5007  0.3668
18871TIP3    H178028   6.236   2.351   6.034  1.8783  0.5155 -0.2687
18871TIP3    H278029   6.175   2.441   5.928 -1.5335 -0.9493  0.2925
18872TIP3   OH278030   0.502   2.325  11.176 -0.0309  0.3415 -0.5946
18872TIP3    H178031   0.491   2.279  11.093  2.7897  1.0470 -1.4861
18872TIP3    H278032   0.537   2.259  11.236 -0.4805  0.2268 -0.4564
18873TIP3   OH278033   6.311   3.836  16.039 -0.1503 -0.3438 -0.0842
18873TIP3    H178034   6.392   3.885  16.050 -0.5683  0.6451 -1.1121
18873TIP3    H278035   6.320   3.794  15.953 -0.8200  0.0020 -0.3360
18874TIP3   OH278036   5.041   3.376   1.953 -0.3235 -0.8096 -0.0086
18874TIP3    H178037   4.996   3.320   1.889  0.4412 -1.1425 -0.2639
18874TIP3    H278038   5.133   3.375   1.925 -0.3025  0.6566 -0.0844
18875TIP3   OH278039   2.854   5.018   6.405  0.4442  0.0135 -0.3116
18875TIP3    H178040   2.908   4.946   6.373  1.3403  0.4787  0.1291
18875TIP3    H278041   2.866   5.088   6.341 -0.3928 -0.1941 -0.7168
18876TIP3   OH278042   4.948   2.657   3.136  0.2727  0.1564  0.1171
18876TIP3    H178043   4.903   2.587   3.089  2.3257 -0.5766 -0.9174
18876TIP3    H278044   4.989   2.613   3.211 -0.9658  0.8673  1.2457
18877TIP3   OH278045   5.009   4.052  12.885 -0.5537 -0.0693 -0.2648
18877TIP3    H178046   4.962   4.083  12.963  0.5651 -0.6096  0.6673
18877TIP3    H278047   5.063   4.127  12.860 -0.0647 -0.2599  0.1897
18878TIP3   OH278048   3.762   2.763   0.682 -0.3361  0.2063 -0.4825
18878TIP3    H178049   3.830   2.764   0.749 -0.7257 -0.5666 -0.0648
18878TIP3    H278050   3.776   2.843   0.632  1.1185 -0.1177 -0.6402
18879TIP3   OH278051   5.919   2.902  13.484  0.3176  0.0888 -0.6309
18879TIP3    H178052   5.854   2.971  13.469 -1.3089 -1.3685 -0.6167
18879TIP3    H278053   5.869   2.830  13.521  2.1554 -0.7407  0.3688
18880TIP3   OH278054   2.149   6.687   6.292  0.6202 -0.1232  0.7407
18880TIP3    H178055   2.054   6.698   6.292  0.4717 -1.2551  1.9712
18880TIP3    H278056   2.170   6.652   6.205  0.0079  0.6658  0.2566
18881TIP3   OH278057   5.514   4.199   4.065  0.0707  0.5377 -0.4634
18881TIP3    H178058   5.606   4.224   4.078 -0.1437  1.6530 -0.9074
18881TIP3    H278059   5.487   4.160   4.148  0.8235  0.6060 -0.1790
18882TIP3   OH278060   1.325   6.301   5.991  0.0058 -0.4423 -0.3135
18882TIP3    H178061   1.252   6.261   5.944 -2.1796  0.4870  2.0604
18882TIP3    H278062   1.288   6.382   6.026  2.7493  1.0028 -0.5158
18883TIP3   OH278063   1.533   0.058  12.100  0.0834 -0.3747 -0.3492
18883TIP3    H178064   1.439   0.076  12.098 -0.0660 -1.1261 -2.0512
18883TIP3    H278065   1.558   0.054  12.008  1.9274  0.4429  0.0624
18884TIP3   OH278066   1.349   2.764  12.200 -0.3831 -0.3917 -0.4136
18884TIP3    H178067   1.273   2.751  12.142 -0.5867 -1.7398  0.1089
18884TIP3    H278068   1.316   2.741  12.287 -0.0246  1.4406  0.2324
18885TIP3   OH278069   5.460   6.467  16.276  0.6522 -0.6667 -0.3571
18885TIP3    H178070   5.439   6.537  16.213  0.0717 -0.6263 -0.1234
18885TIP3    H278071   5.471   6.389  16.222 -1.7403 -1.0606 -0.3833
18886TIP3   OH278072   2.155   5.436   0.036  0.2600  0.1776  0.6264
18886TIP3    H178073   2.099   5.360   0.020  1.1157  0.0955 -2.4718
18886TIP3    H278074   2.094   5.506   0.059 -0.6110 -1.1403  2.5833
18887TIP3   OH278075   2.942   1.387   4.221  0.2680  0.4458  0.1116
18887TIP3    H178076   2.877   1.421   4.283 -0.3386 -0.0323 -0.2470
18887TIP3    H278077   2.920   1.429   4.138 -2.6741 -3.1566 -1.2201
18888TIP3   OH278078   3.610   3.907   4.710  0.1569  0.7492 -0.3297
18888TIP3    H178079   3.670   3.960   4.762 -0.0216  1.7209 -1.0823
18888TIP3    H278080   3.631   3.929   4.620 -0.7478  0.4428 -0.6241
18889TIP3   OH278081   3.865   4.197  11.750 -0.1803  0.3128  0.4583
18889TIP3    H178082   3.799   4.228  11.688  0.5172  0.6735 -0.1175
18889TIP3    H278083   3.944   4.248  11.729  0.5414 -0.7332  0.5339
18890TIP3   OH278084   0.054   1.300  12.631  0.1511  0.1338 -0.1875
18890TIP3    H178085   0.146   1.292  12.606  0.1042  1.8003 -1.0238
18890TIP3    H278086   0.012   1.222  12.594  1.2038 -0.6343  0.1937
18891TIP3   OH278087   1.435   1.789   3.441  0.4292  0.1239 -0.4208
18891TIP3    H178088   1.387   1.872   3.443  0.0876 -0.0092  2.7217
18891TIP3    H278089   1.523   1.812   3.470  1.0748 -0.2989 -1.9419
18892TIP3   OH278090   3.430   1.349   4.771  0.2376 -0.3446  0.5259
18892TIP3    H178091   3.432   1.308   4.685 -1.4502 -3.1885  1.7203
18892TIP3    H278092   3.522   1.369   4.790  0.9422 -1.9906 -0.8994
18893TIP3   OH278093   2.502   2.624  12.731 -0.0673  0.2167 -0.6284
18893TIP3    H178094   2.574   2.624  12.667 -0.1535  0.3699 -0.7272
18893TIP3    H278095   2.543   2.596  12.813  0.7442  2.9317  0.0018
18894TIP3   OH278096   2.196   0.780   5.132  0.2836  0.0027  0.1270
18894TIP3    H178097   2.181   0.687   5.149  2.1222 -0.1292  1.2735
18894TIP3    H278098   2.221   0.784   5.040 -0.8040 -0.4816 -0.2037
18895TIP3   OH278099   1.799   1.162  15.203  0.3777 -0.1776 -0.2380
18895TIP3    H178100   1.890   1.144  15.179  0.1397 -1.3949 -0.2908
18895TIP3    H278101   1.802   1.176  15.298  0.7394  0.6862 -0.3662
18896TIP3   OH278102   6.368   4.435   0.405 -0.6015  0.5017  0.0767
18896TIP3    H178103   6.381   4.508   0.465 -2.0051 -1.5196  3.1634
18896TIP3    H278104   6.272   4.426   0.400 -0.5184 -2.0601  1.2654
18897TIP3   OH278105   6.651   2.277   2.099 -0.2017 -0.0008 -0.1832
18897TIP3    H178106   6.723   2.219   2.075 -0.0323  0.6629 -1.3180
18897TIP3    H278107   6.677   2.363   2.067 -0.6831  0.6193  1.0259
18898TIP3   OH278108   0.851   4.528   3.553 -0.2523 -0.5751  0.1272
18898TIP3    H178109   0.923   4.584   3.582 -0.0751 -0.5279 -0.3955
18898TIP3    H278110   0.772   4.578   3.572 -0.0800  0.0482 -0.7417
18899TIP3   OH278111   5.979   5.521  15.954  0.2927  0.4567 -0.3905
18899TIP3    H178112   5.953   5.500  15.865  0.1807 -0.3638 -0.1731
18899TIP3    H278113   6.048   5.587  15.945 -1.0402  1.8071 -1.0133
18900TIP3   OH278114   2.312   2.683  12.055  0.3194 -0.1915  0.4272
18900TIP3    H178115   2.262   2.765  12.062 -1.6421 -1.3224  0.2524
18900TIP3    H278116   2.354   2.687  11.969 -0.1813  0.3978  0.2063
18901TIP3   OH278117   4.911   1.626   1.181  0.0302 -0.0460  0.0372
18901TIP3    H178118   4.876   1.544   1.217 -1.1189  1.0215  1.4862
18901TIP3    H278119   4.928   1.680   1.258  0.0319  1.3711 -0.9225
18902TIP3   OH278120   0.745   2.224  14.592  0.3110  0.3989 -0.2400
18902TIP3    H178121   0.778   2.237  14.681  1.3002  0.6921 -0.6323
18902TIP3    H278122   0.736   2.130  14.582 -1.8703  0.4438  0.8812
18903TIP3   OH278123   2.358   2.571   6.037  1.1526 -0.1236 -0.4757
18903TIP3    H178124   2.309   2.489   6.035 -0.4335  0.7744 -2.4719
18903TIP3    H278125   2.436   2.555   5.986  1.5686 -0.7602  0.3337
18904TIP3   OH278126   3.966   1.124  16.406 -0.6072  0.0110  0.3882
18904TIP3    H178127   3.968   1.086  16.318 -0.5855  0.9941 -0.0566
18904TIP3    H278128   3.988   1.216  16.392  0.0141  0.0466  1.5076
18905TIP3   OH278129   5.606   2.435   3.994 -0.0590 -0.3288  0.4869
18905TIP3    H178130   5.570   2.349   4.016 -1.3783  0.3030  0.9142
18905TIP3    H278131   5.557   2.496   4.049 -0.5153  0.8877 -1.1904
18906TIP3   OH278132   2.723   2.991   1.980 -0.0483  0.6067  0.0289
18906TIP3    H178133   2.701   2.926   2.047 -0.0565  0.7131  0.1312
18906TIP3    H278134   2.749   2.940   1.904  1.5028  0.4824  0.6149
18907TIP3   OH278135   3.536   5.627  16.990  0.2319 -0.2639  0.2389
18907TIP3    H178136   3.576   5.707  16.955 -0.2327 -0.2842 -0.3686
18907TIP3    H278137   3.595   5.557  16.964 -0.2415 -0.3085 -0.7615
18908TIP3   OH278138   1.629   1.992  13.231  0.9530 -0.1203  0.3190
18908TIP3    H178139   1.546   1.959  13.196  0.9428  0.5836 -0.3366
18908TIP3    H278140   1.605   2.029  13.316 -0.1094  3.1506 -1.2362
18909TIP3   OH278141   1.935   4.002   3.346  0.9111 -0.8230  0.1374
18909TIP3    H178142   1.890   3.950   3.280  0.9001  0.6040 -1.0340
18909TIP3    H278143   2.020   4.023   3.306  1.2157 -0.5681  0.8962
18910TIP3   OH278144   5.028   5.313  10.947 -0.2008  0.6377 -0.6301
18910TIP3    H178145   4.994   5.391  10.902  2.2361  0.9327 -2.2242
18910TIP3    H278146   5.011   5.241  10.886 -0.4509  0.3275 -0.1917
18911TIP3   OH278147   5.703   2.721  17.187  0.1358 -1.0617  0.1159
18911TIP3    H178148   5.726   2.770  17.108  1.0539 -4.1249 -1.7238
18911TIP3    H278149   5.749   2.765  17.258  1.7972  0.0667 -1.5601
18912TIP3   OH278150   2.472   1.332   1.146  0.9036  0.0667 -0.4865
18912TIP3    H178151   2.380   1.359   1.144  0.9817  0.2823 -1.9216
18912TIP3    H278152   2.496   1.338   1.239 -0.3301  0.6450 -0.1758
18913TIP3   OH278153   3.093   5.305  11.511  0.3454  0.3780 -0.0916
18913TIP3    H178154   3.074   5.294  11.605  1.5851  0.7450  0.2216
18913TIP3    H278155   3.130   5.221  11.485  0.2239  0.3567 -0.1939
18914TIP3   OH278156   2.383   4.534   5.437  0.0745  0.0314 -0.3251
18914TIP3    H178157   2.394   4.625   5.408 -0.8062  0.3574  0.3116
18914TIP3    H278158   2.366   4.541   5.530  2.2354 -0.9566  0.2108
18915TIP3   OH278159   6.292   4.429   4.097 -0.4130 -0.4482 -0.4596
18915TIP3    H178160   6.279   4.524   4.099 -0.2899 -0.4411 -0.0144
18915TIP3    H278161   6.231   4.395   4.163 -0.7233 -0.7108 -0.8771
18916TIP3   OH278162   6.035   4.554  16.116 -0.4723  0.3112  0.2882
18916TIP3    H178163   6.015   4.465  16.145 -0.1801  0.2684  0.3588
18916TIP3    H278164   5.989   4.611  16.178 -1.7880  0.2092 -0.5475
18917TIP3   OH278165   4.012   2.454  11.091 -0.0271  0.7556  0.5308
18917TIP3    H178166   3.959   2.467  11.012 -0.4489 -0.1913  0.6383
18917TIP3    H278167   3.961   2.391  11.143 -0.9148  3.0416  2.6315
18918TIP3   OH278168   1.170   0.125   1.593 -0.1153 -0.5184 -0.0348
18918TIP3    H178169   1.256   0.167   1.592 -0.9943  1.7629  3.0372
18918TIP3    H278170   1.189   0.032   1.584  2.5342 -0.0054 -0.7239
18919TIP3   OH278171   6.495   1.686   2.997  0.1461 -0.2988 -0.0115
18919TIP3    H178172   6.489   1.626   3.071  0.4892 -0.5167 -0.1531
18919TIP3    H278173   6.424   1.660   2.938 -0.1915 -0.0560  0.2873
18920TIP3   OH278174   0.098   5.606  13.522 -0.0023 -0.1554 -0.0462
18920TIP3    H178175   0.082   5.675  13.586 -0.7342  1.6474 -2.0346
18920TIP3    H278176   0.088   5.525  13.571  0.0153  1.1177  2.2127
18921TIP3   OH278177   3.033   6.432  17.136  0.4241  0.1594  0.2902
18921TIP3    H178178   3.116   6.464  17.171  0.0066  1.3385  0.2609
18921TIP3    H278179   3.006   6.500  17.074 -0.9420  0.1703  0.8787
18922TIP3   OH278180   6.378   2.634   2.644  0.5051 -0.1719  0.2688
18922TIP3    H178181   6.330   2.553   2.626  1.0352 -0.7008  1.1246
18922TIP3    H278182   6.352   2.658   2.733 -1.3164  1.8355 -0.7054
18923TIP3   OH278183   4.030   4.095  13.895 -0.0497  0.0704 -0.4935
18923TIP3    H178184   4.092   4.025  13.873 -0.2890  0.2825 -1.9138
18923TIP3    H278185   4.084   4.174  13.899 -0.2337  0.3016 -2.0032
18924TIP3   OH278186   4.046   0.622  15.292 -0.0129  0.6224  0.0055
18924TIP3    H178187   4.051   0.572  15.211  2.7343 -1.0278  1.0639
18924TIP3    H278188   4.021   0.557  15.359  4.0752  0.2961  1.4862
18925TIP3   OH278189   6.095   0.275  14.190  0.7060  0.1577  0.2270
18925TIP3    H178190   6.134   0.235  14.268  0.2919 -0.7349 -0.0136
18925TIP3    H278191   6.012   0.230  14.178 -0.1638  1.6397  0.3932
18926TIP3   OH278192   6.206   6.516  13.676  0.1565  0.1157  0.4275
18926TIP3    H178193   6.176   6.604  13.701 -1.0690 -0.4208  0.8999
18926TIP3    H278194   6.265   6.490  13.746 -1.4306 -0.4297  1.6090
18927TIP3   OH278195   0.348   4.916  11.876  0.0854  0.3730 -0.1218
18927TIP3    H178196   0.381   4.934  11.788 -0.9614  0.7368 -0.4569
18927TIP3    H278197   0.419   4.942  11.935  1.0178 -0.4196 -0.8783
18928TIP3   OH278198   0.885   5.037  12.148  0.2450 -0.7314  0.0673
18928TIP3    H178199   0.891   4.951  12.189 -0.0510 -0.4046  0.8251
18928TIP3    H278200   0.846   5.093  12.216  0.5050  0.0137 -0.3838
18929TIP3   OH278201   6.632   4.326   2.455 -0.3361 -0.4556 -0.0746
18929TIP3    H178202   6.704   4.370   2.501 -1.5127  0.9744  0.4883
18929TIP3    H278203   6.568   4.396   2.440 -0.3825 -1.0292 -3.1889
18930TIP3   OH278204   4.706   2.274   2.024  0.2638 -0.1361 -0.0358
18930TIP3    H178205   4.617   2.284   1.991 -0.5063 -4.2623  0.2791
18930TIP3    H278206   4.757   2.252   1.946  0.2372 -1.2787  0.2574
18931TIP3   OH278207   3.675   6.314  10.846  0.1329 -0.7595  0.2357
18931TIP3    H178208   3.580   6.302  10.850 -0.0287  0.7683  2.9829
18931TIP3    H278209   3.686   6.404  10.815  0.8398 -1.6673 -2.4280
18932TIP3   OH278210   3.951   5.450  16.003  0.1257  0.6667 -0.4759
18932TIP3    H178211   4.018   5.393  16.040 -1.2791 -2.8786 -2.8389
18932TIP3    H278212   3.997   5.500  15.935  0.5520 -1.7335 -2.0780
18933TIP3   OH278213   4.600   0.311  11.653 -0.0333  0.0170  0.0054
18933TIP3    H178214   4.556   0.259  11.586 -0.3592 -0.6657  0.7326
18933TIP3    H278215   4.538   0.311  11.727  1.2342 -1.0999  1.1196
18934TIP3   OH278216   1.800   2.867  15.493 -0.1955 -0.2937 -0.3384
18934TIP3    H178217   1.723   2.878  15.438 -0.6015 -0.3788  0.2029
18934TIP3    H278218   1.832   2.779  15.474 -1.3711 -1.0131  0.8316
18935TIP3   OH278219   6.002   1.383  14.592 -0.5657  0.2618  0.1043
18935TIP3    H178220   6.046   1.394  14.507 -0.8605  0.4280 -0.0256
18935TIP3    H278221   6.074   1.372  14.654 -0.3547 -0.1684 -0.2099
18936TIP3   OH278222   5.394   5.522  12.153  0.8339  0.3213  0.2868
18936TIP3    H178223   5.382   5.486  12.065  0.6195  0.0620  0.4196
18936TIP3    H278224   5.470   5.579  12.146  2.4122 -1.6668  0.5359
18937TIP3   OH278225   0.942   4.321   5.878  0.8694 -0.2897  0.7707
18937TIP3    H178226   0.926   4.415   5.885 -1.0191 -0.4407 -0.7835
18937TIP3    H278227   0.942   4.304   5.784  2.5230 -1.6658  0.9704
18938TIP3   OH278228   6.204   2.643   3.951  0.3627 -0.5298  0.4825
18938TIP3    H178229   6.277   2.581   3.950  1.1390  0.3712  0.2932
18938TIP3    H278230   6.148   2.616   3.878  1.2233 -0.3762 -0.2360
18939TIP3   OH278231   5.117   5.184  14.574  1.1208  0.1714 -0.1693
18939TIP3    H178232   5.205   5.147  14.584  0.6026 -1.1488 -0.2277
18939TIP3    H278233   5.102   5.188  14.480  1.5096  1.4225 -0.1970
18940TIP3   OH278234   6.739   0.752  15.268 -0.4117 -0.3016 -0.0614
18940TIP3    H178235   6.834   0.762  15.269 -0.5318  1.2963  2.2430
18940TIP3    H278236   6.720   0.683  15.331 -0.8336  0.6688  0.9153
18941TIP3   OH278237   3.259   6.736   1.399  0.3057 -0.3826 -0.4683
18941TIP3    H178238   3.283   6.685   1.476  2.1094  2.0625  0.7316
18941TIP3    H278239   3.261   6.674   1.326 -1.7952 -2.8609  1.4117
18942TIP3   OH278240   5.510   5.407  14.422  0.0560 -0.1031  0.3600
18942TIP3    H178241   5.484   5.366  14.340  0.0485 -0.4060  0.5140
18942TIP3    H278242   5.429   5.411  14.474  0.2865 -0.9444  0.7962
18943TIP3   OH278243   6.668   2.676  10.954 -0.5311 -0.4478  0.4746
18943TIP3    H178244   6.686   2.646  10.865 -0.2216  0.5418  0.1877
18943TIP3    H278245   6.714   2.760  10.961 -1.2826 -0.0817  1.2730
18944TIP3   OH278246   0.474   3.144   3.650  0.1976  0.1673  0.0313
18944TIP3    H178247   0.525   3.214   3.609  0.7405  0.8247  1.7304
18944TIP3    H278248   0.493   3.152   3.743 -1.7116 -0.6502  0.5415
18945TIP3   OH278249   6.692   2.027   5.287 -0.0380 -0.2073 -0.4358
18945TIP3    H178250   6.771   1.973   5.292  1.2803  1.7256  1.7271
18945TIP3    H278251   6.649   2.014   5.371  1.2359  3.2352  0.9112
18946TIP3   OH278252   4.701   5.553   2.026 -0.3949 -0.1126  0.0761
18946TIP3    H178253   4.637   5.496   2.070  1.1783 -1.0725  1.2038
18946TIP3    H278254   4.774   5.495   2.004 -0.0496  0.8759 -1.5629
18947TIP3   OH278255   1.848   3.301   4.440  0.5732  0.1270 -0.0442
18947TIP3    H178256   1.785   3.239   4.477 -0.2408  0.2564 -1.1410
18947TIP3    H278257   1.860   3.367   4.509  0.9609 -0.9048  0.8868
18948TIP3   OH278258   3.306   0.810  13.980 -0.9708  0.0212 -0.1140
18948TIP3    H178259   3.260   0.825  14.062  0.6242 -0.0886  0.8432
18948TIP3    H278260   3.306   0.715  13.969 -1.5735  0.0584 -0.4944
18949TIP3   OH278261   1.203   1.818   4.862  0.1677 -0.1537 -0.2243
18949TIP3    H178262   1.216   1.725   4.842 -1.2914 -0.2384 -0.9273
18949TIP3    H278263   1.128   1.819   4.921  0.2757  0.5778 -0.0975
18950TIP3   OH278264   0.407   4.316  14.407 -0.4601 -0.0679  0.5382
18950TIP3    H178265   0.352   4.277  14.476  0.7016 -1.6810  0.5952
18950TIP3    H278266   0.486   4.262  14.406  0.4477  1.2332 -0.6369
18951TIP3   OH278267   3.988   4.390  16.316  0.0021 -0.0044 -0.2711
18951TIP3    H178268   3.956   4.384  16.225 -0.5498  1.2757 -0.1861
18951TIP3    H278269   3.915   4.430  16.364  0.6112  0.1079  0.5745
18952TIP3   OH278270   4.548   2.603  16.189  0.3812 -0.1284  1.2118
18952TIP3    H178271   4.571   2.511  16.201  0.1064 -0.5138 -0.9164
18952TIP3    H278272   4.455   2.607  16.213 -0.0433 -0.7715 -0.2540
18953TIP3   OH278273   6.053   4.250   1.938  0.7130  0.1584  0.1829
18953TIP3    H178274   6.104   4.186   1.888  1.9108  1.8511 -0.8608
18953TIP3    H278275   5.976   4.266   1.884 -1.1123 -2.4493  1.7909
18954TIP3   OH278276   6.046   3.411  11.158 -0.4999  0.1364  0.2699
18954TIP3    H178277   6.001   3.411  11.073 -1.8632 -1.7556  0.9525
18954TIP3    H278278   5.993   3.468  11.213 -0.4478  0.1654  0.2903
18955TIP3   OH278279   5.035   6.636  14.756  0.3883  0.0481  0.1355
18955TIP3    H178280   5.076   6.653  14.671 -1.4540 -2.1765 -1.3269
18955TIP3    H278281   5.090   6.567  14.794  1.9998  1.9481  1.4819
18956TIP3   OH278282   5.395   6.452  14.682 -0.0619  0.0158  0.2849
18956TIP3    H178283   5.327   6.425  14.621  0.4093 -0.9315  0.1670
18956TIP3    H278284   5.377   6.402  14.762 -0.4003  0.8992  0.7728
18957TIP3   OH278285   0.167   2.718  17.034 -0.3737 -0.3538 -0.0955
18957TIP3    H178286   0.151   2.695  17.125  2.2344 -0.6721  0.3400
18957TIP3    H278287   0.109   2.661  16.984 -0.1469 -1.8298  1.2712
18958TIP3   OH278288   2.493   3.083  15.324 -0.2151  0.2153 -0.8676
18958TIP3    H178289   2.505   3.013  15.388  1.3644  0.0566 -1.2963
18958TIP3    H278290   2.494   3.038  15.239  2.1211  0.8165 -1.2300
18959TIP3   OH278291   4.481   4.467  14.794 -0.0106  0.0727  0.4036
18959TIP3    H178292   4.428   4.450  14.872 -2.0471  1.1385 -0.6627
18959TIP3    H278293   4.493   4.562  14.793 -1.3577  0.2652 -1.3513
18960TIP3   OH278294   6.666   4.061   4.994 -0.3475  0.5573  0.3045
18960TIP3    H178295   6.645   4.151   4.968 -2.3266  0.4643  1.3921
18960TIP3    H278296   6.596   4.037   5.055  1.8730 -0.6162  2.5649
18961TIP3   OH278297   5.522   2.340  14.881 -0.7967 -0.0058 -0.2609
18961TIP3    H178298   5.482   2.423  14.908  0.4565  0.0805  1.5476
18961TIP3    H278299   5.493   2.328  14.791 -2.1413  1.6916 -0.1242
18962TIP3   OH278300   1.728   3.890  15.422 -0.1786  0.1182  0.1141
18962TIP3    H178301   1.717   3.918  15.331  0.1525 -0.1879 -0.0223
18962TIP3    H278302   1.817   3.916  15.445  0.7746 -2.2690 -0.5621
18963TIP3   OH278303   0.096   2.670   2.574  0.2508  0.3671 -0.0269
18963TIP3    H178304   0.046   2.701   2.498  0.7799  0.9911 -0.1253
18963TIP3    H278305   0.124   2.750   2.619  2.2288  0.0876 -0.6674
18964TIP3   OH278306   0.130   1.438   2.019 -0.8943 -0.3781 -0.0443
18964TIP3    H178307   0.087   1.445   2.104 -0.3515 -1.3228  0.3186
18964TIP3    H278308   0.087   1.364   1.976 -0.0269 -0.9668  0.0899
18965TIP3   OH278309   1.064   1.330  14.231 -0.0493 -0.1981  0.6361
18965TIP3    H178310   1.140   1.354  14.284  0.4580  1.3899 -0.7075
18965TIP3    H278311   0.989   1.341  14.289  0.6858 -1.5098  1.9064
18966TIP3   OH278312   1.977   6.599   5.306 -0.3206  0.1435 -0.2784
18966TIP3    H178313   1.965   6.507   5.329  1.5131  0.1602  0.9511
18966TIP3    H278314   2.044   6.597   5.237  0.8943  0.6042  0.8497
18967TIP3   OH278315   3.028   0.291  13.038  0.2645 -0.1577  0.3724
18967TIP3    H178316   3.032   0.378  13.077 -0.8701  0.0884 -0.0289
18967TIP3    H278317   3.022   0.231  13.113  1.0046  0.0975  0.6474
18968TIP3   OH278318   4.559   3.631  12.485  0.2713 -0.2477  0.2319
18968TIP3    H178319   4.555   3.564  12.554  1.0061 -0.1142  0.4115
18968TIP3    H278320   4.652   3.654  12.479  0.2777 -0.5106 -1.0549
18969TIP3   OH278321   4.165   6.301  14.199  0.0006  0.3819 -0.0932
18969TIP3    H178322   4.199   6.276  14.285  1.3278 -0.2861 -0.7756
18969TIP3    H278323   4.228   6.365  14.166  1.1661 -1.4607 -1.7207
18970TIP3   OH278324   1.685   3.314   2.402  0.8656  0.7643  0.4554
18970TIP3    H178325   1.727   3.393   2.368  1.2071  1.1471  1.7308
18970TIP3    H278326   1.604   3.346   2.443  0.3543  0.2845 -0.1610
18971TIP3   OH278327   4.705   6.083  15.955  0.3102 -0.5356 -0.1909
18971TIP3    H178328   4.645   6.008  15.955  0.4082 -0.6632 -1.7968
18971TIP3    H278329   4.650   6.158  15.933  0.1761 -0.0645  1.6180
18972TIP3   OH278330   6.168   4.301  10.064  0.3989  0.0629  1.3271
18972TIP3    H178331   6.081   4.269  10.040  0.9957  0.4993 -1.9201
18972TIP3    H278332   6.155   4.392  10.087 -0.0232  0.1081  0.9140
18973TIP3   OH278333   6.468   1.311  16.781 -0.1376  0.0206 -0.1789
18973TIP3    H178334   6.560   1.288  16.779 -0.4573 -1.2213 -1.8862
18973TIP3    H278335   6.432   1.279  16.699 -2.3175 -0.4573  0.8683
18974TIP3   OH278336   4.659   0.364   4.453 -0.1362 -0.2011  0.0952
18974TIP3    H178337   4.658   0.392   4.361  4.1896 -1.3441 -0.5696
18974TIP3    H278338   4.672   0.269   4.448 -2.3509 -0.6921  2.0400
18975TIP3   OH278339   1.779   2.413   0.630  0.1927  0.0694 -0.8223
18975TIP3    H178340   1.778   2.321   0.602  0.7984 -0.2644  0.1963
18975TIP3    H278341   1.835   2.456   0.566 -1.1568  0.0309 -2.1079
18976TIP3   OH278342   5.697   3.859   2.436 -0.0707  0.6913  0.1240
18976TIP3    H178343   5.655   3.848   2.352  0.2482  0.4443 -0.0051
18976TIP3    H278344   5.773   3.800   2.434  0.8034  1.7725 -0.0047
18977TIP3   OH278345   2.854   4.089  15.190 -0.1891  0.1159  0.3061
18977TIP3    H178346   2.896   4.028  15.129 -1.0079 -0.9749  0.7955
18977TIP3    H278347   2.917   4.098  15.261 -0.6336 -1.3367  0.9282
18978TIP3   OH278348   2.342   0.049  13.278  0.1823 -0.1197  0.0950
18978TIP3    H178349   2.317   0.016  13.191 -0.6553  0.0703  0.2621
18978TIP3    H278350   2.307  -0.016  13.339 -0.2900  0.3697  0.3541
18979TIP3   OH278351   4.900   3.399  16.915  0.3003  0.1012  0.3209
18979TIP3    H178352   4.885   3.307  16.893 -0.4410  0.7014 -2.0238
18979TIP3    H278353   4.855   3.412  16.998 -1.1874 -1.2325 -0.2142
18980TIP3   OH278354   6.120   6.120   6.256  0.4397 -0.2508  0.7036
18980TIP3    H178355   6.178   6.160   6.191  0.9447 -0.6529  0.8994
18980TIP3    H278356   6.068   6.057   6.206 -0.8514  1.0904  0.2567
18981TIP3   OH278357   2.586   0.706  15.362 -0.7119 -0.0983 -0.5737
18981TIP3    H178358   2.610   0.671  15.448 -2.8637  0.9803  0.5699
18981TIP3    H278359   2.669   0.732  15.322  0.5726 -2.7354  0.1639
18982TIP3   OH278360   3.921   5.861   2.810  0.2789 -0.6812 -0.1836
18982TIP3    H178361   3.826   5.862   2.819  0.2721  2.6133  0.6660
18982TIP3    H278362   3.954   5.852   2.899  0.6682  1.0709 -0.1192
18983TIP3   OH278363   2.480   6.139   3.296 -0.0897  0.3095 -0.2055
18983TIP3    H178364   2.397   6.094   3.311  0.9780 -2.3779 -1.7444
18983TIP3    H278365   2.466   6.190   3.216 -0.6987  1.1631  0.4297
18984TIP3   OH278366   6.038   0.845   1.800 -0.5530 -0.3802  0.1872
18984TIP3    H178367   5.951   0.804   1.804 -0.0275 -2.0538 -2.8491
18984TIP3    H278368   6.099   0.775   1.823  0.1166  0.0600 -0.2277
18985TIP3   OH278369   6.235   5.557  10.750 -0.3250  0.1946 -0.3508
18985TIP3    H178370   6.196   5.645  10.755  0.6333  0.6461 -0.5551
18985TIP3    H278371   6.172   5.500  10.794 -0.5007  1.1540  0.7009
18986TIP3   OH278372   2.619   5.446   4.857 -0.2036 -0.2158 -0.3872
18986TIP3    H178373   2.574   5.363   4.878  0.0795 -0.1199  0.6731
18986TIP3    H278374   2.548   5.505   4.832 -0.4187 -0.7476 -1.0670
18987TIP3   OH278375   4.267   6.515  11.033  0.4346 -0.2346  0.8302
18987TIP3    H178376   4.265   6.479  10.944  1.6398 -1.3774  1.2310
18987TIP3    H278377   4.348   6.565  11.037  1.1284 -1.3694  1.6828
18988TIP3   OH278378   4.005   2.722  14.413  0.2102 -0.2931  0.5235
18988TIP3    H178379   3.998   2.817  14.408 -1.5318 -0.3889  0.5718
18988TIP3    H278380   4.094   2.702  14.382  0.3481  1.2784 -0.1505
18989TIP3   OH278381   6.510   0.062  10.708  0.9279 -0.1837 -0.2116
18989TIP3    H178382   6.459   0.039  10.630  2.5009 -1.9972 -0.7857
18989TIP3    H278383   6.445   0.068  10.778 -0.9229  4.0156 -1.9475
18990TIP3   OH278384   0.865   5.395   1.039  0.3204  0.0298 -0.0141
18990TIP3    H178385   0.771   5.378   1.029 -0.1520  2.3742 -0.2583
18990TIP3    H278386   0.903   5.375   0.954  0.0085 -0.6294 -0.0062
18991TIP3   OH278387   5.656   4.150  15.386 -0.6052 -0.4624  0.2441
18991TIP3    H178388   5.626   4.075  15.335  0.4891 -0.3818 -0.5699
18991TIP3    H278389   5.576   4.191  15.420 -1.3198 -0.9157 -0.8513
18992TIP3   OH278390   2.676   6.074   1.360  0.2212  0.1796  0.1865
18992TIP3    H178391   2.612   6.130   1.316 -0.5126 -0.5519  0.2962
18992TIP3    H278392   2.623   6.009   1.407  1.0627 -0.8372 -0.2378
18993TIP3   OH278393   5.108   1.933  11.346 -0.2234 -0.3387  0.2347
18993TIP3    H178394   5.065   2.016  11.368  0.2055 -0.3639  1.2263
18993TIP3    H278395   5.139   1.899  11.430 -0.1737 -1.3901 -0.1932
18994TIP3   OH278396   4.710   2.124   5.285  0.3508  0.1770  0.0034
18994TIP3    H178397   4.778   2.135   5.219  1.1997  0.6938  0.9288
18994TIP3    H278398   4.701   2.211   5.325 -0.9864  0.1662 -0.2097
18995TIP3   OH278399   3.310   3.504   4.186  0.1098 -0.3382 -0.6243
18995TIP3    H178400   3.346   3.498   4.274  0.7645  1.1372 -0.7681
18995TIP3    H278401   3.269   3.418   4.171  1.3411 -1.1592  0.5059
18996TIP3   OH278402   2.059   1.631  11.397 -0.4747  0.1819  0.3009
18996TIP3    H178403   2.130   1.574  11.369 -1.2054  0.2931 -1.9487
18996TIP3    H278404   1.982   1.599  11.350 -1.4230  1.4829  0.9009
18997TIP3   OH278405   0.089   4.828   3.433  0.1628 -0.5767  0.0599
18997TIP3    H178406   0.063   4.851   3.523 -0.4227 -2.5299  0.4331
18997TIP3    H278407   0.014   4.854   3.379  0.5056  0.5793  0.0945
18998TIP3   OH278408   2.899   6.751   1.775 -0.2628 -0.2327  0.8974
18998TIP3    H178409   2.962   6.703   1.829 -0.8760  0.5756  2.4133
18998TIP3    H278410   2.824   6.693   1.768 -0.7794  0.2283  2.2455
18999TIP3   OH278411   1.361   2.492  16.314  0.3051  0.0030 -0.2307
18999TIP3    H178412   1.314   2.439  16.251  0.3624 -0.5392  0.1737
18999TIP3    H278413   1.347   2.582  16.286  1.4003 -0.2647 -1.7831
19000TIP3   OH278414   5.356   2.151  11.365  0.3063  0.1926  0.1381
19000TIP3    H178415   5.277   2.165  11.313 -0.5807 -2.6708  0.5270
19000TIP3    H278416   5.424   2.131  11.301  0.3581  1.1859 -0.1255
19001TIP3   OH278417   5.852   3.971  14.767  0.4253 -0.2620  0.3623
19001TIP3    H178418   5.899   4.016  14.696 -0.8277  0.7682  0.1496
19001TIP3    H278419   5.904   3.990  14.845  2.5046 -2.4280 -0.3855
19002TIP3   OH278420   4.767   0.130  15.159 -0.2946 -0.6037 -0.2388
19002TIP3    H178421   4.731   0.208  15.116 -1.5002 -0.7135  0.5156
19002TIP3    H278422   4.856   0.155  15.185 -0.2511  0.1099 -1.0336
19003TIP3   OH278423   2.780   5.045   3.856  0.3607  0.2122  0.2649
19003TIP3    H178424   2.727   5.116   3.821 -0.4240 -0.5996 -0.2504
19003TIP3    H278425   2.717   4.985   3.897  1.0346 -0.0245  0.9961
19004TIP3   OH278426   5.704   1.014   3.085  0.2578 -0.2795  0.1725
19004TIP3    H178427   5.722   0.953   3.014  0.4018  0.4737 -0.4529
19004TIP3    H278428   5.742   0.973   3.163  0.9478 -0.6663 -0.3571
19005TIP3   OH278429   1.303   4.451   4.079 -0.2326  0.2889  0.3708
19005TIP3    H178430   1.327   4.371   4.032 -0.3814 -0.0842  0.9269
19005TIP3    H278431   1.365   4.517   4.048  0.1755 -0.1522  0.2499
19006TIP3   OH278432   2.545   2.148   4.739  0.1389 -0.4073 -0.0156
19006TIP3    H178433   2.563   2.207   4.812  0.8395  1.0040 -1.2641
19006TIP3    H278434   2.616   2.083   4.743  1.2825  0.7697 -0.5241
19007TIP3   OH278435   2.126   0.004   3.117 -0.4485 -1.2691 -0.3080
19007TIP3    H178436   2.071  -0.070   3.143 -0.2628 -1.2844  0.0577
19007TIP3    H278437   2.148  -0.013   3.025 -1.9869 -0.6639 -0.8152
19008TIP3   OH278438   5.072   4.322  14.727  0.4134  0.8898 -0.3793
19008TIP3    H178439   5.098   4.412  14.709 -0.3837  0.8898 -1.5896
19008TIP3    H278440   5.040   4.324  14.818 -1.0989  2.1756 -0.8995
19009TIP3   OH278441   5.166   1.582  13.874  0.5529  0.0821  0.0292
19009TIP3    H178442   5.166   1.605  13.781 -1.2130 -0.5520 -0.1489
19009TIP3    H278443   5.222   1.505  13.880  0.5202  0.0107 -0.5413
19010TIP3   OH278444   1.186   3.649   5.420  0.1699  0.3740  0.5106
19010TIP3    H178445   1.263   3.649   5.363 -0.9357  1.5399 -1.0882
19010TIP3    H278446   1.209   3.707   5.492  0.2212  2.0956 -0.8373
19011TIP3   OH278447   1.087   3.690  11.382 -0.7759  0.1723  0.2273
19011TIP3    H178448   1.016   3.690  11.447 -0.1677 -1.4345  0.9338
19011TIP3    H278449   1.087   3.601  11.347  0.7001  0.2288  0.0422
19012TIP3   OH278450   1.694   5.785   3.345  0.3236 -0.5031 -0.6522
19012TIP3    H178451   1.634   5.846   3.301 -1.6102 -0.8693  1.2925
19012TIP3    H278452   1.749   5.841   3.400 -0.4344 -0.3628 -0.0153
19013TIP3   OH278453   5.957   0.189   1.595 -0.7494  0.3010 -0.4040
19013TIP3    H178454   5.945   0.116   1.655  0.5438 -0.7318 -1.3220
19013TIP3    H278455   5.994   0.259   1.649  1.2739 -0.9131 -0.0913
19014TIP3   OH278456   0.487   4.361   5.089 -0.1475  0.3241  0.3519
19014TIP3    H178457   0.412   4.361   5.029 -0.1940  0.4124  0.4101
19014TIP3    H278458   0.450   4.345   5.175  0.3067 -4.3344 -0.0912
19015TIP3   OH278459   1.358   4.594  11.560  0.4283  0.0413 -0.2028
19015TIP3    H178460   1.349   4.672  11.614  1.5602  0.9408 -1.2827
19015TIP3    H278461   1.268   4.565  11.545 -0.0017  1.0682  0.2982
19016TIP3   OH278462   0.520   2.820   2.454  0.0372 -0.4358  0.5385
19016TIP3    H178463   0.455   2.884   2.425 -0.1587 -2.2587 -3.6789
19016TIP3    H278464   0.603   2.851   2.416  0.6422 -0.9191  1.4159
19017TIP3   OH278465   3.144   4.333  15.750  0.0456  0.0193  0.1810
19017TIP3    H178466   3.160   4.424  15.725 -1.1844  0.5643  1.2697
19017TIP3    H278467   3.150   4.332  15.846  1.4848 -1.3614  0.1222
19018TIP3   OH278468   0.697   0.582   0.680  0.0910 -0.2656  0.8725
19018TIP3    H178469   0.741   0.540   0.753  0.9867  1.1987  1.2206
19018TIP3    H278470   0.623   0.525   0.660  1.1427 -1.8897  1.4037
19019TIP3   OH278471   6.300   2.334  11.741  0.2253 -0.0610 -0.0740
19019TIP3    H178472   6.350   2.253  11.750  0.4920  0.1837  0.8171
19019TIP3    H278473   6.224   2.310  11.688  1.1875 -0.4804 -1.2989
19020TIP3   OH278474   2.393   2.322  13.685 -0.1393  0.0952  0.2197
19020TIP3    H178475   2.396   2.233  13.649  0.6448 -0.9246  2.5449
19020TIP3    H278476   2.465   2.368  13.644 -1.2904  0.1005 -1.9339
19021TIP3   OH278477   2.341   1.104  15.692 -1.4164  0.4751  0.0469
19021TIP3    H178478   2.398   1.178  15.714 -1.5502  0.3186  0.9527
19021TIP3    H278479   2.401   1.034  15.666 -1.1968  0.4039  0.7181
19022TIP3   OH278480   5.053   2.128  13.028 -0.1334 -0.1251 -0.2665
19022TIP3    H178481   5.051   2.215  13.069  0.7888  0.0805 -0.6361
19022TIP3    H278482   5.015   2.142  12.941 -1.0396 -0.3357  0.0794
19023TIP3   OH278483   1.122   4.492   3.218  0.0240  0.8375  0.1633
19023TIP3    H178484   1.128   4.578   3.260 -1.3765  1.2204 -0.3595
19023TIP3    H278485   1.103   4.432   3.291  2.0668  0.7671  0.6864
19024TIP3   OH278486   1.914   4.008  13.104 -0.0610 -0.6120  0.5612
19024TIP3    H178487   1.867   4.077  13.151  0.4121 -0.0543  0.2295
19024TIP3    H278488   1.960   4.054  13.033 -1.2577 -1.4945 -0.8582
19025TIP3   OH278489   6.529   1.394   4.530  0.4398 -0.2225  0.0859
19025TIP3    H178490   6.516   1.300   4.543 -0.2067 -0.2689 -0.7464
19025TIP3    H278491   6.510   1.408   4.437 -0.2780  0.8601  0.3709
19026TIP3   OH278492   1.310   4.272  11.315 -0.0267 -0.6554  0.3469
19026TIP3    H178493   1.369   4.344  11.295  0.0021 -0.6392  0.4873
19026TIP3    H278494   1.322   4.210  11.244 -0.8868 -0.0121 -0.3875
19027TIP3   OH278495   3.913   1.340  11.732 -0.1649 -0.0584 -0.4683
19027TIP3    H178496   3.845   1.404  11.711 -0.3124 -0.3916 -1.0194
19027TIP3    H278497   3.870   1.255  11.725  0.0719 -0.2308  0.1049
19028TIP3   OH278498   0.066   3.779  15.350  0.0296  0.1755  0.2578
19028TIP3    H178499   0.001   3.792  15.420  0.2298 -0.1119  0.5021
19028TIP3    H278500   0.067   3.862  15.303 -1.4391 -0.2222 -0.5464
19029TIP3   OH278501   3.445   4.533  14.387 -0.7284 -0.3150  0.6946
19029TIP3    H178502   3.532   4.492  14.383  0.0881  1.0325  2.7399
19029TIP3    H278503   3.384   4.460  14.382  0.4904 -1.3220 -0.5518
19030TIP3   OH278504   6.177   5.690  13.066 -0.2756 -0.2088 -0.7506
19030TIP3    H178505   6.254   5.699  13.123 -0.5604  0.8274 -0.4952
19030TIP3    H278506   6.130   5.614  13.101 -1.3786  1.4238  1.6121
19031TIP3   OH278507   2.376   5.910  11.671 -0.1837 -0.3507 -0.1130
19031TIP3    H178508   2.338   5.957  11.745 -2.6285 -0.6550 -1.0724
19031TIP3    H278509   2.361   5.818  11.691  3.1321 -0.7861  0.9976
19032TIP3   OH278510   5.639   6.076   1.986  0.1577  0.1946 -0.1613
19032TIP3    H178511   5.677   6.161   1.962  1.0026  0.1637  0.9770
19032TIP3    H278512   5.640   6.076   2.082 -0.5279 -0.8023 -0.1440
19033TIP3   OH278513   2.630   1.076   3.798 -0.3435  0.6619  0.1692
19033TIP3    H178514   2.619   1.037   3.711  0.3501  0.1721  0.2926
19033TIP3    H278515   2.721   1.058   3.821 -0.2301  1.6694  0.5744
19034TIP3   OH278516   3.704   5.760   5.543  0.4270  0.1094 -0.8519
19034TIP3    H178517   3.755   5.759   5.624 -2.4382 -0.2203  1.0774
19034TIP3    H278518   3.742   5.690   5.489  2.3050  0.2521  0.2091
19035TIP3   OH278519   4.689   0.807  11.573  0.1616  0.0031  0.5310
19035TIP3    H178520   4.682   0.725  11.525  1.2263 -0.5653  1.3053
19035TIP3    H278521   4.752   0.859  11.523  0.2604 -0.0588  0.5912
19036TIP3   OH278522   5.614   5.597   3.082 -0.4499 -0.0459 -0.6044
19036TIP3    H178523   5.561   5.676   3.066  1.0600  1.2864  0.6254
19036TIP3    H278524   5.680   5.625   3.145 -0.7075 -2.6901  0.9837
19037TIP3   OH278525   0.538   2.014   3.417 -0.1336 -0.1491 -0.2311
19037TIP3    H178526   0.492   2.003   3.500 -1.8639 -0.7825 -1.2220
19037TIP3    H278527   0.591   1.934   3.407 -0.1201 -0.1849  0.1392
19038TIP3   OH278528   2.779   5.457  10.587 -0.4276  0.4603  0.0271
19038TIP3    H178529   2.726   5.529  10.621  0.2066  0.6216  0.7087
19038TIP3    H278530   2.852   5.450  10.649 -0.3125 -0.5645 -0.2082
19039TIP3   OH278531   3.116   2.351  14.558  0.4330  0.3171  0.2156
19039TIP3    H178532   3.038   2.363  14.612  0.1113  0.7917 -0.3516
19039TIP3    H278533   3.111   2.260  14.527 -1.8780  1.3300 -2.8510
19040TIP3   OH278534   0.482   5.331  16.316  0.4210  0.0981  0.4464
19040TIP3    H178535   0.473   5.402  16.252 -1.7054 -0.3349  0.1774
19040TIP3    H278536   0.547   5.363  16.379  0.2653  1.8488 -0.2283
19041TIP3   OH278537   0.792   3.416   4.208 -0.3016  0.4614 -0.0730
19041TIP3    H178538   0.822   3.380   4.124 -1.1518  0.8255 -0.5580
19041TIP3    H278539   0.750   3.499   4.184 -0.6390  0.5239  0.7012
19042TIP3   OH278540   4.941   6.301   1.768  0.0218  0.1243 -0.4981
19042TIP3    H178541   4.947   6.391   1.736 -0.4182  0.2848 -0.1333
19042TIP3    H278542   4.873   6.261   1.714 -0.7881  0.4214  0.2636
19043TIP3   OH278543   0.765   3.260   0.861 -0.2053 -0.2199  0.5203
19043TIP3    H178544   0.712   3.219   0.793  2.1080 -0.2390 -1.3847
19043TIP3    H278545   0.843   3.290   0.815  0.0973  2.5464  2.6260
19044TIP3   OH278546   2.335   2.307  14.622 -0.2312 -0.1818  0.3453
19044TIP3    H178547   2.342   2.242  14.692  0.6238  0.1660  0.6049
19044TIP3    H278548   2.314   2.388  14.667 -0.6373 -0.1491  0.0953
19045TIP3   OH278549   3.381   0.152   4.245 -0.1271  0.1179 -0.0783
19045TIP3    H178550   3.462   0.192   4.212 -0.0671  1.9291  2.0080
19045TIP3    H278551   3.396   0.058   4.239  1.4283  0.4040 -1.3359
19046TIP3   OH278552   2.118   0.965  12.441 -0.1402 -0.1021 -0.7070
19046TIP3    H178553   2.209   0.981  12.464 -0.7478  2.1016  0.4982
19046TIP3    H278554   2.114   0.872  12.419  2.0707 -0.6151  0.7463
19047TIP3   OH278555   2.553   2.734   2.349  0.0584  0.2533  0.3601
19047TIP3    H178556   2.627   2.674   2.355  0.8076  0.8232 -1.9769
19047TIP3    H278557   2.476   2.679   2.365  0.8216 -0.9955 -0.1097
19048TIP3   OH278558   3.614   5.803   1.047  0.5545  0.4963  0.3726
19048TIP3    H178559   3.698   5.819   1.003  1.8031 -0.8176  2.1419
19048TIP3    H278560   3.618   5.711   1.073 -1.6973  0.2536  0.0440
19049TIP3   OH278561   5.890   5.779  16.768 -0.3408 -0.1181  0.3168
19049TIP3    H178562   5.929   5.776  16.681  0.2041 -1.1648  0.5783
19049TIP3    H278563   5.795   5.781  16.752 -0.2302  0.6397 -0.2992
19050TIP3   OH278564   3.689   4.434  14.521  0.0678 -0.3456 -0.4782
19050TIP3    H178565   3.748   4.509  14.514  0.6835 -0.7706  0.0195
19050TIP3    H278566   3.665   4.431  14.614  0.4070 -1.0322 -0.4090
19051TIP3   OH278567   5.401   6.560   4.827  0.6199 -0.7638 -0.3750
19051TIP3    H178568   5.406   6.515   4.743 -0.3263 -0.9552 -0.3422
19051TIP3    H278569   5.308   6.558   4.850  0.2328  2.4607 -1.0708
19052TIP3   OH278570   1.486   3.270   3.479  0.1530  0.1838  0.2103
19052TIP3    H178571   1.485   3.361   3.510 -0.0247  0.1783  0.2209
19052TIP3    H278572   1.511   3.277   3.386 -0.7221  0.3148 -0.0210
19053TIP3   OH278573   3.684   2.195   5.974  0.3359  0.5596  0.0293
19053TIP3    H178574   3.652   2.175   5.886  1.6658  1.3880 -0.6711
19053TIP3    H278575   3.608   2.181   6.031 -0.0875 -1.7003 -1.0025
19054TIP3   OH278576   5.017   5.611   2.786  0.2136  0.0233  0.5473
19054TIP3    H178577   4.935   5.645   2.748  0.9170 -0.2922 -1.3978
19054TIP3    H278578   4.988   5.552   2.855 -1.5456 -3.1763 -2.5434
19055TIP3   OH278579   1.743   0.421  13.820  0.0684 -0.2727  0.2303
19055TIP3    H178580   1.796   0.473  13.880 -0.0574  0.9720 -0.6880
19055TIP3    H278581   1.775   0.331  13.831  0.6489  0.0627  1.4798
19056TIP3   OH278582   3.686   2.038  11.631 -0.3275  0.0134 -0.2178
19056TIP3    H178583   3.770   2.083  11.630  0.8795 -2.1146 -0.7664
19056TIP3    H278584   3.621   2.108  11.625  1.4355  1.6083 -2.2491
19057TIP3   OH278585   0.064   6.660   1.316 -0.2961 -0.0988 -0.6968
19057TIP3    H178586   0.081   6.721   1.389 -1.3945 -0.0482 -0.4564
19057TIP3    H278587   0.080   6.712   1.237  0.5601 -0.0477 -0.4947
19058TIP3   OH278588   2.901   3.239   4.948 -0.1135  0.3124  0.1922
19058TIP3    H178589   2.880   3.148   4.930  1.1079  0.2447 -1.1445
19058TIP3    H278590   2.817   3.286   4.938 -0.6046 -0.5615  0.1506
19059TIP3   OH278591   2.562   2.881   1.562 -0.3468  0.9909 -0.1441
19059TIP3    H178592   2.562   2.803   1.507  2.4705  0.4818  0.4209
19059TIP3    H278593   2.642   2.874   1.614 -1.9040  2.3697  2.7134
19060TIP3   OH278594   0.436   5.359  12.052  0.3593 -0.0046 -0.3989
19060TIP3    H178595   0.520   5.319  12.072  0.1216 -0.1778  0.2864
19060TIP3    H278596   0.444   5.387  11.961  1.3501  0.4629 -0.1870
19061TIP3   OH278597   6.592   0.391   2.356 -0.0700  0.3866 -0.3363
19061TIP3    H178598   6.579   0.468   2.411  2.3497 -0.3073  1.3700
19061TIP3    H278599   6.670   0.412   2.303  0.3291 -0.6707 -0.1959
19062TIP3   OH278600   4.287   5.920   1.963 -0.2223 -0.1709  0.9473
19062TIP3    H178601   4.254   5.831   1.970  0.0187 -0.5609 -1.9077
19062TIP3    H278602   4.373   5.912   1.923 -0.5198  1.3694 -0.1069
19063TIP3   OH278603   6.770   1.612  15.155 -0.1964  0.3494  0.0627
19063TIP3    H178604   6.704   1.544  15.143 -0.9806  1.2791 -1.2123
19063TIP3    H278605   6.750   1.677  15.087  1.7607  0.8825 -0.0662
19064TIP3   OH278606   2.213   3.496  14.684  0.0019 -0.1939  0.2210
19064TIP3    H178607   2.300   3.475  14.718  1.1988  2.6835 -0.7948
19064TIP3    H278608   2.220   3.481  14.590  0.6280  3.3590 -0.4166
19065TIP3   OH278609   3.946   4.380  15.110 -0.0326 -0.3982  0.6350
19065TIP3    H178610   3.988   4.440  15.047  0.8261 -2.2982 -0.6858
19065TIP3    H278611   4.013   4.315  15.130 -0.3960 -0.0485  3.3632
19066TIP3   OH278612   4.801   5.357   5.869 -0.0735 -0.3522 -0.0259
19066TIP3    H178613   4.889   5.394   5.877 -0.6423  1.2382 -0.6801
19066TIP3    H278614   4.768   5.351   5.959  0.7703 -1.1867  0.2412
19067TIP3   OH278615   0.171   5.076  15.930 -0.0847 -0.4302  0.0593
19067TIP3    H178616   0.186   5.072  16.024  0.2250  0.2458  0.0403
19067TIP3    H278617   0.118   4.998  15.911  0.6278 -1.0653  0.6399
19068TIP3   OH278618   2.542   0.227  14.112  0.0047 -0.6488 -0.1433
19068TIP3    H178619   2.518   0.181  14.192  1.4638 -2.6304 -0.7437
19068TIP3    H278620   2.461   0.265  14.080 -0.4544  1.1297  2.7711
19069TIP3   OH278621   4.189   3.880   2.421 -0.1490 -0.3381 -0.2145
19069TIP3    H178622   4.184   3.792   2.385 -0.4386 -0.8338  1.0117
19069TIP3    H278623   4.112   3.889   2.476 -1.8976  1.8362 -2.7247
19070TIP3   OH278624   0.255   0.313  13.059 -0.0519 -0.4526  0.0290
19070TIP3    H178625   0.269   0.397  13.015 -1.1170 -0.6886 -0.8026
19070TIP3    H278626   0.176   0.325  13.112 -0.8359 -1.2124 -0.9203
19071TIP3   OH278627   1.361   4.782  14.800 -0.0763  0.3678 -0.6092
19071TIP3    H178628   1.336   4.752  14.713 -3.2560 -2.2989  1.0129
19071TIP3    H278629   1.292   4.749  14.858  1.4638  2.6406  2.8692
19072TIP3   OH278630   1.349   6.673  16.604  0.3596  0.0981  0.1271
19072TIP3    H178631   1.355   6.664  16.699  0.2432 -0.8868  0.0527
19072TIP3    H278632   1.255   6.666  16.586  0.3764  0.3541 -0.0504
19073TIP3   OH278633   1.445   4.323  13.851 -0.2229 -0.2503  0.0031
19073TIP3    H178634   1.370   4.333  13.793  0.3240  2.3903 -0.4062
19073TIP3    H278635   1.521   4.341  13.794  0.5056 -0.2621  0.9538
19074TIP3   OH278636   4.302   2.671  16.322  0.1568  0.2423  0.2557
19074TIP3    H178637   4.337   2.600  16.376 -0.0513  0.7475  1.0740
19074TIP3    H278638   4.212   2.683  16.353 -0.1570  0.1680 -0.5916
19075TIP3   OH278639   6.291   2.864  14.123 -0.3118 -0.2391 -0.0661
19075TIP3    H178640   6.208   2.831  14.087  0.2790  0.6362 -2.4453
19075TIP3    H278641   6.268   2.949  14.160 -0.5257 -0.1028 -0.5042
19076TIP3   OH278642   6.046   0.923   1.098  0.5758 -0.2401  0.2407
19076TIP3    H178643   6.024   1.013   1.119 -1.1044 -0.5281 -0.1985
19076TIP3    H278644   6.064   0.882   1.182  2.9982  0.8521  0.3585
19077TIP3   OH278645   2.953   3.613  10.988 -0.4681 -0.3980 -0.0992
19077TIP3    H178646   2.971   3.696  11.032  0.3785  0.0548 -1.2493
19077TIP3    H278647   2.933   3.552  11.059 -1.2973  0.8205  0.7562
19078TIP3   OH278648   3.505   5.805   4.968 -0.0169  0.3135  0.1923
19078TIP3    H178649   3.507   5.711   4.949 -0.8556  0.6560 -1.8335
19078TIP3    H278650   3.413   5.829   4.963  0.3124  1.4871 -0.6558
19079TIP3   OH278651   2.251   0.382  14.963  0.2790  0.6269 -0.0424
19079TIP3    H178652   2.177   0.339  15.006  1.1328  0.4342  1.2986
19079TIP3    H278653   2.254   0.469  15.002  0.0749  1.0415 -0.9323
19080TIP3   OH278654   5.310   3.535  12.744  0.2491  0.1959  0.2001
19080TIP3    H178655   5.369   3.561  12.815  0.1730 -0.5372  0.5428
19080TIP3    H278656   5.351   3.458  12.705 -0.1515  0.0673  0.0219
19081TIP3   OH278657   2.387   4.482  14.152 -0.4344  1.1380  0.8579
19081TIP3    H178658   2.417   4.571  14.169  0.6524  0.7501  1.0680
19081TIP3    H278659   2.291   4.487  14.158 -0.4636  2.5053 -0.2348
19082TIP3   OH278660   5.081   3.963   2.024  0.2143 -0.2750  0.0996
19082TIP3    H178661   5.035   3.881   2.040 -1.8548  0.6964 -0.5199
19082TIP3    H278662   5.091   3.968   1.929 -2.0279  1.3012 -0.1370
19083TIP3   OH278663   1.325   3.414   6.184  0.2155  0.1976 -0.1684
19083TIP3    H178664   1.283   3.426   6.270 -0.3285 -2.3464  0.0170
19083TIP3    H278665   1.419   3.415   6.203  0.1075  0.1080  0.3894
19084TIP3   OH278666   0.346   4.761  14.412  0.0221 -0.6971 -0.1431
19084TIP3    H178667   0.309   4.703  14.479  0.4447 -1.9151 -0.9414
19084TIP3    H278668   0.418   4.711  14.374 -0.0415  0.0871 -1.3274
19085TIP3   OH278669   0.104   1.285   4.579 -0.0967 -0.5494 -0.1605
19085TIP3    H178670   0.038   1.317   4.641  0.1011  1.8523 -1.0868
19085TIP3    H278671   0.169   1.354   4.575  1.1342 -1.7098 -1.2711
19086TIP3   OH278672   3.177   1.850   2.185 -0.9042  0.3773 -0.0485
19086TIP3    H178673   3.129   1.876   2.263 -0.4625  0.4649  0.1978
19086TIP3    H278674   3.200   1.758   2.200 -1.5008  0.1588 -0.4281
19087TIP3   OH278675   1.640   2.771   3.339  0.3136 -0.1828 -0.2625
19087TIP3    H178676   1.709   2.706   3.322  1.5680  1.3312 -1.2814
19087TIP3    H278677   1.652   2.836   3.270  0.4533  2.2152  1.8733
19088TIP3   OH278678   2.209   0.363   0.667 -0.6512 -0.2070  0.4225
19088TIP3    H178679   2.246   0.445   0.632  0.7689 -1.5712 -1.4605
19088TIP3    H278680   2.118   0.365   0.639 -0.5210  0.5311 -0.0121
19089TIP3   OH278681   3.192   0.270   2.180  0.1817 -0.7402 -0.2052
19089TIP3    H178682   3.236   0.305   2.257  0.4885 -1.0736 -0.2297
19089TIP3    H278683   3.257   0.277   2.110 -0.5833  1.0047 -0.8183
19090TIP3   OH278684   6.375   6.552  11.928  0.2804 -0.3821 -0.4029
19090TIP3    H178685   6.340   6.464  11.914  1.3440 -0.6926 -1.1690
19090TIP3    H278686   6.319   6.589  11.997 -1.1323 -1.0880 -1.1413
19091TIP3   OH278687   2.857   5.340   0.430  0.1953 -0.9161 -0.0377
19091TIP3    H178688   2.903   5.395   0.367 -0.9549  0.3089  0.1348
19091TIP3    H278689   2.896   5.363   0.515  0.0260 -0.6954 -0.0188
19092TIP3   OH278690   3.458   3.669  13.412 -0.3476  0.2558 -0.2609
19092TIP3    H178691   3.451   3.669  13.316  0.3488 -0.3499 -0.3180
19092TIP3    H278692   3.437   3.579  13.437  1.6717 -0.1826 -0.0233
19093TIP3   OH278693   0.716   5.140  12.907  0.1247 -0.1611  0.0315
19093TIP3    H178694   0.720   5.082  12.830  0.5232  0.4526 -0.4181
19093TIP3    H278695   0.779   5.103  12.968  0.1590 -0.3749 -0.1308
19094TIP3   OH278696   3.310   4.562  15.227 -0.4033  0.1274  0.0466
19094TIP3    H178697   3.229   4.566  15.176  0.7831  1.0274 -1.9096
19094TIP3    H278698   3.351   4.479  15.202  0.0179  0.4158 -0.2605
19095TIP3   OH278699   2.914   1.616  12.494  0.1331 -0.2567 -0.6876
19095TIP3    H178700   2.894   1.525  12.515  1.8381 -0.1540  1.7441
19095TIP3    H278701   2.908   1.662  12.578  1.6460  1.3918 -1.4147
19096TIP3   OH278702   1.449   4.330  15.123 -0.5976  0.0858  0.2038
19096TIP3    H178703   1.479   4.336  15.032  1.1265  0.7270  0.7727
19096TIP3    H278704   1.503   4.262  15.162 -0.6110  0.5169  0.9992
19097TIP3   OH278705   1.550   5.800   5.532 -0.5509 -0.4944  0.5491
19097TIP3    H178706   1.459   5.819   5.556 -0.8524 -0.0994 -0.8293
19097TIP3    H278707   1.599   5.876   5.564 -0.4735 -1.2717  2.4184
19098TIP3   OH278708   4.432   4.038  10.893  0.4621  0.2568 -0.7402
19098TIP3    H178709   4.338   4.050  10.877  0.2569 -1.0465 -0.5472
19098TIP3    H278710   4.467   4.127  10.893 -0.6762  0.7263 -1.4070
19099TIP3   OH278711   1.252   5.668   3.325  0.0508 -0.0094 -0.3821
19099TIP3    H178712   1.288   5.746   3.284  1.1422 -0.7257 -0.8261
19099TIP3    H278713   1.243   5.605   3.254 -0.3088 -0.4697  0.0602
19100TIP3   OH278714   2.299   4.674   1.987  0.1264 -0.3524 -0.2910
19100TIP3    H178715   2.283   4.582   1.965 -1.3818 -0.4325  0.9450
19100TIP3    H278716   2.386   4.674   2.028  0.5656 -1.0467 -1.1903
19101TIP3   OH278717   6.614   0.442  16.893  1.1785  0.1559  0.2675
19101TIP3    H178718   6.599   0.373  16.957  0.0704 -0.7385 -0.9066
19101TIP3    H278719   6.644   0.516  16.944 -0.9448 -0.0909  1.9906
19102TIP3   OH278720   0.667   6.446  14.161 -0.3101 -0.0902  0.3277
19102TIP3    H178721   0.716   6.369  14.134  0.0752  0.4032 -0.4235
19102TIP3    H278722   0.602   6.413  14.223 -1.2280 -1.3044 -1.1843
19103TIP3   OH278723   6.267   4.202   6.062  0.0502  0.4233  0.4784
19103TIP3    H178724   6.217   4.239   6.135 -0.4112  3.5670 -1.2576
19103TIP3    H278725   6.212   4.131   6.029 -0.1385 -0.4820  2.5473
19104TIP3   OH278726   4.319   4.521   1.067  0.4162  0.5079 -0.7119
19104TIP3    H178727   4.285   4.448   1.015  2.6868  0.8794 -2.9085
19104TIP3    H278728   4.267   4.596   1.040 -1.1113  0.0077  0.6591
19105TIP3   OH278729   1.065   5.994   4.655 -0.2941 -0.3694 -0.4627
19105TIP3    H178730   1.033   5.905   4.673  0.8333 -1.2037 -2.3370
19105TIP3    H278731   1.160   5.986   4.653 -0.0295  1.3581  1.4412
19106TIP3   OH278732   3.767   5.024   5.618 -0.1640 -0.0634 -0.2005
19106TIP3    H178733   3.782   4.940   5.661 -1.8184 -0.6825 -0.7449
19106TIP3    H278734   3.755   5.001   5.526 -0.2563  0.8168 -0.4098
19107TIP3   OH278735   0.083   5.096   3.036  0.0115 -0.2727  0.2652
19107TIP3    H178736   0.097   5.188   3.014  0.8072 -0.2307  0.9260
19107TIP3    H278737   0.112   5.088   3.127  1.8328 -1.5859 -0.3695
19108TIP3   OH278738   4.863   6.619  12.105  0.4129 -0.8973  0.4555
19108TIP3    H178739   4.956   6.638  12.114  0.0571  0.6075  1.3739
19108TIP3    H278740   4.825   6.702  12.077 -0.6171 -1.5856 -0.2458
19109TIP3   OH278741   4.804   2.390   3.039 -0.2441 -0.7621 -0.2556
19109TIP3    H178742   4.800   2.332   3.115  0.5556 -1.2135 -0.5536
19109TIP3    H278743   4.716   2.427   3.033 -0.0955 -0.0664  1.3914
19110TIP3   OH278744   4.641   1.169   3.178  0.4247 -0.3411  0.7286
19110TIP3    H178745   4.594   1.249   3.202 -1.3840 -0.4427 -1.9640
19110TIP3    H278746   4.728   1.198   3.154 -0.0183  0.7435  0.3797
19111TIP3   OH278747   6.646   1.410   1.383  0.5212 -0.9886  0.0320
19111TIP3    H178748   6.658   1.316   1.372  1.5659 -0.7393 -1.2156
19111TIP3    H278749   6.662   1.426   1.476  2.4960 -1.7832 -0.1261
19112TIP3   OH278750   3.327   4.596   0.940 -0.8971 -0.1172 -0.1479
19112TIP3    H178751   3.361   4.599   1.030 -0.0750  1.1423 -0.4752
19112TIP3    H278752   3.252   4.655   0.941 -0.3842  0.5495 -0.4776
19113TIP3   OH278753   5.777   2.947   4.164  0.0171  0.0595  0.3143
19113TIP3    H178754   5.684   2.941   4.145 -0.3256 -0.6946  2.0737
19113TIP3    H278755   5.809   2.857   4.163  0.4973  0.2149  0.7720
19114TIP3   OH278756   6.207   1.848   6.074  0.1637  0.1898 -0.1430
19114TIP3    H178757   6.232   1.935   6.105 -0.2198 -0.1553  1.1983
19114TIP3    H278758   6.288   1.796   6.081  0.3625  0.3926 -0.8311
19115TIP3   OH278759   4.371   5.053  16.908 -0.2406  0.2762  0.0036
19115TIP3    H178760   4.288   5.098  16.927 -1.2765 -1.4078 -0.3277
19115TIP3    H278761   4.434   5.094  16.967 -0.9765  2.5329 -0.6716
19116TIP3   OH278762   5.779   0.116  17.108 -0.0179  0.3349  0.1554
19116TIP3    H178763   5.755   0.196  17.155 -0.6464  0.6308 -0.6514
19116TIP3    H278764   5.874   0.110  17.118 -0.0847  0.5995  1.1226
19117TIP3   OH278765   0.059   3.223   0.114  0.5830  0.0940 -0.5417
19117TIP3    H178766   0.025   3.312   0.123  1.1989  0.2404  0.4966
19117TIP3    H278767   0.152   3.235   0.093  0.7581 -0.2961 -0.0115
19118TIP3   OH278768   0.193   2.329  16.091 -0.4769  0.0111  0.4090
19118TIP3    H178769   0.274   2.379  16.101 -0.3364  0.2924 -1.6815
19118TIP3    H278770   0.216   2.240  16.115  0.2181  0.2731  0.7330
19119TIP3   OH278771   5.423   4.751  11.830  0.2610 -0.2749  0.0484
19119TIP3    H178772   5.405   4.841  11.805 -0.0683 -0.0030  1.2225
19119TIP3    H278773   5.371   4.698  11.768 -0.1225  0.3517 -0.1744
19120TIP3   OH278774   4.380   4.689  11.316 -0.4516 -0.3854  0.0269
19120TIP3    H178775   4.337   4.617  11.270  0.3687 -1.0949  0.3661
19120TIP3    H278776   4.345   4.768  11.273  0.8304 -1.0126 -2.3644
19121TIP3   OH278777   0.247   0.192  16.499 -0.0653 -0.3220  0.0577
19121TIP3    H178778   0.214   0.188  16.409 -1.0359  0.0696  0.3806
19121TIP3    H278779   0.303   0.115  16.508  0.2127 -0.2398 -0.9464
19122TIP3   OH278780   2.530   3.552   4.416  0.7237  0.1216 -0.1111
19122TIP3    H178781   2.611   3.557   4.366  1.3267 -0.8728  0.7275
19122TIP3    H278782   2.477   3.624   4.382  1.2214 -0.3112 -1.9534
19123TIP3   OH278783   4.888   3.271   2.791  0.5201  0.1816 -0.1830
19123TIP3    H178784   4.842   3.352   2.768 -1.5293 -0.9794 -0.4026
19123TIP3    H278785   4.877   3.263   2.886  0.7828  0.2063 -0.1514
19124TIP3   OH278786   3.464   6.682  14.326 -0.4293  0.1677 -0.4354
19124TIP3    H178787   3.373   6.690  14.356 -0.9431 -1.2475 -1.5384
19124TIP3    H278788   3.473   6.749  14.259 -0.2254  1.2072  0.5914
19125TIP3   OH278789   0.205   2.231   6.775 -0.6778  0.7022  0.3833
19125TIP3    H178790   0.257   2.196   6.846 -1.8334  1.2334  1.5386
19125TIP3    H278791   0.260   2.222   6.697 -0.0642 -1.5215  1.0167
19126TIP3   OH278792   4.876   0.897   5.570 -0.0902 -0.5651 -0.6639
19126TIP3    H178793   4.933   0.957   5.522  1.6016  0.0726  1.9042
19126TIP3    H278794   4.820   0.954   5.623  0.7161 -1.1997  0.9314
19127TIP3   OH278795   2.851   0.130  14.316 -0.0037 -0.7319  0.4326
19127TIP3    H178796   2.917   0.199  14.319 -0.2351 -0.5230  0.9307
19127TIP3    H278797   2.779   0.164  14.369 -0.8570 -0.6192 -0.7616
19128TIP3   OH278798   4.276   4.778  13.406 -0.6617 -0.6923 -0.0983
19128TIP3    H178799   4.364   4.815  13.409 -0.6611 -0.7489  1.0605
19128TIP3    H278800   4.291   4.684  13.395 -0.6458 -0.4997 -2.0983
19129TIP3   OH278801   2.827   6.443  15.205  0.1655 -0.4536  0.7934
19129TIP3    H178802   2.777   6.517  15.241  0.4772 -0.6226  1.5838
19129TIP3    H278803   2.789   6.429  15.118 -0.1756  0.3693  0.8002
19130TIP3   OH278804   3.998   4.253   3.999 -0.7390  0.1788 -0.3056
19130TIP3    H178805   3.911   4.213   3.995  0.4677 -2.9195  1.5143
19130TIP3    H278806   4.023   4.264   3.908 -2.6146  0.2253 -0.8650
19131TIP3   OH278807   5.539   2.153   3.811  0.3253 -0.3427 -0.0219
19131TIP3    H178808   5.503   2.127   3.896  0.0758  0.9677  0.2925
19131TIP3    H278809   5.468   2.199   3.767  0.2607 -1.5344 -1.2147
19132TIP3   OH278810   1.197   3.489  15.975 -0.2031 -0.3480 -0.1477
19132TIP3    H178811   1.272   3.536  16.012  0.0025 -1.0904  0.3927
19132TIP3    H278812   1.199   3.512  15.882 -0.0360  0.6146  0.0819
19133TIP3   OH278813   1.825   3.071  14.605 -0.2149 -0.6885 -0.1452
19133TIP3    H178814   1.886   2.997  14.594 -0.8118 -0.9918 -1.7611
19133TIP3    H278815   1.880   3.143  14.635  0.5182 -1.5826  0.7067
19134TIP3   OH278816   2.850   5.632   1.822  0.8852 -0.0953 -0.2187
19134TIP3    H178817   2.896   5.554   1.792  0.0207 -0.2249 -1.2375
19134TIP3    H278818   2.786   5.599   1.885  1.1442 -0.0908  0.0504
19135TIP3   OH278819   4.015   6.412  14.838 -0.1037 -0.4392 -0.8840
19135TIP3    H178820   3.949   6.343  14.841  0.7895 -1.3866 -2.0744
19135TIP3    H278821   4.091   6.374  14.882 -0.5698  0.9635  1.2763
19136TIP3   OH278822   1.160   3.224   3.247 -0.4709  0.1067  0.0439
19136TIP3    H178823   1.240   3.173   3.257  0.1358  1.1775  0.8005
19136TIP3    H278824   1.127   3.200   3.161 -0.1338 -1.4530  0.3304
19137TIP3   OH278825   0.272   5.140   4.993  0.1722 -0.6239 -0.3307
19137TIP3    H178826   0.233   5.094   4.918 -0.4123 -2.7723  1.2090
19137TIP3    H278827   0.198   5.182   5.037 -0.4754 -3.9249  2.0576
19138TIP3   OH278828   5.505   4.057  14.263  0.6273 -0.3109 -0.2968
19138TIP3    H178829   5.494   3.977  14.313  1.0785 -0.5888 -0.6366
19138TIP3    H278830   5.450   4.045  14.185  1.5511 -0.7709 -0.8998
19139TIP3   OH278831   0.978   1.976  13.329  0.2345 -0.0211 -0.2672
19139TIP3    H178832   0.982   1.996  13.423 -1.0331  1.1870 -0.4330
19139TIP3    H278833   0.979   1.881  13.325 -0.1134 -0.1040  1.0092
19140TIP3   OH278834   5.297   3.817  13.940  0.2232  0.3688  0.3749
19140TIP3    H178835   5.355   3.804  14.015 -0.0515 -1.1683  0.3490
19140TIP3    H278836   5.292   3.912  13.930  1.8165  0.5565  1.0838
19141TIP3   OH278837   4.037   3.733  11.824 -0.0193  0.4090  0.1200
19141TIP3    H178838   3.965   3.791  11.851 -0.5856  0.6323 -1.6825
19141TIP3    H278839   4.057   3.681  11.901 -0.6740  1.8185  1.2886
19142TIP3   OH278840   4.114   5.627   0.170  0.3727  0.7001  0.4524
19142TIP3    H178841   4.164   5.611   0.090 -0.3697  0.6796 -0.0209
19142TIP3    H278842   4.042   5.684   0.142 -1.5508 -1.5642  0.4856
19143TIP3   OH278843   0.839   2.622   4.580  0.0527  0.6375  0.7038
19143TIP3    H178844   0.775   2.688   4.556  0.2999  0.4654 -0.4695
19143TIP3    H278845   0.910   2.670   4.623  0.3700  1.1857 -0.4115
19144TIP3   OH278846   3.338   0.140   3.127  0.3242  0.1748 -0.3181
19144TIP3    H178847   3.408   0.163   3.188  1.1442 -0.1153 -1.1381
19144TIP3    H278848   3.381   0.088   3.059 -0.2026  1.9984 -2.1412
19145TIP3   OH278849   6.420   4.490  12.030 -0.2026 -0.0646  0.1442
19145TIP3    H178850   6.490   4.517  11.970 -1.0300 -0.0564 -0.8449
19145TIP3    H278851   6.415   4.395  12.021 -1.1539  0.0540 -0.7621
19146TIP3   OH278852   1.571   4.618   1.262 -0.0988 -0.2645  0.0428
19146TIP3    H178853   1.490   4.626   1.211 -0.2228  0.0146  0.2835
19146TIP3    H278854   1.624   4.555   1.213 -0.7049 -0.9093  0.1937
19147TIP3   OH278855   0.241   0.764  12.517  0.1594  0.4966  0.0853
19147TIP3    H178856   0.322   0.724  12.488 -0.7197 -1.1015 -0.2490
19147TIP3    H278857   0.234   0.845  12.466  0.1167 -0.7786 -2.0386
19148TIP3   OH278858   3.982   2.843  10.731 -0.6720 -0.2467 -0.5054
19148TIP3    H178859   4.035   2.885  10.663 -1.3610  1.5334 -0.0052
19148TIP3    H278860   3.904   2.899  10.737 -1.5158 -1.4796  0.4027
19149TIP3   OH278861   1.240   0.043   3.974  0.6057  0.2642 -0.2807
19149TIP3    H178862   1.200   0.005   4.052 -1.7324 -0.3088 -1.6638
19149TIP3    H278863   1.330   0.012   3.975 -0.0876 -1.8401  0.8596
19150TIP3   OH278864   5.246   4.333  13.610  0.3482  0.8633 -0.5532
19150TIP3    H178865   5.293   4.318  13.528  0.3859  2.5363 -0.8657
19150TIP3    H278866   5.250   4.428  13.623 -1.2042  0.8215  0.4517
19151TIP3   OH278867   5.681   3.208  12.737 -0.3609 -0.7546 -0.2281
19151TIP3    H178868   5.667   3.114  12.725 -0.3760 -0.8749  0.6891
19151TIP3    H278869   5.727   3.215  12.821  0.8400 -0.0313 -0.9202
19152TIP3   OH278870   6.276   0.659  14.830  0.3402  0.0619 -0.3921
19152TIP3    H178871   6.208   0.631  14.769  2.6941 -1.6644 -2.4253
19152TIP3    H278872   6.306   0.744  14.796 -0.1234  0.3747 -0.0376
19153TIP3   OH278873   3.298   1.215   0.398 -0.0441 -0.2297  0.0208
19153TIP3    H178874   3.302   1.310   0.393 -0.3227 -0.2677 -2.3722
19153TIP3    H278875   3.206   1.196   0.416 -0.9101  0.0107 -3.4004
19154TIP3   OH278876   1.101   5.414   3.699  0.1914  0.4782  0.1615
19154TIP3    H178877   1.152   5.336   3.677 -0.3639 -0.2689  1.4150
19154TIP3    H278878   1.160   5.467   3.753 -0.3789 -0.4710  1.7641
19155TIP3   OH278879   0.906   6.245   4.295  0.0445  0.2393  0.1822
19155TIP3    H178880   0.991   6.215   4.328 -1.0606 -1.3546  1.8154
19155TIP3    H278881   0.845   6.225   4.366 -1.5271  2.5129 -0.4149
19156TIP3   OH278882   2.865   6.643   2.723  0.3928  0.0254 -0.6985
19156TIP3    H178883   2.837   6.638   2.814 -0.8436  1.2913 -0.9680
19156TIP3    H278884   2.918   6.565   2.709  0.6122 -0.1768  1.1035
19157TIP3   OH278885   2.309   1.223   0.560 -0.4293  0.0749 -0.3469
19157TIP3    H178886   2.235   1.240   0.618  0.1428 -1.7291  0.9826
19157TIP3    H278887   2.282   1.148   0.507  0.5259 -0.7473  0.3139
19158TIP3   OH278888   6.701   2.229  10.749  0.6838  0.5118  0.2421
19158TIP3    H178889   6.770   2.278  10.793  1.1996 -0.4096  0.4820
19158TIP3    H278890   6.681   2.156  10.809 -0.3729  0.6696  0.0999
19159TIP3   OH278891   0.118   3.409   3.486 -0.2882 -0.1234  0.3791
19159TIP3    H178892   0.149   3.440   3.401  0.5285 -1.2216  0.2471
19159TIP3    H278893   0.026   3.387   3.472 -0.3884  0.5052  0.0153
19160TIP3   OH278894   6.499   1.530  12.488  0.6438 -0.0127  0.4934
19160TIP3    H178895   6.413   1.563  12.513  0.8642  1.0004 -0.0462
19160TIP3    H278896   6.549   1.608  12.464  0.5943 -0.8340 -2.6554
19161TIP3   OH278897   1.642   6.735   2.746 -0.1550  0.0663 -0.4107
19161TIP3    H178898   1.677   6.745   2.835  0.6352  0.5929 -0.7618
19161TIP3    H278899   1.656   6.643   2.726 -1.2337 -0.2846  0.3579
19162TIP3   OH278900   0.903   3.499  13.224  0.1685  0.6963  0.7390
19162TIP3    H178901   0.948   3.437  13.281 -0.8753 -0.5773  0.2377
19162TIP3    H278902   0.962   3.512  13.150  0.0293 -0.4476  0.4025
19163TIP3   OH278903   3.007   4.612   1.414 -0.3262 -0.1212  0.3226
19163TIP3    H178904   2.982   4.531   1.369 -2.2777  0.8134 -0.3861
19163TIP3    H278905   3.015   4.677   1.344  0.9206  0.3864  0.9088
19164TIP3   OH278906   3.053   2.433   1.229 -0.0370 -0.1637 -0.1752
19164TIP3    H178907   2.985   2.501   1.223  1.0464  1.4076  3.0064
19164TIP3    H278908   3.017   2.368   1.289  0.3075 -0.6534 -0.4871
19165TIP3   OH278909   3.907   0.316  13.876  0.5256  0.3694  0.4414
19165TIP3    H178910   3.926   0.399  13.831  1.3369 -1.0710 -2.1384
19165TIP3    H278911   3.813   0.317  13.889  0.2083  0.8584 -1.5099
19166TIP3   OH278912   2.074   3.828   2.318 -0.1372  0.0472  0.6419
19166TIP3    H178913   2.053   3.869   2.234  0.6970  1.0257  0.8885
19166TIP3    H278914   2.092   3.901   2.376  0.3414 -0.6552  1.3944
19167TIP3   OH278915   2.293   1.846  14.513 -0.0225 -0.7990 -0.1204
19167TIP3    H178916   2.321   1.757  14.534 -0.3618 -1.0427 -0.6926
19167TIP3    H278917   2.197   1.843  14.521  0.0618  0.1107  2.1958
19168TIP3   OH278918   2.605   1.720  11.706  0.0532  0.0395 -0.0878
19168TIP3    H178919   2.636   1.746  11.792  0.0376  0.2904 -0.1582
19168TIP3    H278920   2.685   1.709  11.654  0.1245 -1.1488  0.2467
19169TIP3   OH278921   1.235   5.760   1.969 -0.7625 -0.0871  0.0199
19169TIP3    H178922   1.185   5.827   2.015  0.2920  1.3846 -0.8886
19169TIP3    H278923   1.188   5.678   1.987 -1.7870  0.7973  1.5918
19170TIP3   OH278924   6.639   4.180   4.452  0.3457  0.0106  0.3340
19170TIP3    H178925   6.686   4.103   4.422  0.3724 -0.8585  2.3990
19170TIP3    H278926   6.690   4.255   4.421 -0.5598 -0.6511 -3.1460
19171TIP3   OH278927   3.100   2.959  11.392  0.1275 -0.6766  0.0239
19171TIP3    H178928   3.169   2.973  11.328  0.7242 -0.4785  0.6926
19171TIP3    H278929   3.137   2.895  11.454  0.3745  0.6793  1.3314
19172TIP3   OH278930   5.568   0.819   5.629  0.1354 -0.0711 -0.2689
19172TIP3    H178931   5.580   0.900   5.678 -0.4408  0.4303 -0.9389
19172TIP3    H278932   5.477   0.821   5.600  0.4816 -0.2883 -1.4457
19173TIP3   OH278933   5.142   2.506   0.772 -0.8921 -0.1311 -0.5927
19173TIP3    H178934   5.204   2.472   0.837  0.6335 -0.5111 -2.1669
19173TIP3    H278935   5.122   2.431   0.716 -1.0909  0.4909 -1.3758
19174TIP3   OH278936   0.201   2.119  13.335  0.4230 -0.0284  0.0388
19174TIP3    H178937   0.237   2.032  13.355 -2.1755 -1.4315 -0.9073
19174TIP3    H278938   0.193   2.121  13.240  0.7359  1.4220  0.0166
19175TIP3   OH278939   5.729   4.115   5.586  0.1455 -0.2871  0.3711
19175TIP3    H178940   5.719   4.193   5.532  1.4593 -0.2273  0.1869
19175TIP3    H278941   5.677   4.134   5.664  1.3772  1.2778  0.8559
19176TIP3   OH278942   2.418   1.600   4.765 -0.1584 -0.0313 -0.3286
19176TIP3    H178943   2.510   1.625   4.763 -0.2143  0.1941 -0.0341
19176TIP3    H278944   2.419   1.505   4.777  0.0281  0.0525  0.3678
19177TIP3   OH278945   0.334   4.152   2.185  0.3103  0.0293 -0.1121
19177TIP3    H178946   0.316   4.224   2.245  1.3290 -0.5915  0.9706
19177TIP3    H278947   0.251   4.138   2.140 -1.0146 -0.5392  2.3046
19178TIP3   OH278948   3.532   6.235  13.179 -0.0210  0.0182 -0.1038
19178TIP3    H178949   3.444   6.198  13.183  1.2331 -3.2442  0.8964
19178TIP3    H278950   3.534   6.299  13.250 -1.2318 -0.8004  0.7039
19179TIP3   OH278951   4.876   4.782  13.206  0.1384 -0.2791 -0.2822
19179TIP3    H178952   4.879   4.801  13.112  1.3523 -2.0161 -0.6502
19179TIP3    H278953   4.859   4.688  13.211 -0.1951 -0.1700  1.2539
19180TIP3   OH278954   2.842   5.426   3.139 -0.4691 -1.2073 -0.4827
19180TIP3    H178955   2.867   5.344   3.182 -1.0003 -0.7896  0.6748
19180TIP3    H278956   2.920   5.481   3.146 -0.7093 -0.9542  0.4784
19181TIP3   OH278957   4.196   4.888   0.328 -0.5356  0.6421 -0.3209
19181TIP3    H178958   4.166   4.799   0.308  0.4211  0.3585 -0.5419
19181TIP3    H278959   4.276   4.898   0.276  0.2758  1.0304  0.9468
19182TIP3   OH278960   0.060   4.219   5.745  0.8878  0.3631  0.8518
19182TIP3    H178961   0.038   4.205   5.837 -0.7954  0.2879  0.4530
19182TIP3    H278962   0.007   4.156   5.697  0.7092  1.3436 -0.2766
19183TIP3   OH278963   2.363   2.685   5.629 -0.1407  0.0175  0.5772
19183TIP3    H178964   2.332   2.684   5.720 -1.0724 -0.0295  0.2682
19183TIP3    H278965   2.417   2.764   5.623 -0.8627  0.5553  0.9306
19184TIP3   OH278966   3.060   1.099   0.458  0.5173  0.1593  0.1047
19184TIP3    H178967   2.982   1.120   0.405  1.5897  1.1595 -1.1600
19184TIP3    H278968   3.028   1.040   0.526 -1.7884  2.2518  0.9848
19185TIP3   OH278969   5.010   1.431  16.217  0.8406  0.3686 -0.8151
19185TIP3    H178970   5.067   1.355  16.223  1.3618  0.7960 -0.2399
19185TIP3    H278971   5.067   1.505  16.236 -0.0260  0.7571  0.3883
19186TIP3   OH278972   3.449   0.418   2.066  0.4579  0.2523 -0.1338
19186TIP3    H178973   3.543   0.428   2.053  0.5058  1.2358  0.8975
19186TIP3    H278974   3.421   0.499   2.107 -0.6699 -0.4442  0.5246
19187TIP3   OH278975   5.166   3.445  15.823  0.2929  0.3020  0.3711
19187TIP3    H178976   5.206   3.360  15.839  0.9466  0.4969 -0.1468
19187TIP3    H278977   5.212   3.505  15.883  0.5795  0.4708 -0.0091
19188TIP3   OH278978   5.059   6.391   4.030 -0.3147  0.6328  0.1106
19188TIP3    H178979   5.067   6.296   4.043  0.4261  0.6159 -0.3959
19188TIP3    H278980   5.142   6.416   3.990 -0.3803  1.5553  0.5487
19189TIP3   OH278981   0.492   1.723  16.019  0.0829 -0.2523  0.1615
19189TIP3    H178982   0.476   1.688  15.932  0.1420 -2.5287  1.0126
19189TIP3    H278983   0.421   1.688  16.073  0.8606 -0.1087  1.3294
19190TIP3   OH278984   0.529   2.001  12.578  0.1444 -0.4807  0.1472
19190TIP3    H178985   0.569   1.928  12.626  1.4751  0.3521  0.3594
19190TIP3    H278986   0.513   2.068  12.644 -0.6559 -0.4027 -0.1182
19191TIP3   OH278987   6.602   3.456   0.934  0.1034 -0.3561  0.2585
19191TIP3    H178988   6.630   3.364   0.932  2.4470  0.2903  1.2598
19191TIP3    H278989   6.683   3.506   0.941 -1.2079  1.7497  1.1779
19192TIP3   OH278990   4.262   0.505   0.632  0.5243 -1.0002  0.2493
19192TIP3    H178991   4.182   0.556   0.642  0.6462 -0.8453  0.4472
19192TIP3    H278992   4.299   0.534   0.549  0.6614 -0.6728  0.4250
19193TIP3   OH278993   0.433   4.966  11.376 -0.1900  0.7504 -0.1338
19193TIP3    H178994   0.368   5.017  11.328  0.9150  2.7906  0.3838
19193TIP3    H278995   0.480   4.918  11.308 -1.3509  0.2852 -0.6368
19194TIP3   OH278996   5.510   2.279   3.114  0.1531  0.1054  0.2157
19194TIP3    H178997   5.487   2.243   3.199 -1.7813 -1.0454 -0.7086
19194TIP3    H278998   5.522   2.202   3.058  4.0660  0.6980 -0.0468
19195TIP3   OH278999   4.732   0.497   3.052 -0.2054 -0.6011 -0.3378
19195TIP3    H179000   4.689   0.427   3.003 -0.0679 -0.9570  0.0413
19195TIP3    H279001   4.662   0.558   3.074 -0.1933 -0.2130 -1.3517
19196TIP3   OH279002   3.286   3.969  14.254  0.2611 -0.0222  0.3832
19196TIP3    H179003   3.304   3.982  14.161  0.0678  0.1644  0.3708
19196TIP3    H279004   3.295   3.875  14.267 -0.0492 -0.0945  0.1022
19197TIP3   OH279005   5.149   4.478  15.465 -0.5321 -0.4858 -0.1559
19197TIP3    H179006   5.072   4.440  15.507 -0.1710 -0.5440  0.4672
19197TIP3    H279007   5.142   4.572  15.483 -1.3788 -0.2290 -1.6196
19198TIP3   OH279008   5.007   1.640   3.852  0.3156 -0.4412  0.5421
19198TIP3    H179009   4.941   1.671   3.914  0.4299  3.6749 -1.0836
19198TIP3    H279010   5.090   1.651   3.898  0.2763  0.9472  0.3244
19199TIP3   OH279011   2.996   5.211  13.505 -0.3918 -0.8536 -0.2259
19199TIP3    H179012   3.026   5.125  13.479 -1.2151 -0.7850 -1.5411
19199TIP3    H279013   3.006   5.265  13.426 -1.4241 -0.1857  0.0675
19200TIP3   OH279014   5.745   0.360   1.623  0.2384 -0.1373 -0.1943
19200TIP3    H179015   5.790   0.420   1.563 -0.3050 -0.4936 -0.9866
19200TIP3    H279016   5.752   0.275   1.581  1.2616 -0.7085  1.0701
19201TIP3   OH279017   2.510   0.077   3.501 -0.5150  0.2386  0.2555
19201TIP3    H179018   2.524   0.171   3.491  0.3393  0.0156 -0.8025
19201TIP3    H279019   2.423   0.070   3.540 -1.0607  1.4383 -0.6888
19202TIP3   OH279020   1.167   4.103   2.992 -0.2375 -0.1099 -0.0301
19202TIP3    H179021   1.174   4.087   3.086  0.0987 -1.2898 -0.2387
19202TIP3    H279022   1.211   4.187   2.978 -0.0705 -0.0488  0.8218
19203TIP3   OH279023   6.345   0.070  14.697  0.1963  0.5275 -0.0912
19203TIP3    H179024   6.297  -0.012  14.693  0.7614  0.2116 -0.7231
19203TIP3    H279025   6.279   0.138  14.681  0.0778  0.0571 -1.8332
19204TIP3   OH279026   5.521   3.331   4.995  0.0326  0.3112  0.3951
19204TIP3    H179027   5.447   3.271   4.998  1.5003 -1.5970  0.3513
19204TIP3    H279028   5.568   3.315   5.077  0.5521  1.2891  0.2987
19205TIP3   OH279029   1.557   5.935  11.884 -0.1399  0.0587 -0.5321
19205TIP3    H179030   1.480   5.973  11.842 -0.6527 -0.3905 -0.0180
19205TIP3    H279031   1.521   5.875  11.950  0.6424 -0.9191 -0.9648
19206TIP3   OH279032   2.446   3.517  15.913 -0.0593  0.1607 -0.3404
19206TIP3    H179033   2.533   3.477  15.910  1.3742  2.9919 -0.2833
19206TIP3    H279034   2.398   3.467  15.979  1.0776 -2.2487 -1.2546
19207TIP3   OH279035   5.924   2.178  11.938  0.7565  0.5093  0.1138
19207TIP3    H179036   5.944   2.255  11.886 -2.7723  1.0030 -0.7797
19207TIP3    H279037   5.839   2.149  11.906  0.0630 -1.3164  3.2087
19208TIP3   OH279038   2.399   1.733  12.689 -0.7323 -0.1060 -0.4376
19208TIP3    H179039   2.324   1.763  12.741 -0.4542 -1.9316  1.1290
19208TIP3    H279040   2.447   1.813  12.669 -2.1163  0.9105  0.0894
19209TIP3   OH279041   0.221   4.139  16.320 -0.0702 -0.1983 -0.1291
19209TIP3    H179042   0.264   4.221  16.297 -0.5406  0.0617 -0.0794
19209TIP3    H279043   0.294   4.078  16.336  0.4900  1.2392  4.0264
19210TIP3   OH279044   6.423   6.464  12.937  0.1770  0.0905  0.1210
19210TIP3    H179045   6.420   6.380  12.892  0.6362  0.3701 -0.4331
19210TIP3    H279046   6.475   6.520  12.880 -0.1457  0.7583  0.4761
19211TIP3   OH279047   2.167   4.856   6.210 -0.0822  0.7837 -0.0776
19211TIP3    H179048   2.104   4.921   6.243  0.6664  2.2012 -1.3129
19211TIP3    H279049   2.250   4.881   6.251 -0.1811 -0.8655  1.2710
19212TIP3   OH279050   3.632   5.805  11.344 -0.7329 -0.3484 -0.3828
19212TIP3    H179051   3.708   5.853  11.312  0.3184 -0.2490  2.0807
19212TIP3    H279052   3.564   5.872  11.355 -0.4156 -0.0306 -0.3547
19213TIP3   OH279053   5.134   4.976   6.090 -0.0016 -0.0995 -0.3724
19213TIP3    H179054   5.132   5.055   6.037  0.2484 -0.2250 -0.5718
19213TIP3    H279055   5.053   4.979   6.141  1.0026  1.4049  1.2573
19214TIP3   OH279056   2.560   5.592   5.512 -0.0997  0.0455  0.0911
19214TIP3    H179057   2.636   5.624   5.465 -0.5183 -0.8266 -1.2474
19214TIP3    H279058   2.581   5.605   5.605  1.9547 -0.8220 -0.2113
19215TIP3   OH279059   1.235   1.915  15.961  0.2428 -0.5066  0.2003
19215TIP3    H179060   1.288   1.949  15.889  0.9422 -0.3747  0.7606
19215TIP3    H279061   1.162   1.976  15.968  0.0713 -0.6223 -0.5064
19216TIP3   OH279062   5.857   3.556  13.162  0.1218 -0.3371 -0.2806
19216TIP3    H179063   5.914   3.633  13.156 -0.3026 -0.0976 -1.6233
19216TIP3    H279064   5.772   3.591  13.187 -0.1285 -0.3207 -1.1180
19217TIP3   OH279065   3.981   3.084   3.459  0.1783  0.4490  0.3034
19217TIP3    H179066   4.039   3.051   3.527  0.1170  1.6132  0.9504
19217TIP3    H279067   3.893   3.072   3.496  0.1898  2.2575  1.0303
19218TIP3   OH279068   3.546   4.205   3.371 -0.2933  0.0202  0.1091
19218TIP3    H179069   3.593   4.122   3.373  0.4834  0.4033 -1.2595
19218TIP3    H279070   3.479   4.196   3.439  1.2671 -0.8062  1.6162
19219TIP3   OH279071   6.671   5.466  12.486  0.1009 -0.5561  0.5624
19219TIP3    H179072   6.629   5.395  12.438 -0.1622 -1.7305  2.4128
19219TIP3    H279073   6.599   5.513  12.528  0.3477  0.2072  0.1547
19220TIP3   OH279074   0.419   0.170  13.771  0.0607  0.1400  0.0690
19220TIP3    H179075   0.419   0.158  13.676 -0.6203  1.8673 -0.1967
19220TIP3    H279076   0.511   0.179  13.794  0.1848  0.4749 -0.5472
19221TIP3   OH279077   6.683   3.756   5.064  0.0370  0.1146 -0.2864
19221TIP3    H179078   6.604   3.788   5.021  1.6609 -0.5166 -4.1450
19221TIP3    H279079   6.674   3.661   5.065  0.7729  0.0279 -0.8997
19222TIP3   OH279080   1.992   2.904   3.337  0.1815  0.7983 -0.0140
19222TIP3    H179081   1.903   2.938   3.327  0.4734  1.2676 -1.1577
19222TIP3    H279082   2.049   2.977   3.312  0.9086  0.5895  0.9565
19223TIP3   OH279083   5.112   5.450   5.625  0.5840 -0.2698 -0.7683
19223TIP3    H179084   5.110   5.354   5.616  1.4921 -0.3597 -0.1479
19223TIP3    H279085   5.204   5.473   5.611  1.1184  0.1022  2.5232
19224TIP3   OH279086   5.132   4.711  12.867 -0.4369 -0.3555 -0.2041
19224TIP3    H179087   5.053   4.740  12.912 -0.1933  0.0960 -0.0524
19224TIP3    H279088   5.182   4.792  12.854  0.9643 -0.8863  1.5659
19225TIP3   OH279089   2.731   0.529  14.221  0.0211  0.1581 -0.1748
19225TIP3    H179090   2.713   0.623  14.222 -1.3400 -0.0767 -0.6359
19225TIP3    H279091   2.660   0.490  14.272  2.4004 -0.4012  3.0243
19226TIP3   OH279092   5.402   4.933   6.095  0.5980 -0.2711 -0.0490
19226TIP3    H179093   5.405   4.838   6.100 -0.0464 -0.3380 -0.7344
19226TIP3    H279094   5.309   4.954   6.097  0.6976  0.2795 -0.9497
19227TIP3   OH279095   2.001   2.677   3.950 -0.5235 -0.6045 -0.5765
19227TIP3    H179096   2.027   2.605   4.007 -0.6666 -0.4071 -0.2644
19227TIP3    H279097   1.921   2.647   3.907 -1.0185 -0.3235  0.1386
19228TIP3   OH279098   6.322   1.337  15.981 -0.2299 -0.9558  0.1375
19228TIP3    H179099   6.259   1.407  15.997  0.1216 -0.8015  0.9064
19228TIP3    H279100   6.309   1.313  15.890  0.4499  0.9026 -0.4914
19229TIP3   OH279101   1.762   3.875   5.962 -0.2739 -0.2607  0.2282
19229TIP3    H179102   1.840   3.923   5.934 -0.5379 -0.0522 -0.1624
19229TIP3    H279103   1.761   3.884   6.057  0.5392 -0.8197  0.2977
19230TIP3   OH279104   0.902   1.630  12.205  0.6538 -0.4762 -0.3439
19230TIP3    H179105   0.987   1.645  12.245  0.3123 -0.6633  0.4632
19230TIP3    H279106   0.913   1.658  12.114  1.2730  0.5058  0.0181
19231TIP3   OH279107   4.250   0.715   2.714 -0.4768 -0.0947 -0.0901
19231TIP3    H179108   4.325   0.763   2.749 -0.1175 -0.5028 -0.2953
19231TIP3    H279109   4.281   0.680   2.631 -1.1512  0.4010 -0.5553
19232TIP3   OH279110   2.338   0.930   1.127 -0.4405 -0.3729 -0.3698
19232TIP3    H179111   2.382   0.924   1.042 -2.2514  1.3892 -1.5125
19232TIP3    H279112   2.275   1.001   1.117 -1.6229 -0.9608  2.0695
19233TIP3   OH279113   4.623   1.160  16.623  0.0402 -0.1186  0.5739
19233TIP3    H179114   4.622   1.255  16.636 -1.9498 -0.3618  3.0480
19233TIP3    H279115   4.559   1.145  16.553  1.1988  0.4062 -0.6245
19234TIP3   OH279116   3.005   3.228   5.512 -0.0469  0.1926 -0.2325
19234TIP3    H179117   2.941   3.242   5.582 -0.3721  1.0519 -0.6932
19234TIP3    H279118   3.070   3.168   5.551  1.1895  2.5895  1.7025
19235TIP3   OH279119   4.614   5.450   4.283  0.0571  0.4745 -0.0039
19235TIP3    H179120   4.538   5.447   4.226 -0.8183 -0.3321  1.1464
19235TIP3    H279121   4.580   5.478   4.368  0.9940 -0.0843  0.5876
19236TIP3   OH279122   4.291   4.698  14.819  0.2292 -0.2339 -1.2247
19236TIP3    H179123   4.219   4.676  14.878  0.3730 -1.1219 -1.3698
19236TIP3    H279124   4.354   4.744  14.874 -1.2044  2.1916 -1.4610
19237TIP3   OH279125   0.141   4.867  10.884  0.4405  0.2026 -0.0930
19237TIP3    H179126   0.075   4.881  10.816 -0.1427  1.0978  0.6387
19237TIP3    H279127   0.216   4.919  10.855 -0.4882  2.2177  0.8592
19238TIP3   OH279128   3.857   5.470  15.648  0.0151 -0.4991 -0.2479
19238TIP3    H179129   3.804   5.409  15.698 -0.9463 -0.6701 -1.4360
19238TIP3    H279130   3.907   5.415  15.588  0.3213 -0.2255 -0.2499
19239TIP3   OH279131   3.510   4.588   1.780  0.4004  0.5393  0.5080
19239TIP3    H179132   3.538   4.630   1.861  1.2940  1.7132 -0.3627
19239TIP3    H279133   3.431   4.540   1.803  1.5714 -0.5872  2.4475
19240TIP3   OH279134   4.915   2.190   2.598 -0.4401  0.2300  0.3239
19240TIP3    H179135   4.840   2.185   2.539 -0.6321 -1.0861  0.6488
19240TIP3    H279136   4.990   2.203   2.540 -0.8643  1.1496 -0.0342
19241TIP3   OH279137   4.681   4.413   5.884  0.0890 -0.1881  0.0524
19241TIP3    H179138   4.725   4.427   5.968  0.4131  0.3307 -0.1988
19241TIP3    H279139   4.731   4.344   5.842  0.6220  0.3462 -0.1987
19242TIP3   OH279140   3.803   1.986  17.130  0.0664 -0.2592  0.2028
19242TIP3    H179141   3.896   1.965  17.130  0.3930  1.1019 -0.0859
19242TIP3    H279142   3.782   2.001  17.038 -0.0540  0.9538  0.4099
19243TIP3   OH279143   4.956   1.918   0.898 -0.1790 -0.6920 -0.0792
19243TIP3    H179144   4.909   1.852   0.849 -0.7993 -1.0309  0.9300
19243TIP3    H279145   4.949   1.998   0.845 -1.1013 -0.9677 -0.3866
19244TIP3   OH279146   6.249   0.200  13.676  0.3662  0.0637 -0.5231
19244TIP3    H179147   6.251   0.111  13.639  1.7240 -0.5588  0.9203
19244TIP3    H279148   6.157   0.214  13.699  0.1110 -0.9524 -0.8502
19245TIP3   OH279149   6.543   3.081  15.240 -0.4209 -0.1730 -0.0540
19245TIP3    H179150   6.522   3.013  15.176  1.5306 -1.4841  0.6239
19245TIP3    H279151   6.467   3.083  15.299 -0.8156 -1.2395 -0.5108
19246TIP3   OH279152   0.488   6.727   3.489 -0.3631  0.5668 -0.2286
19246TIP3    H179153   0.499   6.817   3.458  2.0932  1.6754  3.2945
19246TIP3    H279154   0.524   6.673   3.419 -1.6199  2.2336 -2.3020
19247TIP3   OH279155   6.457   6.726  11.727  0.3729 -0.0273  0.6409
19247TIP3    H179156   6.468   6.680  11.810  2.4623  0.3367  0.6028
19247TIP3    H279157   6.540   6.771  11.712 -0.0323  0.1347 -1.5240
19248TIP3   OH279158   1.892   1.422  13.755 -0.5344  0.1215 -0.1363
19248TIP3    H179159   1.798   1.417  13.743 -0.4775 -1.3979 -0.1389
19248TIP3    H279160   1.929   1.402  13.669 -0.2097  0.4978 -0.0895
19249TIP3   OH279161   5.815   4.075   4.647  0.0565 -0.1543 -0.1738
19249TIP3    H179162   5.892   4.023   4.667 -0.7604 -1.1387  0.4638
19249TIP3    H279163   5.741   4.022   4.675 -0.8159  1.3200  0.4346
19250TIP3   OH279164   1.122   4.907  11.710  0.3218  0.2079  0.0968
19250TIP3    H179165   1.083   4.993  11.727  0.8288  0.6589 -0.9322
19250TIP3    H279166   1.048   4.846  11.709 -0.1738  0.8080 -0.2672
19251TIP3   OH279167   1.089   1.644  14.706 -0.2512 -0.5824 -0.4230
19251TIP3    H179168   1.164   1.671  14.652 -0.5773  0.5179 -0.3625
19251TIP3    H279169   1.019   1.628  14.644 -0.0080 -1.4788 -0.4705
19252TIP3   OH279170   1.573   0.096  11.016  0.1647  0.4724 -0.3446
19252TIP3    H179171   1.617   0.162  11.069 -1.4370 -0.0881  1.8383
19252TIP3    H279172   1.620   0.096  10.932  0.2223  4.3302 -0.4624
19253TIP3   OH279173   1.798   1.186   4.656 -0.7724 -0.1148 -0.1865
19253TIP3    H179174   1.850   1.181   4.575  0.2836 -2.7030  0.5320
19253TIP3    H279175   1.853   1.234   4.717 -0.2137 -0.7915 -0.1376
19254TIP3   OH279176   0.421   2.467  13.086 -0.2539 -0.4454  0.2915
19254TIP3    H179177   0.480   2.449  13.013 -0.9416 -3.0551  0.2430
19254TIP3    H279178   0.472   2.445  13.164 -0.2544  0.0447  0.4272
19255TIP3   OH279179   6.406   3.919   2.441  0.0987  0.2314 -0.3550
19255TIP3    H179180   6.476   3.861   2.471 -1.3624 -1.9148 -0.8940
19255TIP3    H279181   6.447   3.973   2.374  1.3399 -0.6790 -0.3650
19256TIP3   OH279182   0.650   1.624  12.308  0.5415  0.8787  0.1591
19256TIP3    H179183   0.649   1.534  12.342  0.6412  0.1644 -1.6281
19256TIP3    H279184   0.734   1.632  12.264  0.2927  1.6670 -0.1844
19257TIP3   OH279185   1.936   6.539  11.540 -0.7647  0.0381  0.1740
19257TIP3    H179186   1.964   6.488  11.464 -3.1804  0.6274 -1.2271
19257TIP3    H279187   2.015   6.550  11.592  0.3648 -2.9805 -0.6835
19258TIP3   OH279188   0.807   0.982  12.668  0.1067 -0.1488 -0.2392
19258TIP3    H179189   0.733   1.029  12.628 -2.7186 -2.8341  1.3916
19258TIP3    H279190   0.817   0.903  12.616 -0.4606 -1.4127  1.5054
19259TIP3   OH279191   3.726   1.417  15.041 -0.1413 -0.8006 -0.1382
19259TIP3    H179192   3.668   1.492  15.054  0.2147 -0.7652  1.4190
19259TIP3    H279193   3.804   1.454  15.000  0.0370 -0.3183  0.6281
19260TIP3   OH279194   4.327   4.064   2.683 -0.1657  0.6349 -0.1094
19260TIP3    H179195   4.365   3.999   2.742 -0.0604 -1.0630 -1.9901
19260TIP3    H279196   4.349   4.035   2.595 -3.4153  1.0566 -1.2098
19261TIP3   OH279197   3.093   5.928   4.688 -0.3523 -0.0569 -0.1028
19261TIP3    H179198   3.134   6.014   4.695 -0.8602  0.1917 -0.1081
19261TIP3    H279199   3.153   5.869   4.734 -0.2250  0.3775  0.3033
19262TIP3   OH279200   2.796   5.754   5.035 -0.4335 -0.1760  0.0769
19262TIP3    H179201   2.709   5.755   5.074  0.1853  0.5650  1.5677
19262TIP3    H279202   2.788   5.700   4.957 -2.3424  0.3359 -0.1236
19263TIP3   OH279203   5.921   0.324  15.354  0.3023  0.5738  0.0062
19263TIP3    H179204   5.860   0.254  15.380  0.4284  0.7511  0.8169
19263TIP3    H279205   5.995   0.278  15.315  0.3345  0.2548  0.4316
19264TIP3   OH279206   2.305   6.087   2.565  0.2895  0.0647  0.0737
19264TIP3    H179207   2.239   6.022   2.588 -0.4726  0.9222  0.3885
19264TIP3    H279208   2.255   6.162   2.532  1.0452  0.9529  0.8527
19265TIP3   OH279209   5.782   2.046   1.078 -0.2793 -0.6538  0.4063
19265TIP3    H179210   5.856   2.087   1.034 -0.8426 -0.1287 -0.0752
19265TIP3    H279211   5.781   2.085   1.165 -1.0573  0.7136 -0.1785
19266TIP3   OH279212   0.831   0.246  11.140 -0.2082 -0.0059  0.7057
19266TIP3    H179213   0.834   0.217  11.049  0.9005 -1.2907  1.1207
19266TIP3    H279214   0.737   0.247  11.162 -0.5471  1.1343 -0.6730
19267TIP3   OH279215   1.456   5.551  13.016 -0.1642  0.3404 -0.2788
19267TIP3    H179216   1.508   5.596  12.950 -0.3018  0.8553 -0.0419
19267TIP3    H279217   1.518   5.493  13.061  0.0437  0.3921 -0.4981
19268TIP3   OH279218   3.901   4.918  11.515 -0.2296  0.2036 -0.2090
19268TIP3    H179219   3.907   5.012  11.533 -1.1254  0.0776  0.8127
19268TIP3    H279220   3.818   4.908  11.468 -1.2416 -0.3204  1.5905
19269TIP3   OH279221   4.280   1.080   2.804  0.1228 -0.2758  0.1250
19269TIP3    H179222   4.302   1.162   2.848  0.6599 -0.5633  0.4140
19269TIP3    H279223   4.185   1.077   2.804  0.0661  0.8454 -0.8236
19270TIP3   OH279224   5.943   6.410  16.302 -0.2155 -0.5444  0.5430
19270TIP3    H179225   5.904   6.391  16.216  1.3751 -1.5677 -0.0110
19270TIP3    H279226   5.879   6.379  16.365 -1.4352  0.2441 -0.2608
19271TIP3   OH279227   3.341   4.826   1.455  0.3578  0.0173 -0.1213
19271TIP3    H179228   3.383   4.868   1.379 -0.1094  0.4663 -0.1369
19271TIP3    H279229   3.341   4.894   1.522  0.6643 -0.3454  0.2461
19272TIP3   OH279230   5.099   0.553   2.122  0.0090 -0.6756  0.0957
19272TIP3    H179231   5.019   0.503   2.141  0.2655 -0.7423  1.0280
19272TIP3    H279232   5.131   0.582   2.207  0.1776  0.6261 -0.3784
19273TIP3   OH279233   2.622   1.308  13.727  0.0445 -0.0209  0.0565
19273TIP3    H179234   2.689   1.332  13.663 -0.5592 -0.1741 -0.6394
19273TIP3    H279235   2.540   1.313  13.680 -0.2063 -2.6340  0.0695
19274TIP3   OH279236   4.676   1.718  10.709  0.0660  0.4426  0.0181
19274TIP3    H179237   4.749   1.657  10.697  0.6039  1.3100 -1.2649
19274TIP3    H279238   4.682   1.778  10.635  0.3128  2.8681  1.8758
19275TIP3   OH279239   2.257   0.301  13.034  0.2753  0.3039 -0.1005
19275TIP3    H179240   2.345   0.286  13.069 -0.1352 -0.8219  0.5156
19275TIP3    H279241   2.223   0.376  13.083  0.1290 -0.5654  1.1732
19276TIP3   OH279242   0.716   2.445  15.105  0.8322 -0.1232 -0.0510
19276TIP3    H179243   0.741   2.353  15.097 -0.8045 -0.5146 -1.2247
19276TIP3    H279244   0.636   2.444  15.156  0.5272  0.5968 -0.4966
19277TIP3   OH279245   4.757   0.344  16.093  0.4377  0.0932  0.3826
19277TIP3    H179246   4.738   0.370  16.003 -0.0946 -0.1559  0.4190
19277TIP3    H279247   4.698   0.398  16.146  0.2471 -0.2644  0.5369
19278TIP3   OH279248   2.397   5.537  15.044  0.1433 -0.1561 -0.1581
19278TIP3    H179249   2.305   5.559  15.031  0.2775  0.8337  0.4688
19278TIP3    H279250   2.401   5.501  15.133  0.0974 -1.8541 -0.8034
19279TIP3   OH279251   0.805   4.682   0.336 -0.2281  0.1879  0.0153
19279TIP3    H179252   0.885   4.642   0.303  0.9839  0.8922  1.9304
19279TIP3    H279253   0.749   4.608   0.358  1.1705 -0.4768  1.5855
19280TIP3   OH279254   2.133   0.918  16.359 -0.4666  0.1421  0.0333
19280TIP3    H179255   2.220   0.915  16.319 -0.1837  2.3720  0.3566
19280TIP3    H279256   2.075   0.948  16.289 -1.0214 -1.3962 -0.1972
19281TIP3   OH279257   2.872   4.831  11.872 -0.0528  0.0043  0.5067
19281TIP3    H179258   2.929   4.863  11.942  0.5016  1.9870 -0.7909
19281TIP3    H279259   2.914   4.860  11.791 -0.5405 -2.4328 -0.7326
19282TIP3   OH279260   6.247   4.232  14.711 -0.3943  0.2275 -0.2727
19282TIP3    H179261   6.163   4.202  14.677  0.1478 -1.7112 -0.0079
19282TIP3    H279262   6.236   4.234  14.806  0.2056 -1.3028 -0.1419
19283TIP3   OH279263   2.395   6.730  12.763  0.2739 -0.1077 -0.2582
19283TIP3    H179264   2.305   6.708  12.785  0.6109 -1.6383 -0.2472
19283TIP3    H279265   2.388   6.796  12.694 -0.8893 -0.9853 -1.0279
19284TIP3   OH279266   4.747   5.831  15.599 -0.6420 -0.1387  0.7989
19284TIP3    H179267   4.769   5.745  15.637  1.1700  0.0259  0.2261
19284TIP3    H279268   4.799   5.835  15.519 -1.2743  1.1987  0.4355
19285TIP3   OH279269   5.807   2.311  16.556 -0.0681  0.5375  0.2043
19285TIP3    H179270   5.749   2.242  16.522 -1.7560  2.5925 -1.3630
19285TIP3    H279271   5.769   2.336  16.640  0.2957 -0.0848  0.5661
19286TIP3   OH279272   4.382   4.327   2.602 -0.1508  0.1118 -0.2210
19286TIP3    H179273   4.360   4.264   2.671 -0.4163  0.9291  0.4478
19286TIP3    H279274   4.372   4.277   2.521  2.9457 -1.7300  0.3912
19287TIP3   OH279275   6.090   2.336   2.394  0.2151  0.2508 -0.6755
19287TIP3    H179276   5.999   2.366   2.385  0.0651  0.0900  0.2091
19287TIP3    H279277   6.086   2.242   2.377 -0.5814 -0.6575  3.5828
19288TIP3   OH279278   6.190   2.250   1.670  0.0090  0.6460 -0.4828
19288TIP3    H179279   6.242   2.328   1.651 -0.0061  0.2466 -2.2671
19288TIP3    H279280   6.175   2.254   1.765  0.8235  2.2866 -0.3941
19289TIP3   OH279281   5.475   1.212  16.522 -0.1896  0.1674  0.3030
19289TIP3    H179282   5.531   1.288  16.537  1.9912 -1.3748  0.4438
19289TIP3    H279283   5.419   1.209  16.600  1.3085  0.3301  1.4379
19290TIP3   OH279284   4.118   3.835  12.425  0.5884  0.0112  0.3631
19290TIP3    H179285   4.150   3.750  12.455 -1.2683 -1.0851 -0.5457
19290TIP3    H279286   4.041   3.852  12.478 -0.5476 -0.1614 -1.1485
19291TIP3   OH279287   1.986   5.846   0.207 -0.6589  0.1338 -0.0039
19291TIP3    H179288   2.039   5.925   0.193 -1.3244  0.4407 -0.8776
19291TIP3    H279289   1.987   5.833   0.302 -0.4280  1.1143  0.1405
19292TIP3   OH279290   3.265   3.751  16.271 -0.0000 -0.1107  0.4210
19292TIP3    H179291   3.326   3.798  16.215  0.7465 -0.1451  1.1821
19292TIP3    H279292   3.180   3.759  16.227  0.7380 -1.0883 -1.3080
19293TIP3   OH279293   6.428   1.896   1.073 -0.1287 -0.1305 -0.2853
19293TIP3    H179294   6.514   1.875   1.035 -0.3513  0.7252 -1.3316
19293TIP3    H279295   6.439   1.882   1.167  0.4591 -2.3081 -0.6300
19294TIP3   OH279296   1.594   3.639   2.562  0.1979 -0.4042  0.2078
19294TIP3    H179297   1.640   3.630   2.645 -0.2408 -1.4835  0.3527
19294TIP3    H279298   1.657   3.681   2.504  1.2745 -1.5462  0.4920
19295TIP3   OH279299   3.734   6.654  17.158  0.2607 -0.0278 -0.4493
19295TIP3    H179300   3.658   6.642  17.215  2.1184 -0.8015  1.9985
19295TIP3    H279301   3.798   6.589  17.188  2.8131  2.1731 -0.7906
19296TIP3   OH279302   1.755   5.212  11.015 -0.8067  0.0140  0.6625
19296TIP3    H179303   1.747   5.292  10.962 -0.6611 -0.4961 -0.1367
19296TIP3    H279304   1.819   5.235  11.083  0.3221  0.1254 -0.4143
19297TIP3   OH279305   4.291   5.604  17.227  0.0894  0.4660  0.1906
19297TIP3    H179306   4.255   5.629  17.142 -0.9120  1.7387  0.9374
19297TIP3    H279307   4.384   5.591  17.211 -0.0602  0.7974 -1.0802
19298TIP3   OH279308   5.853   2.870  12.593  0.1888 -0.3684  0.3232
19298TIP3    H179309   5.845   2.831  12.680  2.3613 -2.8371 -0.4268
19298TIP3    H279310   5.773   2.844  12.548 -0.7127  0.4732  1.3947
19299TIP3   OH279311   3.762   3.224  16.625  0.0454  0.2162  0.8361
19299TIP3    H179312   3.673   3.192  16.640  0.2099 -0.6464  0.0598
19299TIP3    H279313   3.818   3.155  16.659  0.4082  0.0798 -0.0149
19300TIP3   OH279314   0.625   2.568   6.318 -0.4177 -0.4981  0.1054
19300TIP3    H179315   0.715   2.593   6.294 -0.0919 -1.0889  0.6900
19300TIP3    H279316   0.570   2.623   6.262  0.2853  0.6976  0.5549
19301TIP3   OH279317   4.246   3.388   3.280 -0.4993 -0.3033  0.1443
19301TIP3    H179318   4.253   3.347   3.366  1.2574  2.7610  1.6608
19301TIP3    H279319   4.152   3.401   3.267 -0.9018 -2.2778  0.7672
19302TIP3   OH279320   6.395   2.308   4.895  0.2107 -0.5140 -0.3582
19302TIP3    H179321   6.400   2.223   4.939 -1.6802  0.1598  1.3233
19302TIP3    H279322   6.366   2.368   4.963  0.9749  1.4082 -1.6409
19303TIP3   OH279323   4.584   1.981  11.877 -0.1869 -0.4210 -0.4108
19303TIP3    H179324   4.565   1.890  11.857 -1.8158  0.1270 -1.5610
19303TIP3    H279325   4.577   2.026  11.792  0.0249  0.8525  0.2222
19304TIP3   OH279326   1.259   4.866  13.667  0.1489 -0.2820 -0.0295
19304TIP3    H179327   1.231   4.806  13.736  3.7739  0.2725  2.1740
19304TIP3    H279328   1.247   4.953  13.705  1.9110  0.0437 -0.1380
19305TIP3   OH279329   6.655   5.407   5.319 -0.3964 -0.0794 -0.3856
19305TIP3    H179330   6.713   5.483   5.325 -1.5079  0.6738  3.4290
19305TIP3    H279331   6.575   5.441   5.279 -1.2932  1.2213  2.2645
19306TIP3   OH279332   4.427   1.907  16.494 -0.2013 -0.1915 -0.0163
19306TIP3    H179333   4.465   1.981  16.449  2.1053 -0.8978  0.6573
19306TIP3    H279334   4.434   1.929  16.587  0.1969 -1.0804  0.1794
19307TIP3   OH279335   2.030   4.956  12.716 -0.0192 -0.2508  0.6905
19307TIP3    H179336   1.977   5.019  12.668 -1.5040 -0.7380  1.6022
19307TIP3    H279337   2.088   4.918  12.650 -0.3153  0.8144 -0.2115
19308TIP3   OH279338   1.333   3.832   5.541 -0.1110  0.1929 -0.3019
19308TIP3    H179339   1.277   3.905   5.566 -0.0944  0.4643 -1.0292
19308TIP3    H279340   1.407   3.873   5.496  1.1353 -0.0833  1.3858
19309TIP3   OH279341   5.057   6.149  13.434  0.3424 -0.0527  1.0164
19309TIP3    H179342   5.115   6.155  13.510  0.6531 -1.6161  0.9318
19309TIP3    H279343   5.108   6.100  13.369 -1.5331 -2.8096  1.4603
19310TIP3   OH279344   1.097   2.778   6.252  0.8763  0.8091 -0.2462
19310TIP3    H179345   1.174   2.748   6.300 -0.3953 -2.0522  0.2440
19310TIP3    H279346   1.045   2.826   6.317  0.7312 -0.1287  0.3409
19311TIP3   OH279347   5.925   0.525   4.351 -0.3230 -0.1914 -0.1637
19311TIP3    H179348   6.004   0.546   4.401  0.7121 -4.1465  0.2261
19311TIP3    H279349   5.854   0.525   4.415  0.1548 -0.7111  0.3697
19312TIP3   OH279350   1.983   5.087   4.997 -0.4123 -0.6282 -0.1647
19312TIP3    H179351   2.004   5.056   5.085  0.5835 -0.5934 -0.3772
19312TIP3    H279352   1.902   5.137   5.008 -0.6178 -1.1147  0.6246
19313TIP3   OH279353   3.406   0.357   0.212 -0.3262 -0.0460 -0.1492
19313TIP3    H179354   3.376   0.401   0.292  0.6595  0.0207  0.1992
19313TIP3    H279355   3.494   0.325   0.235 -0.8118 -1.7565 -0.5455
19314TIP3   OH279356   2.790   5.223  13.094  0.2083  0.2862  0.1623
19314TIP3    H179357   2.836   5.140  13.090 -0.3454 -0.0025 -0.3441
19314TIP3    H279358   2.805   5.263  13.009  0.6420  0.8005  0.4754
19315TIP3   OH279359   3.215   3.673   5.367  0.0533  0.2034  0.0242
19315TIP3    H179360   3.154   3.607   5.400 -2.7201  2.3758 -0.4102
19315TIP3    H279361   3.241   3.641   5.281 -1.3619 -0.2663 -0.2463
19316TIP3   OH279362   5.373   1.947  15.072 -0.1036 -0.3350 -0.0890
19316TIP3    H179363   5.415   2.032  15.054 -2.1667  1.4501  2.7276
19316TIP3    H279364   5.353   1.950  15.166 -1.4450 -3.4272 -0.1773
19317TIP3   OH279365   3.111   3.950  13.611 -0.0184 -0.2006 -0.0407
19317TIP3    H179366   3.159   4.032  13.608  0.0454 -0.2610 -1.5173
19317TIP3    H279367   3.154   3.899  13.680  0.2869  0.7773  0.5117
19318TIP3   OH279368   5.860   6.694   3.946  0.2859 -0.6514 -0.2921
19318TIP3    H179369   5.807   6.634   3.998  0.8022 -1.6619 -0.9142
19318TIP3    H279370   5.800   6.765   3.924  0.3620  0.5073  2.7365
19319TIP3   OH279371   0.693   5.776  14.763  0.0021  0.0830  0.4613
19319TIP3    H179372   0.717   5.702  14.818  1.1194 -0.6112 -0.9048
19319TIP3    H279373   0.770   5.792  14.709 -1.0119  0.8222 -0.8147
19320TIP3   OH279374   3.647   4.960   5.369 -0.3304 -0.1069 -0.6155
19320TIP3    H179375   3.633   4.967   5.274  2.4969 -0.3549 -1.1229
19320TIP3    H279376   3.615   4.873   5.391  0.5818 -0.7364 -1.6870
19321TIP3   OH279377   3.482   0.662  15.044  0.3336  0.1511  0.4409
19321TIP3    H179378   3.476   0.591  15.107  0.8301 -0.4715 -0.2050
19321TIP3    H279379   3.507   0.738  15.096  2.4366 -0.7075  0.7789
19322TIP3   OH279380   6.250   3.314   4.425 -0.1309  0.1475 -0.3522
19322TIP3    H179381   6.170   3.366   4.422 -0.1870  0.0379 -1.1741
19322TIP3    H279382   6.222   3.228   4.457  0.0932  0.8178  1.7647
19323TIP3   OH279383   5.877   1.217  16.817 -0.1504 -0.7544 -0.2113
19323TIP3    H179384   5.786   1.243  16.828  0.1258 -0.4195  1.6562
19323TIP3    H279385   5.906   1.192  16.905  1.8792  0.2603 -0.5173
19324TIP3   OH279386   3.085   2.684   3.743 -0.0138  0.3083  0.1136
19324TIP3    H179387   3.158   2.746   3.749  2.3083 -2.0942 -1.1871
19324TIP3    H279388   3.066   2.679   3.649  0.2506 -1.3327  0.1235
19325TIP3   OH279389   1.245   6.166  11.115  0.3000 -0.0065  0.0818
19325TIP3    H179390   1.285   6.240  11.070 -0.2422  0.2038 -0.0687
19325TIP3    H279391   1.157   6.161  11.078  0.1378 -0.3624  0.5075
19326TIP3   OH279392   1.058   4.543   0.491  0.2766 -0.0037 -0.6603
19326TIP3    H179393   1.010   4.472   0.448 -0.2310 -0.9786  1.3799
19326TIP3    H279394   1.127   4.499   0.540  0.8822  1.0653 -0.5297
19327TIP3   OH279395   6.490   4.935  12.945  0.4745 -0.3612 -0.0238
19327TIP3    H179396   6.578   4.972  12.958  0.4036 -0.2673  0.1904
19327TIP3    H279397   6.506   4.846  12.914  0.6791 -1.2490  2.3981
19328TIP3   OH279398   5.185   1.482  13.132 -0.3748  0.3567 -0.0023
19328TIP3    H179399   5.166   1.495  13.225 -1.2114  1.2033 -0.2756
19328TIP3    H279400   5.276   1.511  13.122 -0.4314  0.7127  0.4606
19329TIP3   OH279401   4.451   3.864   4.836  0.4611 -0.3678 -0.1829
19329TIP3    H179402   4.440   3.781   4.882 -0.6655 -1.2045 -1.8659
19329TIP3    H279403   4.422   3.931   4.899 -0.7537 -1.4314  0.4224
19330TIP3   OH279404   0.714   0.100   0.036  0.8424  0.0840  0.2981
19330TIP3    H179405   0.681   0.187   0.013 -0.3845 -0.5387 -0.3952
19330TIP3    H279406   0.711   0.051  -0.046  0.7768 -0.8401  0.8378
19331TIP3   OH279407   6.189   1.734   1.508 -0.4664  0.2956  0.2872
19331TIP3    H179408   6.122   1.687   1.557  0.3408 -0.5049  0.6526
19331TIP3    H279409   6.200   1.816   1.555 -2.0079  0.9851 -0.4536
19332TIP3   OH279410   6.131   2.161  11.608 -0.0694  0.2962 -0.2020
19332TIP3    H179411   6.099   2.072  11.622 -0.5616  0.4384 -0.3960
19332TIP3    H279412   6.113   2.178  11.515 -0.4222  0.7675 -0.0489
19333TIP3   OH279413   3.870   0.146   3.854  0.0651 -0.6981  0.2927
19333TIP3    H179414   3.942   0.197   3.889 -0.3012  0.9100 -1.1708
19333TIP3    H279415   3.893   0.131   3.762 -1.1847 -0.6310 -0.0550
19334TIP3   OH279416   6.466   5.197  16.001  0.2516 -0.5472  0.1198
19334TIP3    H179417   6.529   5.148  16.054  1.3487  0.1821 -0.4728
19334TIP3    H279418   6.487   5.172  15.910 -1.7592 -1.9740 -0.0297
19335TIP3   OH279419   2.286   1.618  14.667  0.4102  0.5798  0.0420
19335TIP3    H179420   2.302   1.537  14.618 -0.0703  0.5105 -0.0026
19335TIP3    H279421   2.222   1.593  14.734  0.0297  0.9890 -0.1664
19336TIP3   OH279422   5.347   6.196   5.769 -0.2329  0.5277  0.0090
19336TIP3    H179423   5.291   6.214   5.693 -0.6955  0.7338  0.3944
19336TIP3    H279424   5.314   6.254   5.837 -1.0432 -0.9677  0.9372
19337TIP3   OH279425   4.308   6.178   2.026  0.2497  0.3246 -0.6433
19337TIP3    H179426   4.217   6.207   2.016  0.1628  0.0662 -0.6140
19337TIP3    H279427   4.308   6.089   1.992  0.7503  0.7367 -1.7462
19338TIP3   OH279428   2.984   5.221  11.770 -0.2379  0.6907  0.3182
19338TIP3    H179429   2.921   5.293  11.772  0.5498  1.4615 -1.3784
19338TIP3    H279430   2.980   5.184  11.858 -1.5083  2.0612  0.8782
19339TIP3   OH279431   4.991   3.567  15.481 -0.3103 -0.3398 -0.6531
19339TIP3    H179432   5.041   3.637  15.439 -2.7920  1.8287 -0.1823
19339TIP3    H279433   4.979   3.502  15.412  1.3173  0.0215 -1.3431
19340TIP3   OH279434   2.357   6.265   1.849  0.0987  0.0023 -0.1508
19340TIP3    H179435   2.323   6.259   1.760 -1.3232  0.3998  0.3360
19340TIP3    H279436   2.333   6.182   1.890  0.0013  0.1614  0.1142
19341TIP3   OH279437   4.583   6.092   1.398 -0.7763 -0.2261  0.1901
19341TIP3    H179438   4.641   6.039   1.453 -1.0862 -0.6177  0.1446
19341TIP3    H279439   4.504   6.039   1.389  0.3024 -1.4908 -3.0167
19342TIP3   OH279440   3.020   2.473  10.523  0.3617  0.2123  0.2650
19342TIP3    H179441   3.052   2.388  10.491  1.4269  1.0404 -0.9503
19342TIP3    H279442   2.997   2.522  10.444  1.2727  1.6327  0.8380
19343TIP3   OH279443   2.885   0.498  11.985  0.3398  1.0490  0.1729
19343TIP3    H179444   2.904   0.472  11.895 -1.0669 -1.2286  0.4566
19343TIP3    H279445   2.934   0.435  12.039 -2.5568 -0.7783  0.8979
19344TIP3   OH279446   6.573   0.158  15.169 -0.0859  0.1940  0.3041
19344TIP3    H179447   6.597   0.088  15.228 -0.5779 -0.5704 -0.3840
19344TIP3    H279448   6.556   0.115  15.085  0.5678  1.2421 -0.3952
19345TIP3   OH279449   6.384   4.343  10.229 -0.2176 -1.1491 -0.0680
19345TIP3    H179450   6.322   4.304  10.290 -0.2487 -2.4508 -0.8815
19345TIP3    H279451   6.346   4.327  10.142  0.2114 -0.0611 -0.4770
19346TIP3   OH279452   3.070   5.907  17.229 -0.3432 -0.0919  0.6490
19346TIP3    H179453   3.165   5.920  17.228 -0.3905  0.3416  1.1709
19346TIP3    H279454   3.042   5.942  17.314 -1.1547  1.0416 -0.0649
19347TIP3   OH279455   2.627   4.069  15.025  0.0861 -0.1645  0.4517
19347TIP3    H179456   2.685   4.061  15.101 -0.3115  0.5790  0.8446
19347TIP3    H279457   2.656   4.000  14.965 -0.1224 -1.3099  1.6204
19348TIP3   OH279458   0.837   4.180   4.966 -0.3742 -0.2500  0.1717
19348TIP3    H179459   0.855   4.267   4.930 -0.5417 -0.4430 -0.3772
19348TIP3    H279460   0.858   4.119   4.895  0.4537 -0.7126  0.7927
19349TIP3   OH279461   2.299   4.897   1.476 -0.3921 -0.1757 -0.7472
19349TIP3    H179462   2.309   4.808   1.440 -1.7158 -1.1567  1.1233
19349TIP3    H279463   2.386   4.919   1.511 -0.2582 -1.1242 -0.4508
19350TIP3   OH279464   3.863   0.124   2.683  0.4230  0.1154 -0.2304
19350TIP3    H179465   3.790   0.147   2.625  1.1449  0.3852 -1.0555
19350TIP3    H279466   3.822   0.105   2.767 -1.0309 -3.2284 -1.5165
19351TIP3   OH279467   0.365   3.064  16.044 -0.4494  0.0682  0.3958
19351TIP3    H179468   0.443   3.108  16.076 -0.9564  1.5788 -0.3274
19351TIP3    H279469   0.307   3.057  16.120  0.3040 -0.9328  0.9004
19352TIP3   OH279470   0.207   4.537   2.393 -0.1403  0.1531 -0.5269
19352TIP3    H179471   0.166   4.550   2.479  0.6257  1.4439 -0.3273
19352TIP3    H279472   0.217   4.442   2.385 -2.0227 -0.1194 -0.0619
19353TIP3   OH279473   2.782   3.703  17.134 -0.0130  0.3788 -0.5072
19353TIP3    H179474   2.838   3.694  17.211  2.2597  1.9536 -1.8582
19353TIP3    H279475   2.824   3.648  17.068 -2.3860 -1.6098 -0.4982
19354TIP3   OH279476   0.725   4.325   0.110  0.2586  0.3986  0.3496
19354TIP3    H179477   0.757   4.246   0.153 -0.8717  0.5590  1.5325
19354TIP3    H279478   0.657   4.358   0.168 -0.8562  1.0096 -1.2517
19355TIP3   OH279479   3.794   1.118  12.439 -0.5366 -0.5318  0.6387
19355TIP3    H179480   3.878   1.144  12.477 -1.5765  2.2765  1.3049
19355TIP3    H279481   3.758   1.055  12.501  0.2687 -0.3387  1.3249
19356TIP3   OH279482   5.651   5.402  11.007  0.2554  0.1083 -0.2595
19356TIP3    H179483   5.656   5.381  11.100  0.4039 -2.3219 -0.7414
19356TIP3    H279484   5.612   5.324  10.967  0.0918  1.1340 -2.2279
19357TIP3   OH279485   5.439   3.403   0.644 -0.1876 -0.2911  0.4193
19357TIP3    H179486   5.514   3.398   0.584  1.2206  0.5937  2.0202
19357TIP3    H279487   5.374   3.456   0.596  0.8453  0.3006 -0.3764
19358TIP3   OH279488   6.635   2.487  13.685  0.5458  0.8793  0.6370
19358TIP3    H179489   6.558   2.509  13.633 -0.2152 -1.1417  0.7972
19358TIP3    H279490   6.699   2.456  13.622 -0.7288 -2.5377  0.8126
19359TIP3   OH279491   3.712   6.360  16.694  0.1074 -0.3790  0.5889
19359TIP3    H179492   3.770   6.377  16.768  1.1852 -0.2199 -0.2723
19359TIP3    H279493   3.764   6.381  16.617 -1.0639 -0.3465 -0.2205
19360TIP3   OH279494   0.497   2.151  12.357 -0.3310  0.4086 -0.0510
19360TIP3    H179495   0.429   2.115  12.301 -0.6246  1.0627 -0.1182
19360TIP3    H279496   0.493   2.098  12.437 -2.0488  1.4900  0.6287
19361TIP3   OH279497   2.626   5.552   3.826  0.0294 -0.5223 -0.1723
19361TIP3    H179498   2.687   5.522   3.758 -1.4193 -1.1745 -1.2420
19361TIP3    H279499   2.609   5.474   3.879 -0.7689 -0.6584 -0.6099
19362TIP3   OH279500   0.219   1.254   3.911  0.1588  0.5568  0.0668
19362TIP3    H179501   0.133   1.223   3.882  0.8971 -1.1801 -0.4053
19362TIP3    H279502   0.209   1.269   4.004 -1.1086  2.0538 -0.2748
19363TIP3   OH279503   5.800   5.870   3.451 -0.0718  0.4784  0.1932
19363TIP3    H179504   5.773   5.941   3.393 -0.9664 -0.7016 -0.9163
19363TIP3    H279505   5.719   5.838   3.489  0.3826  0.4271  1.1304
19364TIP3   OH279506   2.847   0.680  15.208 -0.2538  0.1819 -0.0024
19364TIP3    H179507   2.879   0.766  15.178  3.0128 -0.5610  0.9145
19364TIP3    H279508   2.853   0.624  15.131  0.1013  0.1882  0.0198
19365TIP3   OH279509   2.675   0.929   2.365 -0.4149  0.0494 -0.0841
19365TIP3    H179510   2.751   0.940   2.422 -0.6523  0.3802  0.1731
19365TIP3    H279511   2.710   0.936   2.277 -0.2745  1.1781  0.0390
19366TIP3   OH279512   1.130   3.215  11.085 -0.3355 -0.4393 -0.3155
19366TIP3    H179513   1.087   3.241  11.004 -0.7859  0.2411  0.1316
19366TIP3    H279514   1.177   3.134  11.063 -2.3230 -1.5579 -0.6775
19367TIP3   OH279515   5.365   5.423   1.239 -0.5553 -0.6429 -0.1731
19367TIP3    H179516   5.308   5.372   1.182 -0.8725  0.0304 -0.4597
19367TIP3    H279517   5.305   5.464   1.302 -0.4786  0.6549 -0.9240
19368TIP3   OH279518   3.225   1.025   3.619 -0.1508 -0.3559 -0.3060
19368TIP3    H179519   3.299   1.086   3.626  0.4024 -0.7369 -2.2708
19368TIP3    H279520   3.169   1.047   3.693  0.6439  1.7181 -0.2494
19369TIP3   OH279521   5.233   1.814  16.147  0.3823  0.4650  0.2540
19369TIP3    H179522   5.151   1.857  16.172  0.7860  0.6724  1.3174
19369TIP3    H279523   5.212   1.721  16.143  0.7704  0.0716  3.9292
19370TIP3   OH279524   4.222   3.395   0.649 -0.1700  0.2722  0.1673
19370TIP3    H179525   4.204   3.465   0.712  0.1682  0.9092 -0.4349
19370TIP3    H279526   4.299   3.350   0.685 -0.9173 -0.3667  1.0158
19371TIP3   OH279527   1.253   2.286  13.153 -0.0688 -0.4424  0.3848
19371TIP3    H179528   1.273   2.303  13.061 -0.9850  1.7321  0.5328
19371TIP3    H279529   1.334   2.309  13.199 -0.7297  2.2072  0.4039
19372TIP3   OH279530   2.171   1.055   3.961  0.7856  0.0534  0.1901
19372TIP3    H179531   2.236   1.028   3.897 -0.1479  1.1347 -1.2629
19372TIP3    H279532   2.135   1.137   3.927  1.1159  1.3539  2.7072
19373TIP3   OH279533   3.438   2.977   6.505  0.0376  0.1877 -0.4485
19373TIP3    H179534   3.437   2.883   6.485  3.0933  0.1194 -0.7641
19373TIP3    H279535   3.366   2.989   6.567  1.1383 -2.8896  1.6736
19374TIP3   OH279536   4.346   5.394   6.071  0.3214 -0.2549  0.5245
19374TIP3    H179537   4.348   5.446   6.151  2.2912  0.6329 -0.0405
19374TIP3    H279538   4.400   5.317   6.091 -0.2689 -0.6988  0.4499
19375TIP3   OH279539   6.657   2.893   5.210  0.5152  0.6971 -0.3955
19375TIP3    H179540   6.632   2.887   5.302  0.8096 -1.4860 -0.3996
19375TIP3    H279541   6.574   2.888   5.162  0.4993 -0.9324 -0.2689
19376TIP3   OH279542   3.896   0.079   3.548  0.3851 -0.4192 -0.3596
19376TIP3    H179543   3.946   0.159   3.528  1.2717 -1.0790 -0.8571
19376TIP3    H279544   3.948   0.034   3.615 -2.2397  1.4609  3.2837
19377TIP3   OH279545   3.909   0.049   0.810 -0.8015  0.5157 -0.6106
19377TIP3    H179546   3.961   0.038   0.890  0.3307 -0.3652 -1.4260
19377TIP3    H279547   3.838   0.107   0.835  1.1951  2.7131  0.2860
19378TIP3   OH279548   2.084   6.376   6.144  0.2487 -0.0272  0.2407
19378TIP3    H179549   1.992   6.392   6.123 -0.0163 -1.2233  0.4360
19378TIP3    H279550   2.128   6.459   6.123 -0.5573 -0.0402 -1.7421
19379TIP3   OH279551   1.514   6.692   4.557 -0.4190 -0.9092  0.3967
19379TIP3    H179552   1.566   6.752   4.503 -1.9288 -3.2041 -4.2290
19379TIP3    H279553   1.454   6.748   4.606  0.8830  1.4363 -0.5373
19380TIP3   OH279554   5.873   0.281   0.422 -0.1481  0.2869 -0.6298
19380TIP3    H179555   5.908   0.214   0.480 -0.9337 -0.3019 -0.8202
19380TIP3    H279556   5.899   0.253   0.334 -0.5521  0.1832 -0.7182
19381TIP3   OH279557   6.413   0.093  12.214  0.0796 -0.3825 -0.2067
19381TIP3    H179558   6.324   0.092  12.179  0.3712 -0.9042 -0.9614
19381TIP3    H279559   6.455   0.167  12.169 -0.5011  1.0908  1.5641
19382TIP3   OH279560   2.495   1.315  11.619  0.3588  0.5243  0.6305
19382TIP3    H179561   2.451   1.400  11.619  0.5506  0.6493  2.0580
19382TIP3    H279562   2.443   1.261  11.560 -0.7773  1.1489  1.0260
19383TIP3   OH279563   5.005   3.950  12.038 -0.0868  0.1257 -0.4477
19383TIP3    H179564   5.080   4.001  12.008  1.4832 -1.4079  0.6545
19383TIP3    H279565   4.962   4.007  12.102  0.5719  0.7444 -0.5417
19384TIP3   OH279566   2.284   2.050   4.390 -0.7019 -0.1955  0.1906
19384TIP3    H179567   2.303   2.120   4.327 -0.2199  0.2052  0.7655
19384TIP3    H279568   2.267   2.096   4.473 -0.0934 -0.7695  0.6432
19385TIP3   OH279569   4.109   0.471  11.562  0.4547  0.0254  0.1894
19385TIP3    H179570   4.147   0.558  11.548  0.6963  0.1761  1.5767
19385TIP3    H279571   4.146   0.443  11.646  1.6763 -2.1426 -0.9857
19386TIP3   OH279572   1.964   1.069  11.740  0.3887 -0.3215 -0.4819
19386TIP3    H179573   1.880   1.043  11.778  1.2815 -1.9539  0.4978
19386TIP3    H279574   1.973   1.013  11.663  1.7196 -2.0737  0.8846
19387TIP3   OH279575   0.175   3.968  13.732 -0.5101  0.2055  0.6857
19387TIP3    H179576   0.148   3.881  13.703 -1.4927  0.4046  0.9580
19387TIP3    H279577   0.105   3.997  13.790 -0.2202  1.2025  0.5662
19388TIP3   OH279578   2.704   5.834  16.813 -0.3022 -0.2023 -0.3501
19388TIP3    H179579   2.655   5.785  16.747 -1.2978  0.2052  0.0553
19388TIP3    H279580   2.781   5.781  16.832 -1.2676 -1.5406 -0.0420
19389TIP3   OH279581   3.663   3.069  12.732 -0.4131  0.8687 -0.5184
19389TIP3    H179582   3.614   3.017  12.796 -2.8033  0.4681 -2.5117
19389TIP3    H279583   3.662   3.158  12.767  1.2671  0.1462  1.5642
19390TIP3   OH279584   2.490   2.703  14.019  0.7581  0.6008 -0.2799
19390TIP3    H179585   2.513   2.796  14.017  1.1278  0.5658  1.0958
19390TIP3    H279586   2.396   2.701  14.002  0.9173  1.1293 -1.3224
19391TIP3   OH279587   5.273   2.744  16.278 -0.3327  0.0499  0.0421
19391TIP3    H179588   5.327   2.780  16.348  0.5970 -2.0770  0.4975
19391TIP3    H279589   5.189   2.725  16.320 -0.3023  0.2240  0.1823
19392TIP3   OH279590   1.966   5.295  14.948 -0.1478 -0.3616  0.2711
19392TIP3    H179591   1.916   5.214  14.942 -0.3218 -0.1753 -1.0896
19392TIP3    H279592   2.058   5.267  14.947 -0.1854 -0.6380  1.7668
19393TIP3   OH279593   4.037   6.164  16.423 -0.2880  0.2179  0.1022
19393TIP3    H179594   4.121   6.126  16.447 -0.3085 -0.5523 -0.9674
19393TIP3    H279595   4.027   6.145  16.330 -2.6909 -1.8155  0.6472
19394TIP3   OH279596   6.252   2.037   2.528  0.2910  0.0486  0.1604
19394TIP3    H179597   6.235   1.983   2.605 -0.2482 -1.4251 -0.9322
19394TIP3    H279598   6.344   2.021   2.507 -0.0601 -1.1583 -0.6201
19395TIP3   OH279599   3.404   6.491   6.070 -0.5158 -0.0829 -0.3196
19395TIP3    H179600   3.322   6.499   6.118 -1.2830 -1.7914 -1.2501
19395TIP3    H279601   3.432   6.401   6.084  0.7709  0.2222 -0.7243
19396TIP3   OH279602   2.568   0.194   5.991  0.0221  0.6745  0.4234
19396TIP3    H179603   2.612   0.248   5.925 -2.1203  0.6999 -1.0956
19396TIP3    H279604   2.634   0.131   6.019  1.2507  1.2022 -1.1471
19397TIP3   OH279605   2.676   4.434   3.127  0.0804  0.0944  0.1428
19397TIP3    H179606   2.685   4.348   3.169  1.2606  0.8264  1.4836
19397TIP3    H279607   2.606   4.423   3.064 -0.0397 -1.7627  0.5522
19398TIP3   OH279608   3.707   5.222   1.011  0.0211  0.4639 -0.1735
19398TIP3    H179609   3.637   5.163   0.981 -0.0551  1.9129 -3.1440
19398TIP3    H279610   3.771   5.163   1.052 -1.0261 -1.4196 -1.0810
19399TIP3   OH279611   3.905   6.086   3.031  0.1815  0.2850 -0.0839
19399TIP3    H179612   3.916   5.998   3.065  0.5900  0.4272  0.1558
19399TIP3    H279613   3.985   6.132   3.055  0.1872  0.5822 -0.6415
19400TIP3   OH279614   3.127   5.923   0.757 -0.2072  0.9702 -0.3010
19400TIP3    H179615   3.046   5.891   0.796 -0.7301  0.0224 -2.0372
19400TIP3    H279616   3.193   5.859   0.782 -0.2100  1.1890  0.2700
19401TIP3   OH279617   3.458   3.226   2.198 -0.6071 -0.2185  0.0535
19401TIP3    H179618   3.543   3.261   2.174 -0.0005 -0.5995  1.5594
19401TIP3    H279619   3.400   3.252   2.126  0.4803  1.1889 -0.3507
19402TIP3   OH279620   6.056   2.286  14.353  0.1251 -0.4446  0.1451
19402TIP3    H179621   6.035   2.229  14.278 -0.0327  0.3988 -0.4684
19402TIP3    H279622   6.014   2.244  14.428 -1.8550 -0.0065 -0.6606
19403TIP3   OH279623   0.151   4.517  11.313 -0.1146  0.6836  0.6309
19403TIP3    H179624   0.175   4.533  11.404 -0.4640  0.4035  0.7781
19403TIP3    H279625   0.095   4.591  11.290  2.8511  2.7538 -0.5323
19404TIP3   OH279626   4.972   5.066   3.326 -0.0320  0.0646  0.0221
19404TIP3    H179627   5.036   5.064   3.398  0.0278 -0.5046 -0.0495
19404TIP3    H279628   5.002   5.139   3.271  0.3607  0.0162  0.1655
19405TIP3   OH279629   1.090   1.244  14.551 -0.0329 -0.0474 -0.1277
19405TIP3    H179630   1.172   1.274  14.591 -1.2551  1.2749  1.5110
19405TIP3    H279631   1.107   1.152  14.528  1.9989  0.2838 -0.1668
19406TIP3   OH279632   2.746   0.826  12.362 -0.4533  0.2114  0.0027
19406TIP3    H179633   2.664   0.803  12.405 -0.2951  0.6528  0.5444
19406TIP3    H279634   2.756   0.920  12.377 -0.1734  0.2876 -0.6240
19407TIP3   OH279635   0.609   0.523   6.516  0.2030 -0.2467  0.1388
19407TIP3    H179636   0.700   0.543   6.539  0.5277  1.6819 -2.3230
19407TIP3    H279637   0.560   0.601   6.544 -0.2258 -0.1565 -0.8179
19408TIP3   OH279638   3.017   0.237   5.639  0.3761  0.0144  0.1841
19408TIP3    H179639   2.972   0.279   5.713  0.6637 -0.1284  0.4405
19408TIP3    H279640   3.106   0.271   5.643  0.2780  0.3576 -0.3721
19409TIP3   OH279641   5.290   4.480  16.706 -0.3021  0.5614  0.7899
19409TIP3    H179642   5.318   4.428  16.631 -0.4525  1.1613  0.3144
19409TIP3    H279643   5.277   4.568  16.671  0.7168  1.1140  1.7467
19410TIP3   OH279644   3.889   5.971  13.439 -0.2739 -0.2228  0.2295
19410TIP3    H179645   3.796   5.995  13.436 -0.9073 -2.2185  1.7896
19410TIP3    H279646   3.922   6.009  13.520  0.4802  1.0049 -0.6162
19411TIP3   OH279647   6.290   4.539   6.186 -0.8362  0.1750 -0.3682
19411TIP3    H179648   6.377   4.579   6.185 -0.1416 -1.1449  1.4405
19411TIP3    H279649   6.230   4.612   6.200 -0.0623  1.1210 -1.7707
19412TIP3   OH279650   3.394   2.234  13.269  0.2421 -0.6887  0.0849
19412TIP3    H179651   3.477   2.203  13.306  0.3526 -1.1672 -0.5385
19412TIP3    H279652   3.384   2.184  13.187  1.1701  2.0009 -1.7882
19413TIP3   OH279653   2.695   3.897   2.403 -0.1987 -0.0140  0.3546
19413TIP3    H179654   2.654   3.873   2.320  1.9112 -0.4631 -0.6085
19413TIP3    H279655   2.650   3.844   2.468 -1.6990  0.1301 -0.5092
19414TIP3   OH279656   5.662   5.401  15.348 -0.4015  0.1965 -0.2511
19414TIP3    H179657   5.723   5.407  15.422 -0.0097  1.2480 -0.6382
19414TIP3    H279658   5.578   5.429  15.384 -0.5973 -0.9083  0.1945
19415TIP3   OH279659   0.644   4.150   3.892 -0.2511  0.1521  0.3412
19415TIP3    H179660   0.613   4.215   3.830  1.7047  0.8383  0.0018
19415TIP3    H279661   0.696   4.089   3.839  0.0691 -0.2079  1.0493
19416TIP3   OH279662   4.005   4.350   1.954  0.0711 -0.2110 -0.2624
19416TIP3    H179663   4.058   4.298   2.014 -0.8828 -0.8056  0.0953
19416TIP3    H279664   3.954   4.286   1.905 -1.9229  0.3760  0.9348
19417TIP3   OH279665   3.834   1.412  13.832 -0.2016  0.1979 -0.5515
19417TIP3    H179666   3.893   1.483  13.809  1.9054 -1.0304  0.7104
19417TIP3    H279667   3.772   1.450  13.894  0.1534  1.2109 -0.8087
19418TIP3   OH279668   4.999   2.121   4.045  0.2686 -0.1320 -0.3167
19418TIP3    H179669   4.927   2.183   4.031 -0.3879 -0.7091  0.3582
19418TIP3    H279670   5.016   2.084   3.958 -2.8363 -2.7094 -0.0159
19419TIP3   OH279671   4.618   4.257   0.197  0.2202  0.6027 -0.1447
19419TIP3    H179672   4.596   4.346   0.169 -1.0522  0.3873  0.1147
19419TIP3    H279673   4.667   4.221   0.124 -1.7880  0.5464 -1.5381
19420TIP3   OH279674   2.662   6.501  16.448  0.3939 -0.0052  0.1833
19420TIP3    H179675   2.630   6.432  16.390 -0.3055 -0.9757  1.6527
19420TIP3    H279676   2.631   6.475  16.535  1.3134  1.4469  0.9818
19421TIP3   OH279677   2.884   0.742   0.148  0.4271  0.2251 -0.3698
19421TIP3    H179678   2.948   0.671   0.156 -0.1751 -0.2112  0.9526
19421TIP3    H279679   2.803   0.698   0.121  0.6974  0.8000 -2.2608
19422TIP3   OH279680   4.387   2.912   1.411  0.2725 -0.0278 -0.2836
19422TIP3    H179681   4.362   2.879   1.325 -0.3177  0.2618 -0.2255
19422TIP3    H279682   4.469   2.866   1.432 -0.7773 -1.8428  0.0183
19423TIP3   OH279683   4.240   0.300   4.862 -0.5548  0.3095 -0.1583
19423TIP3    H179684   4.191   0.232   4.908  2.0718 -1.4942  0.1985
19423TIP3    H279685   4.227   0.280   4.769 -2.0907  1.1186 -0.1458
19424TIP3   OH279686   5.215   0.324   5.008  0.5704  0.0053 -0.1721
19424TIP3    H179687   5.244   0.402   4.961 -0.0046 -1.2593 -2.8108
19424TIP3    H279688   5.134   0.351   5.051  0.1369  0.7960 -1.4208
19425TIP3   OH279689   3.807   6.317   0.748 -0.0281  0.0980 -0.4475
19425TIP3    H179690   3.826   6.391   0.690  0.1621 -0.1469 -0.6974
19425TIP3    H279691   3.890   6.299   0.792  0.4927 -1.3061 -1.9186
19426TIP3   OH279692   1.627   2.979  12.308 -0.1438  0.1239  0.2570
19426TIP3    H179693   1.641   2.986  12.213  1.2125  1.2055  0.5064
19426TIP3    H279694   1.571   3.053  12.330  1.6391  1.4360  0.6335
19427TIP3   OH279695   1.351   4.677  13.241  0.1443 -0.1213 -0.3104
19427TIP3    H179696   1.306   4.743  13.294  0.1528 -2.6799  3.2704
19427TIP3    H279697   1.442   4.683  13.269  0.2633 -1.1756 -0.4441
19428TIP3   OH279698   4.557   1.885  16.230  0.2660  0.3634 -0.2728
19428TIP3    H179699   4.542   1.979  16.241  0.5963  0.3012  0.8136
19428TIP3    H279700   4.630   1.865  16.288 -0.0937 -0.6502 -0.1476
19429TIP3   OH279701   0.919   4.019   1.651  0.4408  0.5133 -0.1057
19429TIP3    H179702   0.871   3.964   1.589  1.4888  1.0325 -1.4396
19429TIP3    H279703   1.001   4.041   1.606  1.0908  1.2184  1.3334
19430TIP3   OH279704   6.286   1.932  12.989 -0.2258  0.2472  0.1117
19430TIP3    H179705   6.379   1.912  12.996 -0.0793  0.7482 -0.3213
19430TIP3    H279706   6.244   1.871  13.049  0.2520 -0.8923 -0.6696
19431TIP3   OH279707   3.604   0.917  17.059 -0.1179 -0.1260  0.5794
19431TIP3    H179708   3.566   0.957  17.137 -1.2869 -2.0845  1.1082
19431TIP3    H279709   3.696   0.945  17.059 -0.8225  2.3721  0.9157
19432TIP3   OH279710   2.466   2.721   4.857 -0.0017 -0.0741 -0.3031
19432TIP3    H179711   2.377   2.691   4.875  0.1307 -1.4335 -1.6349
19432TIP3    H279712   2.459   2.816   4.851 -1.3365 -0.1494 -0.1991
19433TIP3   OH279713   0.643   3.589  12.746 -0.4592 -0.1581  0.3661
19433TIP3    H179714   0.727   3.628  12.770 -0.6871  0.3063  0.4284
19433TIP3    H279715   0.652   3.568  12.653 -0.8222  1.3858 -0.0500
19434TIP3   OH279716   1.314   5.362  15.202  0.0990  0.3711 -0.2009
19434TIP3    H179717   1.328   5.370  15.296  0.6950  1.9391 -0.3935
19434TIP3    H279718   1.346   5.275  15.180  3.2521  1.2398  0.5033
19435TIP3   OH279719   3.334   4.495  15.927  0.0988  0.9752  0.0998
19435TIP3    H179720   3.376   4.550  15.993  0.2360  0.5471  0.3676
19435TIP3    H279721   3.407   4.460  15.875  0.1733 -0.5917  1.1944
19436TIP3   OH279722   2.113   2.420   0.977  0.0495 -0.1303  0.4486
19436TIP3    H179723   2.117   2.476   0.900 -2.3128 -1.1806 -0.5486
19436TIP3    H279724   2.204   2.412   1.007  0.7484  2.0141 -0.9346
19437TIP3   OH279725   5.689   2.928  15.414  0.2126 -0.4124  0.3378
19437TIP3    H179726   5.620   2.992  15.396 -0.0546 -0.7955 -0.0074
19437TIP3    H279727   5.743   2.926  15.335  0.8968  0.2210  0.7761
19438TIP3   OH279728   3.560   3.127  15.477  0.6674 -0.1599 -0.6456
19438TIP3    H179729   3.544   3.043  15.520 -0.2491 -1.2232 -2.9016
19438TIP3    H279730   3.487   3.183  15.504 -0.4605 -1.1395 -1.6003
19439TIP3   OH279731   5.422   1.319  11.143  0.0636 -0.0227 -0.4290
19439TIP3    H179732   5.403   1.259  11.070 -0.1327 -0.6875  0.1574
19439TIP3    H279733   5.340   1.365  11.158  0.3514  0.7711 -1.2064
19440TIP3   OH279734   1.227   4.175  13.149  0.1955 -0.7334  1.0262
19440TIP3    H179735   1.303   4.221  13.113 -0.6200 -0.4719 -0.4403
19440TIP3    H279736   1.175   4.244  13.191 -0.2699 -0.5341  0.1549
19441TIP3   OH279737   2.369   5.677  13.462  0.2859 -0.0195  0.3715
19441TIP3    H179738   2.393   5.662  13.371  0.0209  2.4514 -0.1621
19441TIP3    H279739   2.274   5.665  13.463  0.3716 -0.7916  0.5294
19442TIP3   OH279740   0.430   5.711   4.704  0.1442 -0.8399  0.4330
19442TIP3    H179741   0.450   5.727   4.797 -2.2744  1.3002  0.6940
19442TIP3    H279742   0.516   5.701   4.663  1.4118  0.6704  2.5062
19443TIP3   OH279743   6.174   2.126  16.139  0.0189 -0.3299  0.4688
19443TIP3    H179744   6.086   2.105  16.108  0.3144  0.4499 -0.9875
19443TIP3    H279745   6.161   2.198  16.202 -0.5491 -1.6653  1.9441
19444TIP3   OH279746   6.187   5.345  15.189 -0.0339 -0.1627 -0.2228
19444TIP3    H179747   6.115   5.305  15.238  0.2617  0.0657  0.4062
19444TIP3    H279748   6.266   5.308  15.227  0.2469  0.9440  0.3290
19445TIP3   OH279749   2.099   2.575  15.093  0.2835  0.4441  0.2155
19445TIP3    H179750   2.075   2.490  15.056 -2.6531  1.7999 -1.3822
19445TIP3    H279751   2.144   2.620  15.021  1.4940  0.4365  0.9372
19446TIP3   OH279752   2.223   3.336   0.773  0.2143 -0.3174 -0.1546
19446TIP3    H179753   2.178   3.409   0.816  0.8662 -0.6830  1.1986
19446TIP3    H279754   2.231   3.364   0.682  0.0282  1.0976  0.2333
19447TIP3   OH279755   2.638   0.800  14.471 -0.7635 -0.7774  0.4807
19447TIP3    H179756   2.553   0.770  14.503 -1.6799  1.7812  0.7025
19447TIP3    H279757   2.626   0.811  14.377 -1.1946  0.9869  0.7146
19448TIP3   OH279758   5.008   0.945   6.618 -0.0958  0.4276  0.2466
19448TIP3    H179759   5.076   0.880   6.601 -0.3200 -0.1450  1.4333
19448TIP3    H279760   5.031   1.019   6.561  0.5094 -0.4354 -0.6720
19449TIP3   OH279761   6.307   5.895   5.131  0.5143  0.1019  0.3035
19449TIP3    H179762   6.274   5.825   5.074 -0.6426 -0.4364  1.5791
19449TIP3    H279763   6.276   5.976   5.090 -1.4585 -0.3413  0.8344
19450TIP3   OH279764   3.878   1.513  12.331  0.6289  0.6529 -0.3589
19450TIP3    H179765   3.944   1.469  12.384  0.8758  0.3454 -0.9095
19450TIP3    H279766   3.923   1.591  12.296  0.3446  1.0763  0.2067
19451TIP3   OH279767   2.037   4.515   5.393 -0.3609  0.4318 -0.8522
19451TIP3    H179768   2.092   4.593   5.393 -1.4802  1.2579  0.1207
19451TIP3    H279769   2.018   4.498   5.301  0.2304  1.0575 -1.0938
19452TIP3   OH279770   2.287   3.085  13.906 -0.2086  0.3569 -0.1228
19452TIP3    H179771   2.227   3.101  13.834 -0.1062 -2.4628 -0.9472
19452TIP3    H279772   2.234   3.093  13.985 -0.7633  1.5904 -0.6069
19453TIP3   OH279773   1.690   3.568  15.239 -0.5207  0.0184 -0.0231
19453TIP3    H179774   1.759   3.551  15.175 -1.2202 -2.5536 -0.1965
19453TIP3    H279775   1.736   3.578  15.322  0.0998 -2.1125 -0.0598
19454TIP3   OH279776   5.006   4.326   1.592 -0.5912  1.2703  0.1390
19454TIP3    H179777   5.082   4.267   1.589  0.0201  2.0266  0.2724
19454TIP3    H279778   4.999   4.359   1.502 -1.1013  0.7887  0.0005
19455TIP3   OH279779   2.775   2.592   3.646 -0.5387  0.5706  0.4576
19455TIP3    H179780   2.695   2.644   3.651 -0.8578  0.1813 -0.4562
19455TIP3    H279781   2.838   2.649   3.602 -0.8638  0.2397 -0.4672
19456TIP3   OH279782   1.305   4.993  12.678  0.1025 -0.2007  0.3051
19456TIP3    H179783   1.346   5.054  12.616 -0.2124  0.5549  0.8229
19456TIP3    H279784   1.364   4.991  12.753  0.2856 -0.8120  0.1517
19457TIP3   OH279785   3.418   4.245   4.656  0.5735  0.3100  0.0944
19457TIP3    H179786   3.368   4.212   4.731  0.0627 -0.7283 -0.6743
19457TIP3    H279787   3.486   4.301   4.695 -1.2012  1.8553  1.1854
19458TIP3   OH279788   4.484   5.287  15.652 -0.6883  0.1828  0.3140
19458TIP3    H179789   4.569   5.325  15.629 -0.8823  1.4502  1.5608
19458TIP3    H279790   4.462   5.230  15.578  1.4445 -0.5178  0.1539
19459TIP3   OH279791   3.424   6.732  15.211  0.0590  0.3218  0.1984
19459TIP3    H179792   3.511   6.731  15.253 -0.2371  2.8638  1.0274
19459TIP3    H279793   3.363   6.743  15.284 -1.0165 -1.3078 -0.3984
19460TIP3   OH279794   6.553   0.228   4.067 -0.2976 -0.4168  0.3907
19460TIP3    H179795   6.619   0.272   4.013 -1.2225 -0.1073 -0.5061
19460TIP3    H279796   6.493   0.187   4.005 -2.4688  1.5114  1.0298
19461TIP3   OH279797   4.009   2.116   4.468 -0.1037 -0.1894 -0.3570
19461TIP3    H179798   3.959   2.038   4.441  0.6645 -0.7959 -0.0849
19461TIP3    H279799   4.099   2.084   4.476  0.5902  1.1782 -2.1506
19462TIP3   OH279800   6.582   3.361  15.290 -0.6999 -0.4366 -0.0592
19462TIP3    H179801   6.647   3.369  15.220 -1.1005 -2.0640 -0.6802
19462TIP3    H279802   6.530   3.285  15.265 -1.8977 -0.0700  1.1983
19463TIP3   OH279803   0.400   1.347   5.403 -0.0037 -0.0201  0.7616
19463TIP3    H179804   0.367   1.284   5.339 -0.3374  1.4469 -0.5923
19463TIP3    H279805   0.321   1.384   5.442 -0.0998  2.5656 -1.5536
19464TIP3   OH279806   2.023   1.068   3.589  0.0543  0.0383  0.3281
19464TIP3    H179807   1.948   1.030   3.543  0.7075 -0.3529 -0.4365
19464TIP3    H279808   2.055   0.997   3.645  1.9590 -1.0256 -1.9177
19465TIP3   OH279809   1.306   2.104   5.834  0.1078  0.3308  0.1411
19465TIP3    H179810   1.370   2.060   5.778 -1.0318 -1.7424  0.3900
19465TIP3    H279811   1.358   2.148   5.901  1.4193  1.6426 -1.6294
19466TIP3   OH279812   3.901   0.290  16.609  0.1942 -0.8584 -0.5395
19466TIP3    H179813   3.888   0.317  16.700 -0.3789  0.1988 -0.9142
19466TIP3    H279814   3.942   0.366  16.567 -0.4504 -0.9618 -1.3794
19467TIP3   OH279815   6.193   5.069  16.508  0.9951  0.0493  0.1696
19467TIP3    H179816   6.240   5.077  16.591 -0.2608  1.5185  0.7797
19467TIP3    H279817   6.120   5.010  16.526  0.1961  1.0861  0.3671
19468TIP3   OH279818   4.161   4.201  12.542  0.2826  0.2797 -0.7437
19468TIP3    H179819   4.139   4.152  12.621  0.5480 -1.8644 -1.9097
19468TIP3    H279820   4.256   4.216  12.549 -0.0301  2.0387  0.3129
19469TIP3   OH279821   6.255   3.103   3.678  0.4078  0.3478  0.2390
19469TIP3    H179822   6.245   3.144   3.591  0.9804 -0.2325 -0.1084
19469TIP3    H279823   6.328   3.150   3.718 -0.5520  1.3529  0.8571
19470TIP3   OH279824   5.874   0.194   3.370 -0.2215  0.0786  0.0584
19470TIP3    H179825   5.925   0.118   3.343 -1.3671 -0.7004  0.0204
19470TIP3    H279826   5.924   0.233   3.442  0.7849 -0.2261 -0.4615
19471TIP3   OH279827   1.749   4.814   6.278  0.1181 -0.1893 -0.0717
19471TIP3    H179828   1.725   4.891   6.226  0.7590  0.8510  1.1043
19471TIP3    H279829   1.666   4.777   6.306 -0.1967  0.2009 -0.4711
19472TIP3   OH279830   5.390   1.455   5.599  0.0787 -0.2067  0.1686
19472TIP3    H179831   5.485   1.453   5.587  0.1047  1.2620 -0.0384
19472TIP3    H279832   5.378   1.437   5.693  0.5306 -0.7699  0.1224
19473TIP3   OH279833   4.831   3.839  15.245  0.6461  0.9370 -0.3985
19473TIP3    H179834   4.918   3.878  15.233  1.5718 -0.1600  2.0805
19473TIP3    H279835   4.836   3.755  15.198  1.3009  0.4357  0.5355
19474TIP3   OH279836   1.255   6.356   3.467  0.1804  0.1915 -0.2055
19474TIP3    H179837   1.204   6.339   3.546 -1.1465  2.3392 -0.5188
19474TIP3    H279838   1.192   6.348   3.395  0.9122  0.2390 -0.8749
19475TIP3   OH279839   3.195   0.135   2.754  0.1398 -0.4887 -0.3796
19475TIP3    H179840   3.186   0.140   2.849 -0.3831 -1.2226 -0.3817
19475TIP3    H279841   3.250   0.058   2.738 -2.6370 -2.5307 -0.7628
19476TIP3   OH279842   4.072   5.080  10.890  0.0110  0.1246  0.1500
19476TIP3    H179843   4.134   5.145  10.923  1.7202 -0.4594 -1.6772
19476TIP3    H279844   4.114   4.996  10.909  0.4185 -0.2493 -2.1268
19477TIP3   OH279845   6.147   6.487   3.254 -0.1463 -0.4888 -0.8670
19477TIP3    H179846   6.235   6.489   3.216 -0.4849  1.9538 -1.7281
19477TIP3    H279847   6.131   6.395   3.272  1.6390 -1.3053 -2.9621
19478TIP3   OH279848   6.591   6.555  15.846  0.4506  0.2929 -0.3377
19478TIP3    H179849   6.613   6.487  15.782 -0.4027 -0.4766  0.1711
19478TIP3    H279850   6.665   6.615  15.843  2.3116 -1.8257  0.8387
19479TIP3   OH279851   6.152   2.631  10.974  0.0551  0.0702  0.1992
19479TIP3    H179852   6.237   2.673  10.985 -0.0683  0.1849  0.7097
19479TIP3    H279853   6.104   2.689  10.915 -0.6723  1.4829  2.0791
19480TIP3   OH279854   4.953   0.218   5.297 -0.1990  0.2832 -0.1479
19480TIP3    H179855   4.958   0.124   5.313 -0.3352 -0.0733 -1.9432
19480TIP3    H279856   4.981   0.259   5.379 -0.8623 -1.3029  0.9032
19481TIP3   OH279857   0.693   3.639   2.895 -0.1966  0.1489 -0.1212
19481TIP3    H179858   0.765   3.576   2.898  0.0803  0.3654 -1.4202
19481TIP3    H279859   0.691   3.677   2.983  1.2509  0.1120 -0.0381
19482TIP3   OH279860   0.927   5.237   5.723 -0.0471  0.3773  0.1696
19482TIP3    H179861   0.831   5.237   5.717 -0.0848 -1.2319  0.5474
19482TIP3    H279862   0.949   5.153   5.762  1.6696 -0.2230 -1.9414
19483TIP3   OH279863   5.870   1.970  16.105 -0.1089 -0.0654 -0.0577
19483TIP3    H179864   5.918   1.888  16.117  0.0298 -0.0073 -0.2111
19483TIP3    H279865   5.864   2.007  16.194 -2.9893 -1.7728  0.5839
19484TIP3   OH279866   0.698   4.361   1.081 -0.7781  0.4531  0.3209
19484TIP3    H179867   0.710   4.326   1.169  1.3058  0.6801  0.1876
19484TIP3    H279868   0.713   4.286   1.023  0.4475  0.8156  0.1273
19485TIP3   OH279869   5.867   2.135  11.336  0.4478 -0.2833  0.5418
19485TIP3    H179870   5.815   2.065  11.377  0.1861  0.5006  1.5956
19485TIP3    H279871   5.949   2.092  11.313 -0.3151 -1.3347 -0.3441
19486TIP3   OH279872   3.344   0.825  10.942  0.3469 -0.1003  0.7057
19486TIP3    H179873   3.389   0.902  10.908 -0.9327  0.7374  0.8515
19486TIP3    H279874   3.265   0.818  10.889 -0.8874  0.2870  2.3891
19487TIP3   OH279875   1.759   4.924   4.695  0.5257 -0.4689 -0.6386
19487TIP3    H179876   1.703   4.911   4.771  1.2991 -1.7408 -0.2655
19487TIP3    H279877   1.766   5.019   4.687 -0.4348 -0.3091  0.2230
19488TIP3   OH279878   2.997   3.651  14.912 -0.2575  0.0483  0.6013
19488TIP3    H179879   3.000   3.590  14.986 -2.7779  2.0361  2.4999
19488TIP3    H279880   3.088   3.657  14.883  0.5460 -2.1524  2.3660
19489TIP3   OH279881   1.803   4.928   1.586  0.2323 -0.1937  0.2602
19489TIP3    H179882   1.820   4.835   1.603 -1.2394 -0.1311  2.5974
19489TIP3    H279883   1.720   4.929   1.538 -0.6549 -0.0969  1.7264
19490TIP3   OH279884   2.909   5.816  14.872 -1.0347 -0.1905 -0.0138
19490TIP3    H179885   2.876   5.778  14.953 -2.3920  1.8378  0.4737
19490TIP3    H279886   2.981   5.873  14.900 -0.9724 -0.1132 -0.3277
19491TIP3   OH279887   4.480   2.768   3.582 -0.1660 -0.1935  0.2624
19491TIP3    H179888   4.453   2.763   3.674  1.9298 -0.1306  0.9146
19491TIP3    H279889   4.486   2.676   3.555 -1.5366 -0.2103 -0.0934
19492TIP3   OH279890   1.392   6.502  12.226 -0.1208 -0.1649 -0.1530
19492TIP3    H179891   1.355   6.417  12.203 -1.8767  0.5713 -0.1467
19492TIP3    H279892   1.318   6.553  12.256  0.9974  1.2221  0.3428
19493TIP3   OH279893   5.041   1.043   5.415  0.2964 -0.1563 -0.2261
19493TIP3    H179894   5.049   1.104   5.341  1.0666 -0.4828 -0.4245
19493TIP3    H279895   5.120   1.059   5.467  0.5438 -1.0196 -0.3181
19494TIP3   OH279896   5.179   3.255  16.667 -0.6331 -0.6834 -0.1629
19494TIP3    H179897   5.159   3.329  16.610 -1.8830 -0.1290  0.9203
19494TIP3    H279898   5.098   3.240  16.716 -0.3909 -2.7271 -0.2813
19495TIP3   OH279899   6.006   4.813   5.488  0.3358  0.3809  0.4645
19495TIP3    H179900   6.048   4.780   5.567  0.6366 -1.8800 -0.5773
19495TIP3    H279901   5.932   4.865   5.520  0.2622 -0.7324  2.2158
19496TIP3   OH279902   1.752   4.440  15.579  0.5834 -0.2789 -0.5972
19496TIP3    H179903   1.779   4.491  15.656  1.1797 -0.9631 -0.3474
19496TIP3    H279904   1.811   4.469  15.509 -0.1884  0.6014 -0.9050
19497TIP3   OH279905   1.630   3.194  15.502 -0.0112  0.1858  0.0616
19497TIP3    H179906   1.611   3.130  15.572  0.6708  0.6426  0.6779
19497TIP3    H279907   1.579   3.163  15.427 -1.0691 -0.1054  0.8749
19498TIP3   OH279908   1.726   1.301  16.589  0.6681  0.1343 -0.0480
19498TIP3    H179909   1.754   1.211  16.573  2.7701  0.7316 -0.1236
19498TIP3    H279910   1.713   1.338  16.502 -4.9186 -1.2464 -0.1727
19499TIP3   OH279911   2.821   6.038   0.013 -0.3738  0.0622 -0.1498
19499TIP3    H179912   2.879   6.069  -0.056 -0.1811 -1.4651 -0.7137
19499TIP3    H279913   2.762   5.976  -0.030  0.2902 -1.5770  1.1620
19500TIP3   OH279914   6.012   4.139  16.718  0.1534  0.2277 -0.5823
19500TIP3    H179915   5.926   4.178  16.700  0.1038  0.0068 -0.8401
19500TIP3    H279916   6.005   4.106  16.808  0.4599  1.5049 -0.0760
19501TIP3   OH279917   3.344   1.700   3.524 -0.0029  0.3952 -0.0070
19501TIP3    H179918   3.430   1.699   3.482  0.2767 -0.7115  0.5456
19501TIP3    H279919   3.362   1.699   3.618 -0.5428 -2.3641  0.1562
19502TIP3   OH279920   6.677   1.123   1.308  0.1527  0.3418  0.3165
19502TIP3    H179921   6.760   1.117   1.259 -1.8283 -0.2667 -3.3170
19502TIP3    H279922   6.656   1.033   1.331  0.0082  0.3712  0.3011
19503TIP3   OH279923   2.308   2.363  16.179  0.0775 -0.0379  0.5856
19503TIP3    H179924   2.279   2.450  16.208 -0.0606  0.6327 -1.3833
19503TIP3    H279925   2.342   2.321  16.258 -0.2652  1.6353  1.6739
19504TIP3   OH279926   5.353   4.541  16.965  0.3140 -0.0583 -0.1610
19504TIP3    H179927   5.300   4.481  17.017 -2.0845  2.1919  0.2189
19504TIP3    H279928   5.345   4.509  16.875  2.0383 -2.2515  0.3718
19505TIP3   OH279929   5.238   4.014  10.796  0.7112  0.0681  0.6299
19505TIP3    H179930   5.217   3.951  10.727  0.2297  0.0375  0.7997
19505TIP3    H279931   5.222   4.099  10.756 -1.3569  0.0307  1.2274
19506TIP3   OH279932   6.513   5.894   6.002  0.0014 -0.1392 -0.1634
19506TIP3    H179933   6.501   5.972   6.056 -0.6769 -0.6360  0.4128
19506TIP3    H279934   6.572   5.923   5.932 -0.7762  1.0655 -0.3446
19507TIP3   OH279935   2.751   1.731  16.599 -0.5991 -0.6378  0.3831
19507TIP3    H179936   2.673   1.731  16.655 -2.1524  0.7223 -1.6132
19507TIP3    H279937   2.724   1.682  16.522 -0.0702  1.1642 -1.0150
19508TIP3   OH279938   5.227   5.725   2.178 -0.2609  0.0265  0.1346
19508TIP3    H179939   5.144   5.726   2.131 -0.5171  1.5712  0.5340
19508TIP3    H279940   5.235   5.637   2.213 -1.5303 -0.2652 -0.2708
19509TIP3   OH279941   4.910   1.311  13.924 -0.5386 -0.0670 -0.3938
19509TIP3    H179942   4.934   1.401  13.902  0.1081  0.2345  1.3879
19509TIP3    H279943   4.977   1.257  13.883 -0.6300  0.2893 -1.0277
19510TIP3   OH279944   2.537   0.355  14.856  0.2369 -0.3212 -0.0843
19510TIP3    H179945   2.602   0.318  14.915  0.9338 -0.4312 -0.8993
19510TIP3    H279946   2.455   0.353  14.906  1.0008  0.6277  1.2803
19511TIP3   OH279947   0.201   1.779   0.816 -0.3128  0.3120  0.4571
19511TIP3    H179948   0.291   1.792   0.847  1.8018 -1.9178 -3.8565
19511TIP3    H279949   0.189   1.846   0.748 -2.4240  1.2357  1.6411
19512TIP3   OH279950   2.604   5.247   2.617  0.5309 -0.4346  0.7102
19512TIP3    H179951   2.668   5.228   2.548  1.0794  0.5587  0.9302
19512TIP3    H279952   2.603   5.167   2.671  0.0888 -1.2250 -0.4332
19513TIP3   OH279953   0.770   1.190   4.030 -0.1454  0.3597 -0.0354
19513TIP3    H179954   0.710   1.227   4.095 -0.1602  2.4786 -1.1387
19513TIP3    H279955   0.853   1.234   4.046  0.9116 -1.8748  0.8828
19514TIP3   OH279956   4.011   1.717   2.987 -0.1356  0.3066  0.4744
19514TIP3    H179957   3.947   1.647   2.974  0.2142  0.0618  0.0500
19514TIP3    H279958   3.975   1.792   2.939  0.4201 -0.1525 -0.6739
19515TIP3   OH279959   0.190   4.020   2.609  0.4250 -0.1937  0.0132
19515TIP3    H179960   0.104   4.014   2.566 -0.2597  1.6561  1.0170
19515TIP3    H279961   0.252   4.024   2.536 -0.4437 -0.3223 -0.7636
19516TIP3   OH279962   1.102   0.345  15.489 -0.5608 -0.1076 -0.2788
19516TIP3    H179963   1.048   0.367  15.565 -0.5607 -0.1060 -0.2791
19516TIP3    H279964   1.041   0.345  15.415 -0.3561  1.0175 -0.4633
19517TIP3   OH279965   4.300   0.928   3.934  0.0902  0.6188 -0.5300
19517TIP3    H179966   4.270   1.005   3.982  1.8031  0.5691  0.7682
19517TIP3    H279967   4.327   0.961   3.849  0.9489  1.5400  0.0664
19518TIP3   OH279968   1.044   5.559   5.483  0.4868 -0.1943  0.1607
19518TIP3    H179969   1.080   5.530   5.567 -0.0770  0.3087  0.5829
19518TIP3    H279970   1.058   5.484   5.425 -0.5657 -1.1796  1.1207
19519TIP3   OH279971   3.136   3.455  12.182 -0.0915 -0.1567 -0.0074
19519TIP3    H179972   3.145   3.507  12.103  0.9277  0.1054  0.2738
19519TIP3    H279973   3.106   3.517  12.248  1.3356  0.1500  0.3828
19520TIP3   OH279974   5.687   4.905  13.608  0.0133 -0.0468  0.8677
19520TIP3    H179975   5.764   4.962  13.603  0.9474 -1.2442  1.0721
19520TIP3    H279976   5.656   4.899  13.517  0.8433 -0.4468  0.5993
19521TIP3   OH279977   1.458   2.346  13.578 -0.3527 -0.5205  0.0455
19521TIP3    H179978   1.499   2.433  13.574 -0.9939 -0.1800  0.7050
19521TIP3    H279979   1.367   2.364  13.599 -1.6326 -1.0710 -4.0236
19522TIP3   OH279980   4.650   0.852  15.636 -0.6866 -0.4643  0.1466
19522TIP3    H179981   4.745   0.858  15.643 -0.4167  0.5800 -2.8146
19522TIP3    H279982   4.630   0.759  15.643  0.7650 -0.8725 -0.8698
19523TIP3   OH279983   6.261   3.100  15.333  0.5035  0.4501 -0.1382
19523TIP3    H179984   6.269   3.134  15.423  0.3072  1.5824 -0.5289
19523TIP3    H279985   6.213   3.168  15.286  0.5181 -0.1749 -1.0845
19524TIP3   OH279986   4.109   3.332   4.357  0.1759 -0.2510  0.4768
19524TIP3    H179987   4.119   3.374   4.442 -0.9346  1.1217 -0.0474
19524TIP3    H279988   4.153   3.391   4.296  1.2466 -1.3863  0.1091
19525TIP3   OH279989   6.485   6.147   3.422 -0.6023  0.4067 -0.3798
19525TIP3    H179990   6.493   6.215   3.488 -0.6545 -0.1202  0.1808
19525TIP3    H279991   6.526   6.184   3.344  2.5970 -0.1593  0.8426
19526TIP3   OH279992   5.172   1.588  15.578  0.2974  0.4969  0.1775
19526TIP3    H179993   5.217   1.647  15.517 -0.3820  0.8119 -0.0251
19526TIP3    H279994   5.157   1.641  15.656  1.5793 -0.0396  0.8170
19527TIP3   OH279995   2.622   5.736  13.605 -0.4539  0.2571  0.4504
19527TIP3    H179996   2.595   5.713  13.694 -1.1166 -1.4358 -0.1524
19527TIP3    H279997   2.556   5.696  13.549  1.3050 -0.8666 -0.9151
19528TIP3   OH279998   5.586   2.161  14.230 -0.1736 -0.4571 -0.0780
19528TIP3    H179999   5.538   2.206  14.161 -1.8250 -0.5588  0.9489
19528TIP3    H280000   5.598   2.072  14.197 -1.1531 -0.5664 -0.1573
19529TIP3   OH280001   1.399   3.835  11.279 -0.4592 -0.2290  0.0906
19529TIP3    H180002   1.447   3.883  11.211  0.4258 -0.7264  0.3363
19529TIP3    H280003   1.311   3.873  11.278  0.3610  1.8773  0.7261
19530TIP3   OH280004   6.602   0.617  14.019 -0.7423 -0.4683 -0.2918
19530TIP3    H180005   6.521   0.659  14.050 -0.4365 -0.3612  0.3735
19530TIP3    H280006   6.615   0.544  14.079  0.8236  0.7896  0.9712
19531TIP3   OH280007   2.630   5.126  15.952  0.7273 -0.1693  0.2313
19531TIP3    H180008   2.607   5.172  16.034  1.5916  0.3571  0.1896
19531TIP3    H280009   2.592   5.181  15.883  0.9533 -0.0233  0.2244
19532TIP3   OH280010   5.988   3.408   1.272  0.3655  0.1527 -0.4525
19532TIP3    H180011   6.007   3.464   1.347 -0.3581  0.2266 -0.3239
19532TIP3    H280012   5.909   3.359   1.296 -1.3612  1.9604 -2.1016
19533TIP3   OH280013   4.313   3.801   5.562 -0.1117 -0.1797 -0.8743
19533TIP3    H180014   4.341   3.852   5.638  1.4805  0.4504 -1.8322
19533TIP3    H280015   4.266   3.726   5.599  0.2141  0.3594  0.6989
19534TIP3   OH280016   5.255   6.458   5.113  0.6482 -0.0066 -0.7173
19534TIP3    H180017   5.180   6.500   5.070  1.2002  2.1580  0.2569
19534TIP3    H280018   5.253   6.493   5.203  1.9645 -1.0804 -0.2405
19535TIP3   OH280019   0.079   4.301  12.187 -0.2422 -0.3913  0.0104
19535TIP3    H180020   0.148   4.280  12.250  1.0108 -0.1646 -1.2145
19535TIP3    H280021   0.095   4.392  12.163 -1.1264 -0.2599 -0.1274
19536TIP3   OH280022   3.508   1.712  10.898 -0.4660  0.6870 -0.3621
19536TIP3    H180023   3.456   1.659  10.838 -0.2991 -1.4378  1.2413
19536TIP3    H280024   3.524   1.794  10.851 -0.5878 -0.7362 -3.0465
19537TIP3   OH280025   6.148   5.321  16.388  0.1216  0.0255  0.2536
19537TIP3    H180026   6.161   5.233  16.353 -0.8613  0.1207 -0.3643
19537TIP3    H280027   6.224   5.335  16.445  1.2204 -0.5386 -0.9993
19538TIP3   OH280028   0.128   1.521  16.552 -0.5693  0.0514  0.0427
19538TIP3    H180029   0.189   1.454  16.582  0.8254  1.1852 -0.1530
19538TIP3    H280030   0.150   1.535  16.460 -1.8662 -0.2795 -0.3431
19539TIP3   OH280031   4.829   2.972  12.514  0.5877 -0.2587 -0.1038
19539TIP3    H180032   4.888   3.024  12.459  0.4932  1.4188  1.3081
19539TIP3    H280033   4.882   2.944  12.588 -0.1996  0.7170  0.8541
19540TIP3   OH280034   3.549   0.131   5.802 -0.1624  0.6758 -0.0272
19540TIP3    H180035   3.566   0.078   5.725 -0.5672  0.4152  0.0579
19540TIP3    H280036   3.566   0.221   5.774 -2.3761  0.8390 -1.0923
19541TIP3   OH280037   4.428   5.365  13.953  0.0349 -0.3897  0.2157
19541TIP3    H180038   4.487   5.430  13.915 -1.8740  1.0653 -0.3868
19541TIP3    H280039   4.422   5.391  14.046 -0.8594  0.4510 -0.0590
19542TIP3   OH280040   0.231   2.372   3.972  0.5094 -0.2978 -0.3882
19542TIP3    H180041   0.217   2.311   4.044  2.0449 -1.1462 -0.7552
19542TIP3    H280042   0.269   2.450   4.013  2.1358 -1.0855 -0.3326
19543TIP3   OH280043   4.233   0.649  16.642  0.7498 -0.5005 -0.1505
19543TIP3    H180044   4.143   0.653  16.609  0.4676  0.9794  0.6910
19543TIP3    H280045   4.266   0.738  16.631  2.0344 -0.9694 -0.2103
19544TIP3   OH280046   5.219   3.863   4.311  0.0877  0.2613 -0.1468
19544TIP3    H180047   5.266   3.837   4.390  1.7800  2.9426 -0.1170
19544TIP3    H280048   5.276   3.835   4.239  0.4599  1.1434 -0.2149
19545TIP3   OH280049   2.801   4.882  11.301 -0.8693  0.2097 -0.2620
19545TIP3    H180050   2.758   4.962  11.271  0.0522  0.1744 -1.7693
19545TIP3    H280051   2.767   4.814  11.243  2.7237  0.5306 -3.0366
19546TIP3   OH280052   6.048   0.456   0.284  0.0609  0.4290  0.6496
19546TIP3    H180053   5.975   0.514   0.263 -1.6756 -2.6599 -3.0224
19546TIP3    H280054   6.013   0.395   0.349 -0.6129 -0.7622 -0.7669
19547TIP3   OH280055   2.944   2.939   6.398 -0.2405  0.1023  0.2104
19547TIP3    H180056   3.025   2.891   6.380 -0.7693 -0.6271 -0.2815
19547TIP3    H280057   2.961   3.027   6.364  0.5331  0.1105  0.5952
19548TIP3   OH280058   2.247   6.175   1.200 -0.1438 -0.1556  0.2492
19548TIP3    H180059   2.172   6.151   1.254 -0.6563  2.3524  0.7737
19548TIP3    H280060   2.322   6.138   1.246 -0.9445 -2.3126 -0.0444
19549TIP3   OH280061   3.220   3.075  15.452  0.3089 -0.2635  0.3222
19549TIP3    H180062   3.217   3.069  15.356  1.1832 -0.2708  0.2811
19549TIP3    H280063   3.261   2.993  15.480  0.5715 -0.0178  0.6623
19550TIP3   OH280064   0.007   1.892   4.169  0.1638 -0.0140 -0.3535
19550TIP3    H180065   0.081   1.872   4.226 -1.0425 -0.8590  1.0004
19550TIP3    H280066   0.010   1.823   4.101  1.9036  1.2938 -1.7084
19551TIP3   OH280067   0.044   2.159   0.855  0.1012 -0.3384  0.4129
19551TIP3    H180068  -0.002   2.110   0.787  0.2732 -1.2922  0.9544
19551TIP3    H280069   0.082   2.091   0.911 -1.0662  0.3727  2.1698
19552TIP3   OH280070   2.124   2.544  12.271  0.1636 -0.4335  0.2629
19552TIP3    H180071   2.178   2.621  12.259 -1.5158  0.7905  0.1509
19552TIP3    H280072   2.049   2.558  12.212 -0.8584 -1.4715  1.2573
19553TIP3   OH280073   0.952   5.289   1.271  0.0833  0.2318 -0.0747
19553TIP3    H180074   0.944   5.327   1.183 -1.5749  1.9806  0.7562
19553TIP3    H280075   0.862   5.267   1.295  0.6288 -1.0887  0.8569
19554TIP3   OH280076   2.992   6.425   5.619  0.0232 -0.4813  0.0630
19554TIP3    H180077   3.012   6.368   5.693 -1.3754 -0.5577  0.4094
19554TIP3    H280078   2.944   6.499   5.658 -0.9672 -0.6560 -0.7817
19555TIP3   OH280079   6.226   5.425  10.200 -0.3802 -0.4182 -0.2106
19555TIP3    H180080   6.137   5.441  10.232 -0.8274  0.8895 -1.9670
19555TIP3    H280081   6.250   5.505  10.154  1.6925 -0.7860  0.1341
19556TIP3   OH280082   3.002   0.550   3.963 -0.1003 -0.2160 -0.4888
19556TIP3    H180083   2.956   0.479   3.918  1.3322 -0.6839 -1.2829
19556TIP3    H280084   2.939   0.622   3.964 -0.9753 -0.9326 -1.2210
19557TIP3   OH280085   5.215   4.989   2.464 -0.4043 -0.8550  0.0807
19557TIP3    H180086   5.169   4.937   2.399  0.7552 -0.4584 -1.1159
19557TIP3    H280087   5.274   4.927   2.507  0.4861 -0.6998 -0.8737
19558TIP3   OH280088   6.163   1.729   2.938 -0.8648  0.3645 -0.1042
19558TIP3    H180089   6.167   1.746   3.032 -0.6638  2.9085 -0.5074
19558TIP3    H280090   6.091   1.784   2.906 -1.9228 -1.5674 -1.2696
19559TIP3   OH280091   0.315   1.151  11.008 -0.2768 -0.2160 -0.1311
19559TIP3    H180092   0.234   1.127  10.962 -0.5351  0.7599 -0.1946
19559TIP3    H280093   0.372   1.075  10.996 -1.1087 -0.8391 -0.2552
19560TIP3   OH280094   4.598   6.721  12.331  0.5999  0.1697 -0.5686
19560TIP3    H180095   4.572   6.758  12.247  1.2193 -0.2380 -0.9530
19560TIP3    H280096   4.656   6.786  12.369 -2.3994  2.0179  1.2075
19561TIP3   OH280097   4.290   3.797  17.083 -0.1066 -0.0831 -0.2173
19561TIP3    H180098   4.299   3.876  17.136  2.5122  0.3094 -1.0873
19561TIP3    H280099   4.380   3.771  17.063 -0.9264 -2.2909 -1.4374
19562TIP3   OH280100   3.051   5.943  11.133 -0.2946  0.0944 -0.2854
19562TIP3    H180101   2.991   6.012  11.103  0.1803  0.1521 -1.1359
19562TIP3    H280102   3.109   5.927  11.058  0.7838  0.0669  0.5273
19563TIP3   OH280103   3.816   0.113  12.456 -0.3038  0.7147  0.7543
19563TIP3    H180104   3.812   0.023  12.425  0.6215 -0.2042  3.1243
19563TIP3    H280105   3.877   0.111  12.530 -1.1909  3.0594  1.6435
19564TIP3   OH280106   1.726   0.126   1.089  0.7369 -0.1924 -0.2658
19564TIP3    H180107   1.698   0.217   1.098  1.4798  0.1353 -1.0534
19564TIP3    H280108   1.820   0.132   1.072  0.3027 -0.8859 -3.5543
19565TIP3   OH280109   5.990   3.975  13.758 -0.0152  0.1875  0.3232
19565TIP3    H180110   6.009   3.977  13.664 -0.1057 -0.3266  0.2910
19565TIP3    H280111   5.974   4.067  13.781  0.1853  0.3372 -0.1255
19566TIP3   OH280112   3.982   0.992  12.074 -0.7966 -0.3923  0.1024
19566TIP3    H180113   4.027   1.070  12.043 -0.5424 -0.3183  0.6383
19566TIP3    H280114   4.048   0.944  12.125 -0.6981 -1.3972 -0.9291
19567TIP3   OH280115   2.438   2.281  12.880 -0.2244 -0.5465  0.2745
19567TIP3    H180116   2.467   2.286  12.789  0.0953  4.2940  0.3906
19567TIP3    H280117   2.358   2.333  12.884  0.4490  0.4669  2.9482
19568TIP3   OH280118   3.204   1.601   3.929  0.3248  0.0051  0.4520
19568TIP3    H180119   3.218   1.524   3.874 -0.7068 -0.7718  1.2475
19568TIP3    H280120   3.242   1.673   3.879 -0.7721 -0.6260 -1.4020
19569TIP3   OH280121   5.784   1.491   3.333 -0.2710 -0.1461 -0.3765
19569TIP3    H180122   5.786   1.459   3.243  1.4985  1.0389 -0.8097
19569TIP3    H280123   5.722   1.564   3.331  1.4006  1.3390 -1.2321
19570TIP3   OH280124   4.953   6.563   4.275  0.6692 -0.2179 -0.1407
19570TIP3    H180125   5.000   6.498   4.223  1.6626  0.1985  0.2082
19570TIP3    H280126   5.021   6.603   4.330 -0.0526  0.5913  0.1802
19571TIP3   OH280127   4.552   2.320   4.524  0.6522 -0.1761 -0.0324
19571TIP3    H180128   4.464   2.284   4.510  0.5449  0.0437  0.0699
19571TIP3    H280129   4.583   2.341   4.436  0.5991 -0.2466 -0.0689
19572TIP3   OH280130   3.210   6.273  12.616 -0.0309 -0.3119  0.0400
19572TIP3    H180131   3.198   6.367  12.604 -1.0166 -0.5901 -1.5485
19572TIP3    H280132   3.191   6.236  12.530 -0.8440 -2.0691  0.9274
19573TIP3   OH280133   3.441   0.534  13.787  0.2134  0.6345  0.1210
19573TIP3    H180134   3.359   0.546  13.836  2.1604  1.8966  3.3714
19573TIP3    H280135   3.428   0.583  13.706 -2.0516  1.1833  0.7474
19574TIP3   OH280136   4.117   5.547  10.723 -0.2490  0.1621 -0.4378
19574TIP3    H180137   4.140   5.629  10.679 -1.4353 -0.0449 -1.4741
19574TIP3    H280138   4.202   5.510  10.749  0.3592  1.1887 -0.8919
19575TIP3   OH280139   2.717   5.231  13.851  0.6430  0.4398  0.1627
19575TIP3    H180140   2.762   5.171  13.792 -0.1663  0.0165 -0.0438
19575TIP3    H280141   2.659   5.281  13.795 -0.3888 -0.2076  0.6194
19576TIP3   OH280142   5.421   2.139   2.089 -0.1690  0.2439 -0.1873
19576TIP3    H180143   5.386   2.079   2.023 -0.8409  0.3747  0.0480
19576TIP3    H280144   5.442   2.218   2.040  0.4728 -0.0730 -0.4503
19577TIP3   OH280145   0.744   2.075   4.661 -0.3170  0.5751 -0.6467
19577TIP3    H180146   0.757   2.164   4.695 -1.2615  0.2946  0.5328
19577TIP3    H280147   0.655   2.076   4.624  0.3229  0.5879 -2.2706
19578TIP3   OH280148   0.695   5.390   1.798 -0.8124 -0.2349  0.2605
19578TIP3    H180149   0.720   5.465   1.852 -0.3809  0.5349 -0.9588
19578TIP3    H280150   0.773   5.370   1.746 -1.3003 -0.7476 -0.3029
19579TIP3   OH280151   2.282   6.005   0.007 -0.7820  0.6859 -0.0834
19579TIP3    H180152   2.350   5.939   0.020 -0.0525  1.3668 -0.3323
19579TIP3    H280153   2.216   5.961  -0.046 -0.4179  0.0895 -0.0595
19580TIP3   OH280154   1.800   3.330   0.180 -0.3734  0.1956 -0.6007
19580TIP3    H180155   1.827   3.282   0.102 -1.5491 -0.0008 -0.9103
19580TIP3    H280156   1.810   3.422   0.156  0.7373  0.1313 -0.4288
19581TIP3   OH280157   0.925   2.180  14.329  0.2432 -0.3673  0.5246
19581TIP3    H180158   0.865   2.219  14.392 -2.5583 -0.4185 -1.9345
19581TIP3    H280159   0.973   2.254  14.292 -0.8622  0.1005  0.0104
19582TIP3   OH280160   3.855   0.702  14.343  0.3006 -0.4102  0.4485
19582TIP3    H180161   3.930   0.708  14.402  1.4013 -1.0055 -0.8362
19582TIP3    H280162   3.849   0.789  14.303  0.9653 -0.6524 -0.1981
19583TIP3   OH280163   5.994   4.157   5.746 -0.4541  0.1642 -0.3108
19583TIP3    H180164   6.039   4.154   5.830  0.0240 -1.1131 -0.5842
19583TIP3    H280165   5.903   4.176   5.768 -0.0450  1.4878  0.3518
19584TIP3   OH280166   5.853   6.322  15.293 -0.4033  0.3415  0.1388
19584TIP3    H180167   5.877   6.234  15.265  3.2966  1.5224 -1.0205
19584TIP3    H280168   5.805   6.358  15.219 -1.9771 -0.6487  0.6356
19585TIP3   OH280169   5.289   5.426   0.567  0.2514  0.1701 -0.1818
19585TIP3    H180170   5.317   5.342   0.604  0.4616  2.0941  4.7184
19585TIP3    H280171   5.368   5.463   0.528  0.9655 -0.4964  0.5987
19586TIP3   OH280172   3.112   3.264  16.077 -0.1110  0.3282  0.1996
19586TIP3    H180173   3.094   3.345  16.029 -0.8282 -0.1158 -0.3067
19586TIP3    H280174   3.085   3.194  16.017 -0.9095 -0.2478  1.1915
19587TIP3   OH280175   2.510   6.502   2.475 -0.2410 -0.2527 -0.2440
19587TIP3    H180176   2.519   6.480   2.383 -0.8889 -0.7423 -0.1986
19587TIP3    H280177   2.421   6.537   2.483  0.2513  1.0131 -0.0339
19588TIP3   OH280178   5.604   4.230  16.040 -0.2013 -0.2766  1.0459
19588TIP3    H180179   5.528   4.223  16.097 -0.3209 -1.0844  0.7991
19588TIP3    H280180   5.673   4.182  16.085  0.2309  0.6383  1.3709
19589TIP3   OH280181   6.383   2.498  17.266 -0.3756 -0.3570  0.0598
19589TIP3    H180182   6.372   2.408  17.237 -1.0209 -0.2972  0.0919
19589TIP3    H280183   6.469   2.500  17.308 -0.4687 -1.0142  0.2883
19590TIP3   OH280184   4.998   6.213   3.653  0.1077  0.7741 -0.5138
19590TIP3    H180185   4.933   6.274   3.686 -0.2577  1.2816 -2.0685
19590TIP3    H280186   4.974   6.199   3.561  2.1380  0.9547 -1.1332
19591TIP3   OH280187   5.492   4.713  15.549  0.6662  0.4260 -0.2389
19591TIP3    H180188   5.585   4.707  15.572  0.2957 -2.4707  0.9310
19591TIP3    H280189   5.452   4.757  15.625  0.9386  0.8035 -0.3112
19592TIP3   OH280190   2.414   5.000  16.223 -0.2744  0.2805  0.3985
19592TIP3    H180191   2.477   5.066  16.195  1.6135 -0.8171  1.8171
19592TIP3    H280192   2.465   4.919  16.229 -1.9722 -0.8023  0.9820
19593TIP3   OH280193   6.139   0.504   5.284 -0.4805  0.0439 -0.6791
19593TIP3    H180194   6.090   0.552   5.350  0.0284 -0.3439 -0.0083
19593TIP3    H280195   6.224   0.486   5.325 -1.5923 -4.0890  0.3716
19594TIP3   OH280196   4.982   6.653   3.342  0.5674  0.5783 -0.3792
19594TIP3    H180197   5.078   6.648   3.350  0.3685 -0.6930  1.8732
19594TIP3    H280198   4.959   6.578   3.288  0.6083 -1.7820  2.6016
19595TIP3   OH280199   4.188   4.469  12.524 -0.4006 -0.3931 -0.5842
19595TIP3    H180200   4.227   4.475  12.437  2.4624  0.8038  0.6926
19595TIP3    H280201   4.177   4.375  12.538  0.7836 -0.6971 -1.5311
19596TIP3   OH280202   2.999   3.179  14.392  0.2828  0.0620 -0.1520
19596TIP3    H180203   2.981   3.119  14.320 -0.3941  0.0714  0.0081
19596TIP3    H280204   2.995   3.266  14.352 -1.0942  0.1307  0.0755
19597TIP3   OH280205   0.485   1.528  15.772 -0.2380 -0.4516 -0.0417
19597TIP3    H180206   0.578   1.539  15.749 -0.4548  0.6098 -0.4728
19597TIP3    H280207   0.483   1.449  15.825  0.8540 -0.7494 -0.4109
19598TIP3   OH280208   0.200   2.570   1.042 -0.0944  0.2117  0.2539
19598TIP3    H180209   0.153   2.529   0.969 -1.3855 -2.3534  2.3706
19598TIP3    H280210   0.246   2.644   1.002 -1.1342 -0.7491 -3.0333
19599TIP3   OH280211   3.668   3.498  11.390 -0.1774 -0.2870  0.9943
19599TIP3    H180212   3.699   3.578  11.432 -2.6594  1.2589  0.0910
19599TIP3    H280213   3.644   3.524  11.302 -0.4124 -2.2045  0.4434
19600TIP3   OH280214   2.178   2.475  13.743 -0.3778  0.2705  0.2724
19600TIP3    H180215   2.262   2.431  13.732  0.5827  1.9105  0.7090
19600TIP3    H280216   2.113   2.408  13.720  0.8248 -2.2701  3.5058
19601TIP3   OH280217   1.380   2.149   1.188  0.3813  0.0614  0.6505
19601TIP3    H180218   1.289   2.151   1.158 -0.8842 -1.0350  3.9622
19601TIP3    H280219   1.393   2.234   1.229  1.3797  0.7467 -1.0082
19602TIP3   OH280220   3.435   2.498   1.967 -0.4138  0.7615 -0.0272
19602TIP3    H180221   3.341   2.507   1.951 -0.7490 -1.1186  0.5974
19602TIP3    H280222   3.447   2.536   2.054 -1.3321 -2.1591  1.5029
19603TIP3   OH280223   3.139   3.919  15.371  0.1183 -0.0625 -0.2561
19603TIP3    H180224   3.233   3.932  15.357  0.3770  1.4928  2.2655
19603TIP3    H280225   3.102   4.008  15.370 -1.3706 -0.6519 -1.2676
19604TIP3   OH280226   0.150   0.204   3.361  0.0350  0.2626  0.1397
19604TIP3    H180227   0.197   0.127   3.329  0.4928  0.7082 -0.2940
19604TIP3    H280228   0.144   0.261   3.285 -0.2111  0.6962  0.4813
19605TIP3   OH280229   5.813   6.324   4.367 -0.5226 -0.5753 -0.1355
19605TIP3    H180230   5.884   6.280   4.414  0.3234  2.4184  1.7420
19605TIP3    H280231   5.835   6.315   4.275  1.5092 -0.9968  0.3430
19606TIP3   OH280232   0.940   1.761   3.291 -0.2494  0.2836  0.2583
19606TIP3    H180233   0.863   1.744   3.345  0.9390 -1.8923  1.4340
19606TIP3    H280234   0.953   1.855   3.297 -3.4110  0.9302 -0.9450
19607TIP3   OH280235   2.085   4.538  12.393 -0.1934 -0.2480  0.2790
19607TIP3    H180236   2.158   4.483  12.364 -0.5321  0.4127 -2.0112
19607TIP3    H280237   2.031   4.480  12.447  1.5067 -0.9954  1.2419
19608TIP3   OH280238   1.923   3.441   1.397  0.0308  0.6846 -0.1004
19608TIP3    H180239   1.905   3.415   1.307  3.2674 -0.3752 -0.5336
19608TIP3    H280240   1.905   3.363   1.449 -1.3963  1.1654  0.1897
19609TIP3   OH280241   6.044   5.157   6.270 -0.2364 -0.2030 -0.4990
19609TIP3    H180242   6.131   5.197   6.280 -0.5281  0.0576  1.2110
19609TIP3    H280243   5.985   5.231   6.258 -0.7272 -0.0363  2.3112
19610TIP3   OH280244   3.661   5.412  10.346 -0.6032 -0.0070 -0.1312
19610TIP3    H180245   3.640   5.324  10.313  0.1141 -0.8997  1.6358
19610TIP3    H280246   3.575   5.449  10.369 -0.9958  0.1634 -1.7794
19611TIP3   OH280247   5.755   1.223  12.614 -0.2946  0.0693 -0.2931
19611TIP3    H180248   5.683   1.196  12.558  0.5206  0.1360 -1.4211
19611TIP3    H280249   5.767   1.316  12.596 -0.8620  0.4077  0.9908
19612TIP3   OH280250   0.541   4.177  13.365  0.0581 -0.0816 -0.0204
19612TIP3    H180251   0.550   4.094  13.413 -0.0842  0.8283  1.6251
19612TIP3    H280252   0.486   4.154  13.290  0.0436 -1.4925  0.3826
19613TIP3   OH280253   1.500   6.403   2.271 -0.1306 -0.1724  1.0771
19613TIP3    H180254   1.518   6.394   2.177  0.8545 -0.5538  1.2890
19613TIP3    H280255   1.411   6.438   2.275  0.1233  0.6536 -0.0176
19614TIP3   OH280256   5.772   4.622   4.829  0.0945  0.1067 -0.3619
19614TIP3    H180257   5.761   4.609   4.735  1.2685  0.2826 -0.5371
19614TIP3    H280258   5.751   4.714   4.844 -2.7176 -0.5004  0.0021
19615TIP3   OH280259   3.186   0.154   1.004  0.1830  0.5839  0.1385
19615TIP3    H180260   3.274   0.188   1.013  0.7607 -0.7864 -0.0465
19615TIP3    H280261   3.184   0.115   0.916 -1.0687  1.8653 -0.4266
19616TIP3   OH280262   4.149   0.594  12.894  0.2312 -0.2080 -0.0628
19616TIP3    H180263   4.215   0.579  12.961  1.1046  1.5702 -0.4665
19616TIP3    H280264   4.118   0.507  12.870  0.8002 -0.9442  1.7350
19617TIP3   OH280265   4.541   3.469  15.983  0.2855 -0.1562 -0.1350
19617TIP3    H180266   4.622   3.509  16.014  0.6488 -0.9277 -0.0622
19617TIP3    H280267   4.487   3.543  15.954  0.9357  0.3777 -0.0077
19618TIP3   OH280268   2.929   0.053   5.128 -0.8275 -0.3624 -0.6199
19618TIP3    H180269   3.007  -0.002   5.129  1.4328  2.5471  1.3269
19618TIP3    H280270   2.868   0.010   5.187  1.5333 -0.0782  2.2299
19619TIP3   OH280271   3.415   1.127   3.195 -0.3555 -0.2047 -0.0708
19619TIP3    H180272   3.472   1.171   3.258 -0.6185 -0.6653  0.4968
19619TIP3    H280273   3.465   1.128   3.113  0.0409  0.2910  0.1703
19620TIP3   OH280274   6.398   1.102   3.275  0.2497  0.1607 -0.0884
19620TIP3    H180275   6.437   1.077   3.358 -0.0742 -0.1892 -0.0405
19620TIP3    H280276   6.465   1.079   3.209  0.3755  0.1402  0.0465
19621TIP3   OH280277   5.600   6.712   5.705  0.4694 -0.1980  0.1840
19621TIP3    H180278   5.658   6.666   5.766  0.2225  1.2400  1.5711
19621TIP3    H280279   5.564   6.784   5.757 -0.4343  0.5558 -1.4415
19622TIP3   OH280280   5.061   4.002   4.147  0.1846 -1.5479 -0.3228
19622TIP3    H180281   5.098   4.034   4.065  0.7332  2.3235  1.2474
19622TIP3    H280282   5.136   3.969   4.196  0.1440 -2.0347 -0.5788
19623TIP3   OH280283   1.145   5.034  11.379 -0.3994 -0.7218  0.0793
19623TIP3    H180284   1.206   5.011  11.309  0.6129  0.7598  0.4149
19623TIP3    H280285   1.062   5.048  11.335  0.5924  1.9173 -1.1958
19624TIP3   OH280286   4.734   0.259   3.591 -0.1080  0.8066  0.1503
19624TIP3    H180287   4.687   0.175   3.582 -0.1423  0.7016  1.1830
19624TIP3    H280288   4.826   0.234   3.603  0.0057  0.9591 -0.3563
19625TIP3   OH280289   6.447   5.731   0.757 -0.2530 -0.1921  0.2335
19625TIP3    H180290   6.369   5.783   0.739  1.0084  1.4434 -0.7099
19625TIP3    H280291   6.475   5.698   0.672  1.2733  1.0304  0.2259
19626TIP3   OH280292   3.775   1.308  15.292 -0.0783  0.3528  0.2922
19626TIP3    H180293   3.765   1.324  15.198  1.7807 -0.7294 -0.1206
19626TIP3    H280294   3.732   1.223  15.306 -0.2228  0.4434  0.3994
19627TIP3   OH280295   6.453   5.630  11.267 -0.1303 -0.0772 -0.6586
19627TIP3    H180296   6.491   5.709  11.229 -0.2934 -0.3675 -1.4451
19627TIP3    H280297   6.490   5.625  11.355  0.0734  0.7392 -0.6927
19628TIP3   OH280298   0.439   4.332   4.360 -0.2836 -0.3429 -0.1231
19628TIP3    H180299   0.401   4.272   4.296 -0.0919 -0.7516  0.1417
19628TIP3    H280300   0.503   4.279   4.408 -0.8868 -0.2231  0.8537
19629TIP3   OH280301   3.250   3.096   3.174  0.1405 -0.0511 -0.5701
19629TIP3    H180302   3.247   3.002   3.193 -0.3768 -0.3370 -1.9582
19629TIP3    H280303   3.301   3.133   3.246 -2.0158 -0.9629  1.5863
19630TIP3   OH280304   4.041   5.902   6.340 -0.2360  0.0845  0.9965
19630TIP3    H180305   3.963   5.924   6.289  0.7239 -0.1223 -0.6129
19630TIP3    H280306   4.008   5.846   6.410 -1.2911 -1.9767 -1.0060
19631TIP3   OH280307   4.817   1.488  14.807  0.0608  0.4173  0.0458
19631TIP3    H180308   4.904   1.472  14.770  0.3063 -0.4765  0.9800
19631TIP3    H280309   4.812   1.431  14.884 -2.2898 -1.5485 -1.3710
19632TIP3   OH280310   6.579   6.473   1.449  0.1004  0.4635  0.2135
19632TIP3    H180311   6.663   6.483   1.494 -0.0536 -1.8698  1.1201
19632TIP3    H280312   6.602   6.453   1.358  0.5611 -0.3751  0.5052
19633TIP3   OH280313   2.021   3.657   0.619 -0.4818  0.2961 -0.1492
19633TIP3    H180314   2.074   3.579   0.637  1.0217  1.9447  3.6592
19633TIP3    H280315   2.083   3.720   0.581 -0.2572  1.3585  1.8658
19634TIP3   OH280316   6.448   4.941  13.926  0.4246 -0.2037  0.0277
19634TIP3    H180317   6.386   4.962  13.997  0.8450  0.5556  0.1818
19634TIP3    H280318   6.485   4.857  13.951  0.4632 -0.0087  0.6459
19635TIP3   OH280319   1.071   1.111   1.461  0.5332  0.7001 -0.1201
19635TIP3    H180320   1.061   1.094   1.554 -0.0130  0.2866 -0.2465
19635TIP3    H280321   0.989   1.152   1.434  0.5903  0.5969 -0.4653
19636TIP3   OH280322   2.290   3.500   6.001 -0.0531 -0.6064  0.3983
19636TIP3    H180323   2.317   3.571   6.059  0.8474 -0.9752  0.4341
19636TIP3    H280324   2.291   3.540   5.913 -1.5263 -0.0182  0.6078
19637TIP3   OH280325   2.593   5.878   0.450  0.6107  0.0252 -0.0874
19637TIP3    H180326   2.593   5.783   0.460  3.2064  0.0356  0.7584
19637TIP3    H280327   2.536   5.909   0.519  1.5784 -0.8598  1.1580
19638TIP3   OH280328   5.388   0.894   1.240 -0.3003  0.3350 -0.4145
19638TIP3    H180329   5.346   0.826   1.186  1.2592 -0.3226 -0.8542
19638TIP3    H280330   5.373   0.975   1.191 -0.3511 -0.0122 -0.9927
19639TIP3   OH280331   2.205   3.091   0.476  0.3408  0.1732 -0.2722
19639TIP3    H180332   2.246   3.136   0.402  0.3530 -0.0415 -0.3951
19639TIP3    H280333   2.119   3.133   0.485  1.4048  2.2473  1.4242
19640TIP3   OH280334   5.301   5.332  13.090  0.1442  0.4028 -0.2827
19640TIP3    H180335   5.246   5.410  13.077 -1.6251 -0.4012  1.7438
19640TIP3    H280336   5.248   5.260  13.055  0.7888 -0.1596 -0.1127
19641TIP3   OH280337   0.728   6.278   4.541 -0.3630 -0.5228  1.1694
19641TIP3    H180338   0.644   6.272   4.495  0.6475 -0.8645 -0.7062
19641TIP3    H280339   0.714   6.231   4.624 -1.9636 -0.6938  0.8243
19642TIP3   OH280340   5.115   1.590   4.116 -0.4758 -0.6059  0.1866
19642TIP3    H180341   5.123   1.583   4.211 -1.2841  0.9492  0.4031
19642TIP3    H280342   5.199   1.626   4.087 -0.5083 -0.3482  0.4091
19643TIP3   OH280343   0.528   6.207  11.600 -0.5793 -0.1082  0.0610
19643TIP3    H180344   0.466   6.173  11.665 -1.8938  0.3285 -0.9202
19643TIP3    H280345   0.537   6.135  11.537 -0.4508 -0.0010 -0.0406
19644TIP3   OH280346   1.691   4.403   5.977  0.0035 -0.6449 -0.0916
19644TIP3    H180347   1.722   4.318   6.009 -0.3750 -0.2710  1.3605
19644TIP3    H280348   1.597   4.403   5.996 -0.3431 -0.5931 -1.7188
19645TIP3   OH280349   1.297   4.186  14.882 -0.1760  0.0806 -0.4380
19645TIP3    H180350   1.271   4.119  14.945  2.9597  0.8602  1.9371
19645TIP3    H280351   1.376   4.150  14.841  0.9283  1.8185  0.0951
19646TIP3   OH280352   1.650   2.598   1.522 -0.3286 -0.1450  0.0457
19646TIP3    H180353   1.699   2.547   1.586 -0.5189 -0.8654 -0.3696
19646TIP3    H280354   1.593   2.534   1.479 -0.7131  0.4542 -0.3483
19647TIP3   OH280355   5.933   4.429  17.243 -0.0817  0.0768  0.1006
19647TIP3    H180356   5.841   4.403  17.239 -0.1612  0.3287  0.2618
19647TIP3    H280357   5.956   4.452  17.154  0.4135 -1.9816 -0.3631
19648TIP3   OH280358   3.269   1.892   4.108  0.9001  0.0914  0.0212
19648TIP3    H180359   3.312   1.812   4.078 -1.8218 -2.0467  1.3758
19648TIP3    H280360   3.231   1.869   4.193  0.1068  2.8806  0.5298
19649TIP3   OH280361   3.017   0.298   5.018 -0.1450 -0.0484  0.0461
19649TIP3    H180362   3.012   0.214   5.064 -0.8106  0.6126  1.2360
19649TIP3    H280363   2.927   0.330   5.016 -0.2316 -0.2987 -2.2679
19650TIP3   OH280364   3.917   4.762   1.043 -0.4676 -0.1420 -0.5625
19650TIP3    H180365   3.850   4.790   0.981  1.8746  2.4840 -2.1824
19650TIP3    H280366   3.983   4.718   0.989  1.2004  1.3804  0.0963
19651TIP3   OH280367   2.191   6.233   4.905  0.1048 -0.3010 -0.2523
19651TIP3    H180368   2.223   6.278   4.983  3.0041  1.2912 -2.1932
19651TIP3    H280369   2.137   6.298   4.860 -3.8799 -2.0395  1.5013
19652TIP3   OH280370   4.074   2.329   0.627 -0.4418  0.2771  0.1237
19652TIP3    H180371   4.138   2.268   0.590 -0.4749  0.1390  0.2899
19652TIP3    H280372   4.005   2.335   0.560 -0.5088  0.0182  0.1665
19653TIP3   OH280373   0.918   5.748  14.060 -0.3635  0.2768  0.0602
19653TIP3    H180374   0.830   5.771  14.090 -0.2095 -0.1355  0.8489
19653TIP3    H280375   0.921   5.652  14.064 -0.0937  0.2534 -0.5894
19654TIP3   OH280376   0.227   6.343   1.125 -0.1078 -0.0635 -0.2149
19654TIP3    H180377   0.299   6.371   1.068 -1.1465 -0.5464 -1.8341
19654TIP3    H280378   0.167   6.297   1.066 -2.6441  1.8863  0.6697
19655TIP3   OH280379   3.457   2.805   3.340 -0.3389  0.6597  0.2724
19655TIP3    H180380   3.503   2.784   3.260 -1.6211  0.0559 -0.3301
19655TIP3    H280381   3.495   2.889   3.368 -1.0020  1.7549 -1.8774
19656TIP3   OH280382   0.126   2.299   5.037  0.2856  0.0761  0.1501
19656TIP3    H180383   0.107   2.344   4.954 -0.0865  1.4177  0.9341
19656TIP3    H280384   0.191   2.233   5.013 -2.9307 -2.6244 -2.0611
19657TIP3   OH280385   5.045   6.586  11.146 -0.1723 -0.0426  0.4389
19657TIP3    H180386   5.140   6.593  11.135 -0.1701 -1.6437 -1.0122
19657TIP3    H280387   5.034   6.545  11.232  0.4292  0.4686  0.7695
19658TIP3   OH280388   5.046   5.840   5.251 -0.0910 -0.7458  0.2272
19658TIP3    H180389   5.092   5.769   5.205 -0.7127 -0.8251 -0.2881
19658TIP3    H280390   5.007   5.797   5.327  0.0082 -0.8429  0.2246
19659TIP3   OH280391   1.655   1.971  16.555 -0.0370 -0.2986 -0.6438
19659TIP3    H180392   1.612   2.042  16.602 -0.8213 -1.3512  0.2876
19659TIP3    H280393   1.583   1.915  16.525  0.6225 -2.4412  1.4847
19660TIP3   OH280394   5.962   2.706   0.602 -0.2729  0.3981  0.2691
19660TIP3    H180395   5.957   2.611   0.604 -0.7320  0.4170  0.0572
19660TIP3    H280396   5.908   2.735   0.676 -2.4518  0.5677 -1.3306
19661TIP3   OH280397   4.179   3.022   4.321  0.2706  0.0948 -0.1111
19661TIP3    H180398   4.161   3.059   4.408 -1.6014 -0.3539 -0.2657
19661TIP3    H280399   4.103   3.047   4.269  0.8658 -0.5790 -1.3284
19662TIP3   OH280400   3.016   3.474  14.350  0.3943 -0.6636  0.4232
19662TIP3    H180401   3.018   3.570  14.346  1.5061 -0.6459  1.0071
19662TIP3    H280402   2.927   3.451  14.326  0.1358  0.5179  0.1887
19663TIP3   OH280403   2.466   5.352  15.296  0.3163  0.1661 -0.1006
19663TIP3    H180404   2.436   5.348  15.387 -0.9307  2.4865 -0.3387
19663TIP3    H280405   2.434   5.270  15.257 -1.3148  0.2444  0.9591
19664TIP3   OH280406   5.235   6.177   2.684 -0.3487  0.0226 -0.6052
19664TIP3    H180407   5.282   6.094   2.677  1.9021  1.2425 -0.8310
19664TIP3    H280408   5.145   6.156   2.656  0.0495 -2.3787 -0.2912
19665TIP3   OH280409   6.577   4.687  15.859 -0.4651  0.4979  0.2730
19665TIP3    H180410   6.530   4.621  15.808 -2.0566  1.3268  0.6216
19665TIP3    H280411   6.609   4.638  15.936  0.4553 -0.3628 -0.6254
19666TIP3   OH280412   6.740   3.983  13.936  0.2194 -0.0153  0.1955
19666TIP3    H180413   6.676   3.967  13.867  0.5747 -0.0217 -0.1381
19666TIP3    H280414   6.729   4.075  13.958 -0.8892 -0.3695  1.1555
19667TIP3   OH280415   3.554   1.462   4.524 -0.1733 -0.3196 -0.0675
19667TIP3    H180416   3.492   1.534   4.512 -0.2269 -0.2794  0.4397
19667TIP3    H280417   3.593   1.477   4.610 -0.4646 -1.1030  0.2148
19668TIP3   OH280418   4.831   1.196  15.122  0.2543  0.2446 -0.0856
19668TIP3    H180419   4.798   1.271  15.171 -0.2571  0.6428 -1.0102
19668TIP3    H280420   4.763   1.130  15.131  0.7788 -0.1761  0.8658
19669TIP3   OH280421   1.760   4.498  15.244  0.2641  0.4056 -0.0373
19669TIP3    H180422   1.685   4.553  15.265  0.8605  1.5966 -0.9317
19669TIP3    H280423   1.731   4.443  15.171 -0.2132 -0.2250  0.6169
19670TIP3   OH280424   3.171   5.700  14.651  0.5686 -0.3557 -0.0903
19670TIP3    H180425   3.109   5.758  14.606 -0.0509 -0.3616  0.7083
19670TIP3    H280426   3.126   5.616  14.655  0.7664 -0.4477  0.2022
19671TIP3   OH280427   4.953   0.590  13.879 -0.4135  0.1749  0.1074
19671TIP3    H180428   5.047   0.604  13.892 -0.4988  0.6334  0.2340
19671TIP3    H280429   4.930   0.648  13.806 -0.9335  1.3500  1.1777
19672TIP3   OH280430   3.574   3.765   3.962 -0.3595  0.3427  0.2656
19672TIP3    H180431   3.496   3.807   3.999 -0.9991 -1.0694  0.5950
19672TIP3    H280432   3.546   3.675   3.944  0.8754  0.1274 -0.6816
19673TIP3   OH280433   3.039   6.363   2.769  0.6308  0.2012 -0.2506
19673TIP3    H180434   3.125   6.348   2.810  0.5220 -1.9439 -0.6634
19673TIP3    H280435   3.060   6.392   2.680  0.9101  0.4292 -0.1126
19674TIP3   OH280436   3.580   2.672   0.837  0.3551  0.3226  0.0749
19674TIP3    H180437   3.653   2.694   0.779 -0.1769 -0.7935 -1.0633
19674TIP3    H280438   3.621   2.658   0.922  1.2019  1.6376 -0.0825
19675TIP3   OH280439   5.685   1.523   5.638  0.0823  0.5054  0.0479
19675TIP3    H180440   5.708   1.615   5.629 -1.4481  0.9172 -0.0404
19675TIP3    H280441   5.724   1.495   5.720  0.5076  1.2444  0.1016
19676TIP3   OH280442   1.380   3.061   3.605  0.0923  0.4258  0.5073
19676TIP3    H180443   1.315   3.098   3.664  0.7897 -0.7027  2.0820
19676TIP3    H280444   1.384   3.122   3.531 -0.3746  2.2668  1.9158
19677TIP3   OH280445   5.857   3.503  16.530  0.2152 -0.2006 -0.0854
19677TIP3    H180446   5.924   3.522  16.595 -0.0848 -1.7742  0.7435
19677TIP3    H280447   5.834   3.411  16.546 -0.3981 -0.4024 -1.9395
19678TIP3   OH280448   2.717   1.186  15.788  0.3432  0.5275 -0.3719
19678TIP3    H180449   2.710   1.119  15.856  0.4160 -0.7047 -1.5171
19678TIP3    H280450   2.637   1.238  15.798  0.3448  0.3633  0.6325
19679TIP3   OH280451   0.304   0.137   4.316  1.0651  0.2438  0.1303
19679TIP3    H180452   0.329   0.194   4.389  2.1451 -1.4847  1.1710
19679TIP3    H280453   0.288   0.197   4.244  2.4407  1.8759  1.0979
19680TIP3   OH280454   2.411   4.798  11.548  0.5382  0.1940  0.2552
19680TIP3    H180455   2.404   4.781  11.642  0.1539 -0.0389  0.1829
19680TIP3    H280456   2.339   4.858  11.528  1.8696  1.9593  0.5065
19681TIP3   OH280457   6.414   1.620  11.792  0.1992  0.1089 -0.5205
19681TIP3    H180458   6.336   1.618  11.848  0.4008  0.5903 -0.2191
19681TIP3    H280459   6.429   1.712  11.774  1.0016  0.0605 -0.1525
19682TIP3   OH280460   0.290   4.547  16.976  0.0838 -0.0464 -0.0316
19682TIP3    H180461   0.204   4.507  16.987 -0.6099  0.8970 -1.6518
19682TIP3    H280462   0.347   4.476  16.948 -1.0503 -0.0817 -2.5343
19683TIP3   OH280463   3.059   4.061  14.584 -0.1126  0.0409  0.0171
19683TIP3    H180464   3.121   4.014  14.640  0.3778  0.0239 -0.5451
19683TIP3    H280465   3.110   4.089  14.508 -1.3034 -2.2463 -1.7565
19684TIP3   OH280466   1.154   2.055  16.685 -0.7629  0.2328  0.4725
19684TIP3    H180467   1.198   2.134  16.653 -0.7742  0.6315  1.4223
19684TIP3    H280468   1.062   2.069  16.664 -0.6145 -0.0869 -0.4638
19685TIP3   OH280469   2.846   1.023   6.516 -0.3126 -0.4561  0.2493
19685TIP3    H180470   2.907   1.058   6.581  0.7237 -0.5314 -0.6449
19685TIP3    H280471   2.786   0.968   6.566  1.0806 -1.3237  1.0442
19686TIP3   OH280472   0.960   1.403  11.346 -0.5961 -0.3761  0.0303
19686TIP3    H180473   0.890   1.360  11.296  0.0644 -1.2660 -0.1644
19686TIP3    H280474   0.987   1.476  11.291 -2.0731  0.6271  0.5848
19687TIP3   OH280475   1.694   6.266   6.160  0.1205 -0.5805 -0.0020
19687TIP3    H180476   1.750   6.343   6.162 -0.7596  0.0561  1.4105
19687TIP3    H280477   1.718   6.217   6.238  0.2348 -1.4450 -0.5632
19688TIP3   OH280478   0.209   1.801   1.857 -0.0899 -0.4842  0.8651
19688TIP3    H180479   0.210   1.808   1.952 -1.2669  1.7745  0.7990
19688TIP3    H280480   0.147   1.869   1.829  0.5675 -0.7714 -1.5365
19689TIP3   OH280481   5.925   6.189  11.938  0.1540  0.0536 -0.1719
19689TIP3    H180482   5.940   6.176  11.845  0.0763  0.2549 -0.2126
19689TIP3    H280483   5.985   6.259  11.963 -1.0792  1.2451 -0.4547
19690TIP3   OH280484   6.481   2.121  16.239 -0.0247  0.2111  0.5423
19690TIP3    H180485   6.399   2.133  16.191 -0.0667  0.3002  0.6360
19690TIP3    H280486   6.454   2.102  16.329  0.0583  0.3297  0.5931
19691TIP3   OH280487   1.087   0.417  12.407  0.1591 -0.0071  0.5307
19691TIP3    H180488   1.050   0.335  12.439  1.7928 -1.2218 -0.5162
19691TIP3    H280489   1.113   0.463  12.486 -0.8640 -0.4362  1.1429
19692TIP3   OH280490   4.384   6.407   5.035  0.0437  0.0088  0.4717
19692TIP3    H180491   4.417   6.339   5.094  0.9448 -0.9547 -1.0886
19692TIP3    H280492   4.462   6.447   4.997 -0.5005  1.1754  0.5098
19693TIP3   OH280493   4.568   5.803  16.830  0.4434  0.3057  0.2746
19693TIP3    H180494   4.638   5.836  16.886 -0.4769  0.0109  1.6494
19693TIP3    H280495   4.599   5.819  16.741  1.5610  1.6029  0.8620
19694TIP3   OH280496   6.305   6.550  12.421  0.6734  0.3965  0.0023
19694TIP3    H180497   6.297   6.531  12.328 -1.1091  1.0883 -0.0203
19694TIP3    H280498   6.234   6.502  12.462  0.2616  1.6042  0.7558
19695TIP3   OH280499   2.373   0.507   5.693  0.3027  0.2573 -0.0989
19695TIP3    H180500   2.420   0.533   5.773  3.0264  2.3711 -2.1703
19695TIP3    H280501   2.351   0.415   5.708  1.9207  0.1626  2.5374
19696TIP3   OH280502   2.819   6.225  12.793 -0.6879  0.2922  0.3125
19696TIP3    H180503   2.856   6.204  12.708 -0.2350 -0.6601  0.7248
19696TIP3    H280504   2.868   6.302  12.822 -1.2800  1.0091 -0.5458
19697TIP3   OH280505   4.597   2.187   0.948  0.2143  0.0805  0.0059
19697TIP3    H180506   4.546   2.190   0.868  1.8131  1.1582 -1.0402
19697TIP3    H280507   4.625   2.278   0.962  0.0683 -0.1062  1.7260
19698TIP3   OH280508   0.112   4.798  14.581 -0.2786 -0.3931  0.1143
19698TIP3    H180509   0.088   4.853  14.506 -0.3358 -1.3790 -0.6062
19698TIP3    H280510   0.055   4.828  14.652 -0.4181  0.3631 -0.3117
19699TIP3   OH280511   4.657   0.090   4.624  0.0422  0.1347 -0.4752
19699TIP3    H180512   4.658   0.033   4.546  0.4798 -0.5912  0.0455
19699TIP3    H280513   4.748   0.116   4.636 -0.0540  0.3959 -0.3169
19700TIP3   OH280514   6.252   0.661  16.545 -0.1419 -0.4191  0.4573
19700TIP3    H180515   6.265   0.731  16.481 -0.5347 -0.3684  0.4299
19700TIP3    H280516   6.161   0.633  16.532 -1.0889  1.3071  2.6674
19701TIP3   OH280517   1.056   3.719  15.368 -0.0654  0.0377  0.1579
19701TIP3    H180518   1.067   3.770  15.449  1.4388  0.0336 -0.0235
19701TIP3    H280519   1.037   3.631  15.399  3.3874 -0.6705  0.6700
19702TIP3   OH280520   0.092   4.328   0.568 -0.0175 -0.0277  0.5707
19702TIP3    H180521   0.035   4.362   0.499  1.3659 -1.9453 -1.6460
19702TIP3    H280522   0.040   4.259   0.609  0.8820 -2.4714 -2.1120
19703TIP3   OH280523   2.225   6.555   4.855  0.2091 -0.5049 -0.0175
19703TIP3    H180524   2.140   6.558   4.810 -0.0592  1.5561  0.5267
19703TIP3    H280525   2.288   6.583   4.788 -0.0322  1.3553  0.4782
19704TIP3   OH280526   1.011   2.305   3.426 -0.0778  0.7663  0.1096
19704TIP3    H180527   0.999   2.314   3.521 -1.5613  1.4117 -0.1167
19704TIP3    H280528   1.065   2.380   3.402  3.2140 -1.1492  0.8617
19705TIP3   OH280529   0.828   1.692   1.394  0.1173  0.0712  0.2901
19705TIP3    H180530   0.810   1.785   1.381 -0.1595  0.4658  2.9374
19705TIP3    H280531   0.908   1.690   1.446  1.8996 -1.3567 -2.2787
19706TIP3   OH280532   2.913   2.905  14.537  0.6669 -0.2947 -0.5079
19706TIP3    H180533   2.845   2.843  14.511 -0.3798  1.0565 -1.0909
19706TIP3    H280534   2.913   2.971  14.468  1.1581  0.8096  0.5181
19707TIP3   OH280535   3.813   5.435  14.793 -0.1038  0.0540  0.2133
19707TIP3    H180536   3.884   5.479  14.841  0.7462  1.4868 -2.1670
19707TIP3    H280537   3.744   5.502  14.787 -0.3212 -0.2146 -0.2967
19708TIP3   OH280538   3.696   3.343   3.877  0.1785  0.5324  0.1095
19708TIP3    H180539   3.751   3.329   3.800  0.5211 -0.2320  0.4715
19708TIP3    H280540   3.612   3.372   3.843 -0.1876 -1.3259 -0.6800
19709TIP3   OH280541   6.651   1.876   4.698  0.1474  0.2991 -0.3516
19709TIP3    H180542   6.639   1.939   4.769  1.2014 -0.7656  0.8158
19709TIP3    H280543   6.710   1.919   4.637  1.2948  0.2634  0.7070
19710TIP3   OH280544   5.775   2.793   5.882  0.1182  0.1097 -0.2376
19710TIP3    H180545   5.711   2.851   5.841  0.5563  0.0710 -0.9831
19710TIP3    H280546   5.858   2.814   5.839  0.1993 -1.4101 -0.8774
19711TIP3   OH280547   1.294   0.247   0.322  0.0755  0.3037  0.1467
19711TIP3    H180548   1.199   0.258   0.323  0.1742  1.5158 -1.2679
19711TIP3    H280549   1.322   0.287   0.240  1.8855  0.5118  0.8281
19712TIP3   OH280550   1.595   1.050  11.076 -1.1025  0.4325  0.5044
19712TIP3    H180551   1.588   1.053  10.980 -0.7997  1.1532  0.4950
19712TIP3    H280552   1.548   1.128  11.105  0.2819  1.1795  0.8373
19713TIP3   OH280553   0.597   2.638   3.946 -0.4364 -0.3293  0.0148
19713TIP3    H180554   0.588   2.733   3.951  0.0914 -0.2823  0.1309
19713TIP3    H280555   0.568   2.616   3.857 -0.1746 -0.0129 -0.1532
19714TIP3   OH280556   5.182   2.205  11.709  0.4515  0.3441 -0.0808
19714TIP3    H180557   5.273   2.192  11.735  0.1920 -0.3816  0.4960
19714TIP3    H280558   5.161   2.294  11.737  1.3204  0.9469 -1.2553
19715TIP3   OH280559   4.489   6.208   3.911 -0.2816  0.2486  0.0656
19715TIP3    H180560   4.578   6.234   3.935 -0.2289 -0.0865  0.2426
19715TIP3    H280561   4.492   6.200   3.816  0.6785 -2.5717  0.2433
19716TIP3   OH280562   4.488   6.340   1.346 -0.3799 -0.0087 -0.5751
19716TIP3    H180563   4.468   6.382   1.429 -0.5481 -0.8085 -0.2062
19716TIP3    H280564   4.530   6.257   1.370 -1.5650 -0.8369 -1.2495
19717TIP3   OH280565   1.974   2.021   6.157  0.3898  0.0235 -0.1108
19717TIP3    H180566   1.917   2.025   6.234 -2.0537 -2.8048 -1.5274
19717TIP3    H280567   2.017   1.936   6.164 -0.5647 -0.7118 -2.1571
19718TIP3   OH280568   6.727   2.053  10.990  0.1773  0.0043  0.2992
19718TIP3    H180569   6.648   2.096  11.023 -0.5543 -0.3230 -0.9405
19718TIP3    H280570   6.696   1.999  10.917  1.4183 -0.8472  0.3718
19719TIP3   OH280571   2.905   4.005   4.354 -0.0697  0.1228  0.4409
19719TIP3    H180572   2.891   4.023   4.261 -0.3474  3.0200  0.9567
19719TIP3    H280573   2.994   3.973   4.360 -0.3430 -0.9420 -0.8961
19720TIP3   OH280574   6.565   1.646   0.768  0.0297 -0.3808 -0.1604
19720TIP3    H180575   6.615   1.677   0.692  1.1197  4.2464  2.0774
19720TIP3    H280576   6.628   1.644   0.839 -2.0560  1.7950  1.9264
19721TIP3   OH280577   4.453   4.429  14.187 -0.1323  0.3942  0.2087
19721TIP3    H180578   4.424   4.340  14.206 -1.3955  0.8660  0.6465
19721TIP3    H280579   4.546   4.430  14.207 -0.1684 -0.7584  0.4588
19722TIP3   OH280580   6.577   6.583   2.307 -0.0141 -0.1270 -0.0634
19722TIP3    H180581   6.573   6.598   2.213  0.1931 -0.0868 -0.0649
19722TIP3    H280582   6.575   6.671   2.345 -0.7113 -0.1563 -0.0064
19723TIP3   OH280583   3.255   1.423  15.537 -0.3262  0.2337 -0.1981
19723TIP3    H180584   3.288   1.512  15.548 -1.5714  0.6405  0.3910
19723TIP3    H280585   3.318   1.369  15.586  0.6134  0.7367 -0.8282
19724TIP3   OH280586   3.752   1.961   5.587  0.5106  0.1779  0.7086
19724TIP3    H180587   3.752   1.913   5.670  2.2687 -0.9889  0.1088
19724TIP3    H280588   3.671   1.935   5.543  1.1904 -1.9678  0.6077
19725TIP3   OH280589   0.757   3.008   0.647  0.3390 -0.0942 -0.5051
19725TIP3    H180590   0.757   3.081   0.584  0.6830  0.6257  0.3182
19725TIP3    H280591   0.667   3.008   0.682  0.2531 -0.2602 -0.7232
19726TIP3   OH280592   4.655   5.950   5.458 -0.0463  0.4411  0.2754
19726TIP3    H180593   4.720   5.952   5.528  0.9414  0.5600 -0.6180
19726TIP3    H280594   4.661   5.862   5.422 -0.6907  0.3165  0.4656
19727TIP3   OH280595   0.592   3.533  16.497 -0.4539 -0.3618  0.1954
19727TIP3    H180596   0.500   3.520  16.474  0.0801 -1.1399 -1.7142
19727TIP3    H280597   0.601   3.494  16.583 -1.4237 -2.4802 -0.6015
19728TIP3   OH280598   0.859   3.496  13.739 -0.2699 -0.3890 -0.2518
19728TIP3    H180599   0.776   3.448  13.744 -0.5001  0.0629  0.2571
19728TIP3    H280600   0.926   3.432  13.765 -0.7188 -0.0416  1.8629
19729TIP3   OH280601   3.372   2.800   3.753  0.0716 -0.1581 -0.0278
19729TIP3    H180602   3.388   2.894   3.743 -1.0137  0.2412  1.5615
19729TIP3    H280603   3.433   2.773   3.823  0.1852 -0.5850 -0.2883
19730TIP3   OH280604   2.274   2.767   3.950 -0.1339  0.7283  0.5282
19730TIP3    H180605   2.297   2.767   3.857 -0.9608 -0.6750  0.2934
19730TIP3    H280606   2.182   2.739   3.951  0.6211 -2.0143  1.8893
19731TIP3   OH280607   6.423   1.039   2.197  0.4250  0.2615  0.3095
19731TIP3    H180608   6.477   0.961   2.184  0.8523  0.8173 -1.5054
19731TIP3    H280609   6.337   1.015   2.162  0.3924  0.4376  0.2694
19732TIP3   OH280610   4.079   3.397  10.243  0.7094  0.3518  0.3165
19732TIP3    H180611   4.173   3.378  10.238  1.4362  2.9489  2.1762
19732TIP3    H280612   4.039   3.311  10.254  2.7759 -0.8962 -1.0664
19733TIP3   OH280613   5.572   5.057  12.520  0.2311 -0.8820 -0.6589
19733TIP3    H180614   5.667   5.065  12.523  0.1529  0.6788 -1.5053
19733TIP3    H280615   5.542   5.133  12.470 -1.4357 -1.5668 -0.7950
19734TIP3   OH280616   4.363   1.951  15.358 -0.4886 -0.3604 -0.0937
19734TIP3    H180617   4.357   2.026  15.299 -0.1043 -0.8367 -0.7630
19734TIP3    H280618   4.276   1.912  15.357 -0.5303 -0.2638 -0.2090
19735TIP3   OH280619   4.728   5.076   4.617 -0.2546  0.1651 -0.7667
19735TIP3    H180620   4.736   5.018   4.693 -1.9293 -2.0184 -2.1496
19735TIP3    H280621   4.676   5.027   4.554 -1.0321  2.8642 -2.4107
19736TIP3   OH280622   4.197   6.040  14.067  0.5026 -0.5958 -0.2543
19736TIP3    H180623   4.163   6.122  14.102  0.3054 -1.1032  0.7959
19736TIP3    H280624   4.142   6.022  13.991  1.0406  0.6143 -0.9661
19737TIP3   OH280625   3.051   1.017   6.321 -0.5068 -0.0574 -0.2921
19737TIP3    H180626   3.063   0.925   6.344 -0.4064 -0.4514 -1.8498
19737TIP3    H280627   2.978   1.046   6.376  1.3650 -0.1869  2.4476
19738TIP3   OH280628   4.983   6.672  13.844 -0.6771 -0.0533 -0.4343
19738TIP3    H180629   4.925   6.697  13.772 -0.7255 -0.3588 -0.5053
19738TIP3    H280630   4.944   6.711  13.922 -1.4492 -0.9508 -0.3520
19739TIP3   OH280631   4.779   6.415  15.884 -0.3990 -0.7157 -0.3828
19739TIP3    H180632   4.826   6.440  15.804 -0.9095 -0.2357 -0.5455
19739TIP3    H280633   4.810   6.477  15.950  0.3741 -1.4110 -0.0788
19740TIP3   OH280634   5.962   1.466  17.170  0.1446 -0.0904 -0.7811
19740TIP3    H180635   5.915   1.549  17.171  1.2705  0.5694 -0.5280
19740TIP3    H280636   6.033   1.480  17.107  0.2678 -0.9064 -0.8302
19741TIP3   OH280637   5.255   0.840  14.267  0.1145 -0.0004 -0.2695
19741TIP3    H180638   5.322   0.776  14.290  0.1078  0.1241  0.1066
19741TIP3    H280639   5.249   0.897  14.344 -0.7762 -0.3138 -0.0941
19742TIP3   OH280640   2.827   1.106  16.546 -0.4542  0.1060 -0.4231
19742TIP3    H180641   2.905   1.072  16.591 -0.3362 -0.1870 -0.8445
19742TIP3    H280642   2.857   1.123  16.457 -0.3400  1.9346 -0.0675
19743TIP3   OH280643   3.768   4.232   0.588 -0.6435  0.4328  0.3926
19743TIP3    H180644   3.770   4.231   0.493 -3.2118  0.1173  0.2582
19743TIP3    H280645   3.817   4.155   0.614 -2.2586 -1.1020 -0.8478
19744TIP3   OH280646   5.422   1.905  12.312  0.4592 -0.2548  0.3174
19744TIP3    H180647   5.387   1.921  12.399  0.7146  0.0742  0.3621
19744TIP3    H280648   5.346   1.879  12.260  0.2918 -0.3672  0.6173
19745TIP3   OH280649   0.267   6.408  16.240  0.4806 -0.1656 -0.9004
19745TIP3    H180650   0.315   6.388  16.160 -1.4080 -0.9984 -1.8916
19745TIP3    H280651   0.176   6.385  16.220 -0.1129 -0.0622  1.3678
19746TIP3   OH280652   1.351   0.626  15.718  0.8570 -0.2576  0.1572
19746TIP3    H180653   1.393   0.700  15.763 -0.0468 -0.4480  1.3801
19746TIP3    H280654   1.280   0.599  15.777  1.6376 -2.6091  0.1271
19747TIP3   OH280655   1.910   3.131  13.835  0.2907  0.5128  0.0950
19747TIP3    H180656   1.888   3.131  13.928 -1.5647  0.7100 -0.2892
19747TIP3    H280657   1.867   3.209  13.801 -0.6908 -0.5630 -1.2477
19748TIP3   OH280658   5.262   0.592   5.223 -0.2140 -0.2025  0.2356
19748TIP3    H180659   5.323   0.525   5.194 -0.8867 -0.5669 -0.3874
19748TIP3    H280660   5.175   0.556   5.204 -0.5850  1.2983 -1.1952
19749TIP3   OH280661   5.614   0.603  14.106 -0.4136 -0.2486  0.2758
19749TIP3    H180662   5.600   0.595  14.012 -2.2167  1.5926  0.3378
19749TIP3    H280663   5.644   0.693  14.119  0.8504 -0.7871  1.3934
19750TIP3   OH280664   4.972   0.355   1.408 -0.2315 -0.0134  0.2312
19750TIP3    H180665   4.935   0.388   1.326  0.0014 -1.9917 -0.7177
19750TIP3    H280666   4.933   0.269   1.419 -0.0083  0.0861  2.0548
19751TIP3   OH280667   2.300   0.488   0.989 -0.1969  0.3994 -0.7924
19751TIP3    H180668   2.395   0.489   0.980 -0.0604 -1.0637  0.1259
19751TIP3    H280669   2.274   0.403   0.954 -0.6069 -1.3786  3.2450
19752TIP3   OH280670   1.207   0.084  15.507 -0.2232  0.2034  0.4873
19752TIP3    H180671   1.298   0.094  15.480  0.5887 -0.8357  2.6247
19752TIP3    H280672   1.170   0.172  15.498  1.0012  0.6641 -0.3447
19753TIP3   OH280673   6.579   1.658   0.065  0.4085  0.2684  0.3240
19753TIP3    H180674   6.620   1.692  -0.015 -1.0768  1.5188  0.0560
19753TIP3    H280675   6.533   1.733   0.103 -0.2372 -0.6834  1.5075
19754TIP3   OH280676   1.176   2.872   5.061 -0.2813  0.1129  0.3054
19754TIP3    H180677   1.259   2.856   5.016 -0.3441 -0.1420  0.2785
19754TIP3    H280678   1.116   2.897   4.991 -0.4281 -0.4692  0.2186
19755TIP3   OH280679   3.680   5.390  13.222  0.1117 -0.1507 -0.5923
19755TIP3    H180680   3.609   5.327  13.220 -0.1909  0.1733 -0.1620
19755TIP3    H280681   3.674   5.436  13.138 -1.8521  1.6808  0.4642
19756TIP3   OH280682   0.428   4.657  13.570  0.3458  0.3785  0.3901
19756TIP3    H180683   0.480   4.704  13.505  0.4719  0.7113  0.7280
19756TIP3    H280684   0.357   4.717  13.593  1.5817  1.2303  2.2380
19757TIP3   OH280685   2.178   5.615  13.922 -0.8299  0.4944 -0.0593
19757TIP3    H180686   2.174   5.678  13.994 -2.1452  1.0243 -0.5563
19757TIP3    H280687   2.187   5.530  13.965 -0.8869  0.8687  0.7085
19758TIP3   OH280688   6.680   4.306  13.148  0.6195 -0.3505  0.1616
19758TIP3    H180689   6.774   4.302  13.165  0.6510 -1.4733 -0.2337
19758TIP3    H280690   6.643   4.342  13.228  1.2993 -0.7061  0.6453
19759TIP3   OH280691   1.585   6.440   2.004  0.0159  0.4996 -0.3795
19759TIP3    H180692   1.508   6.458   1.950 -0.1467 -1.3634 -0.8224
19759TIP3    H280693   1.633   6.372   1.957  1.2007  0.6140  0.6023
19760TIP3   OH280694   2.457   5.498   0.678  0.4293 -0.1129  0.2119
19760TIP3    H180695   2.430   5.417   0.635 -1.5571  1.3335 -1.4627
19760TIP3    H280696   2.406   5.500   0.759 -0.3656 -0.0116 -0.2874
19761TIP3   OH280697   1.710   1.818   3.470  0.5776  0.2390  0.1456
19761TIP3    H180698   1.726   1.912   3.462 -0.3005  0.3646 -0.2950
19761TIP3    H280699   1.730   1.798   3.561  0.7464  0.8600  0.2495
19762TIP3   OH280700   1.843   3.556   4.611  0.1976  0.0406 -0.2982
19762TIP3    H180701   1.763   3.600   4.583  0.2481  0.2307 -0.1441
19762TIP3    H280702   1.839   3.558   4.707  1.9780  2.9873 -0.1859
19763TIP3   OH280703   6.739   5.572   0.608  0.1215 -0.1380 -0.1005
19763TIP3    H180704   6.725   5.573   0.513  1.4478 -0.9760 -0.3180
19763TIP3    H280705   6.833   5.563   0.618 -0.2287 -3.8963  1.2601
19764TIP3   OH280706   6.751   3.136  11.895 -0.1436  0.0201 -0.7231
19764TIP3    H180707   6.746   3.168  11.986 -0.6931 -0.7019 -0.4885
19764TIP3    H280708   6.688   3.064  11.892  0.5460 -0.5614 -1.4335
19765TIP3   OH280709   2.151   2.412   2.152 -0.1799  0.3486  0.0925
19765TIP3    H180710   2.179   2.365   2.073 -1.4306 -1.1456  0.4834
19765TIP3    H280711   2.100   2.486   2.119 -1.0231 -0.4810 -0.5219
19766TIP3   OH280712   0.137   3.645   4.330  0.2654 -0.2468  0.3490
19766TIP3    H180713   0.092   3.659   4.247  1.6609 -0.0303 -0.4046
19766TIP3    H280714   0.075   3.677   4.396 -0.5555  0.3234 -0.6556
19767TIP3   OH280715   4.090   0.367   6.855 -0.1672  0.3636 -0.0118
19767TIP3    H180716   4.092   0.439   6.792 -0.3208 -1.2892 -1.9718
19767TIP3    H280717   4.180   0.334   6.857 -0.4064 -0.3250 -0.2701
19768TIP3   OH280718   1.055   0.100   0.444 -0.0881 -0.3775  0.1124
19768TIP3    H180719   0.979   0.099   0.502 -0.0781  1.0348  0.1824
19768TIP3    H280720   1.023   0.142   0.364  0.5111 -0.1373 -0.0053
19769TIP3   OH280721   2.283   3.233  12.878  0.0085 -0.0392  0.2893
19769TIP3    H180722   2.300   3.201  12.790 -0.7236 -0.5832  0.3407
19769TIP3    H280723   2.206   3.184  12.907 -0.0895  0.5355  1.0195
19770TIP3   OH280724   4.379   5.374  16.403  0.2192 -0.0994 -0.2563
19770TIP3    H180725   4.363   5.359  16.497 -0.2067  2.3311  0.1330
19770TIP3    H280726   4.473   5.359  16.393  0.4223  0.3942  0.7374
19771TIP3   OH280727   3.360   2.599   2.774  0.0665 -0.5710  0.7684
19771TIP3    H180728   3.390   2.672   2.721 -0.8753 -1.1543 -0.6131
19771TIP3    H280729   3.387   2.622   2.863 -2.2266  2.6484  0.8246
19772TIP3   OH280730   0.525   6.711  16.109  0.1356 -0.0217  0.5134
19772TIP3    H180731   0.597   6.674  16.160  0.4252 -0.2864 -0.0771
19772TIP3    H280732   0.551   6.697  16.018 -0.4147  0.3660  0.2922
19773TIP3   OH280733   5.356   1.818   2.760 -0.5007  0.4059 -0.4636
19773TIP3    H180734   5.307   1.753   2.710 -0.7371  0.1597  0.0751
19773TIP3    H280735   5.425   1.848   2.701 -1.0192  0.4149 -1.0725
19774TIP3   OH280736   4.144   1.113   0.427  0.3725  0.3508  0.1540
19774TIP3    H180737   4.146   1.208   0.421  1.6405  0.3692  0.6427
19774TIP3    H280738   4.201   1.084   0.356  2.1905  0.0644  1.6601
19775TIP3   OH280739   5.715   0.695   5.966 -0.5963 -0.5294  0.4744
19775TIP3    H180740   5.757   0.663   6.046  0.4698 -1.5527 -0.4745
19775TIP3    H280741   5.669   0.619   5.930  0.1150 -0.4472 -0.6352
19776TIP3   OH280742   4.899   0.875  12.892 -0.1490 -0.3077  0.1258
19776TIP3    H180743   4.829   0.908  12.948 -0.7397 -0.1299 -0.6963
19776TIP3    H280744   4.970   0.939  12.902  0.9796 -1.8245  2.9904
19777TIP3   OH280745   1.979   6.698  11.874 -0.8500  0.0733 -0.4199
19777TIP3    H180746   1.945   6.648  11.949  1.1948 -1.8233 -0.6753
19777TIP3    H280747   2.066   6.727  11.902 -1.5054  2.6404 -0.7330
19778TIP3   OH280748   2.861   6.115   6.008  0.3891  0.1541  0.2258
19778TIP3    H180749   2.842   6.102   6.101 -0.0541 -1.7546 -0.0888
19778TIP3    H280750   2.776   6.132   5.968  0.1488 -1.8126 -0.2037
19779TIP3   OH280751   5.229   3.543   2.818  0.0614  0.2257 -0.5670
19779TIP3    H180752   5.142   3.580   2.800  0.1871 -0.2259 -2.2527
19779TIP3    H280753   5.218   3.449   2.806 -0.1114 -0.3995  3.1195
19780TIP3   OH280754   6.396   2.842   1.591  0.3741  1.1296  0.3537
19780TIP3    H180755   6.325   2.907   1.596 -0.3772  0.3769 -0.2266
19780TIP3    H280756   6.469   2.890   1.552 -1.2128  0.8701 -3.3746
19781TIP3   OH280757   2.091   0.715  11.075 -0.1892 -0.3720  0.6569
19781TIP3    H180758   2.135   0.694  10.993  0.3417 -0.6976  1.0191
19781TIP3    H280759   2.087   0.810  11.076  2.5253 -0.1976  1.6365
19782TIP3   OH280760   4.208   5.835  13.499 -0.3906  0.5637  0.1257
19782TIP3    H180761   4.192   5.929  13.499  0.1577  0.6608  0.2849
19782TIP3    H280762   4.161   5.802  13.575  0.4583  0.8937  0.8005
19783TIP3   OH280763   5.425   1.058  11.953  0.5634 -0.0341 -0.4464
19783TIP3    H180764   5.330   1.053  11.948  0.4887 -0.2597  0.8433
19783TIP3    H280765   5.445   1.060  12.047  1.6579  3.8534 -0.5852
19784TIP3   OH280766   3.742   4.143  13.377  0.2503 -0.5181  0.2122
19784TIP3    H180767   3.697   4.076  13.428  0.4589  0.7832  2.1839
19784TIP3    H280768   3.832   4.112  13.371  0.0699 -1.0217 -0.0379
19785TIP3   OH280769   0.036   0.285  12.691  0.2909  0.0641 -0.8330
19785TIP3    H180770   0.013   0.298  12.599 -0.6908 -1.5924 -0.8701
19785TIP3    H280771  -0.048   0.292  12.738  0.5794 -0.3926 -0.2397
19786TIP3   OH280772   2.233   1.109  13.869 -0.4317 -0.3839  0.4644
19786TIP3    H180773   2.234   1.120  13.774  0.9841  0.3916  0.5362
19786TIP3    H280774   2.310   1.054  13.888 -1.3155 -1.4406  1.0780
19787TIP3   OH280775   3.079   3.509  10.550 -0.5388  0.1802 -0.3269
19787TIP3    H180776   3.146   3.542  10.490 -1.4344  1.3361 -0.7395
19787TIP3    H280777   3.095   3.556  10.632 -0.4554 -0.0030 -0.2398
19788TIP3   OH280778   2.074   1.214  11.343  0.0914  0.6560  0.0590
19788TIP3    H180779   2.071   1.310  11.335 -1.5516  0.7507  1.1287
19788TIP3    H280780   1.985   1.186  11.320  0.4908 -0.6065 -0.0218
19789TIP3   OH280781   1.767   5.550  13.282  0.0269 -0.0120 -0.2808
19789TIP3    H180782   1.720   5.583  13.359 -0.7361 -1.0401 -0.2931
19789TIP3    H280783   1.826   5.622  13.258  0.9320  0.0108  1.7846
19790TIP3   OH280784   2.855   5.835  15.640 -0.1383  0.6300  0.0907
19790TIP3    H180785   2.777   5.880  15.672 -0.5941 -0.2052  0.1699
19790TIP3    H280786   2.825   5.747  15.618  0.9069  0.0805  0.7649
19791TIP3   OH280787   6.445   6.294  15.171 -0.4690 -0.3736 -0.8431
19791TIP3    H180788   6.440   6.334  15.259 -0.8182 -1.9567 -0.1082
19791TIP3    H280789   6.383   6.345  15.119  0.3366  1.1188 -0.4183
19792TIP3   OH280790   5.068   4.111   0.541  0.1610 -0.2567 -0.2147
19792TIP3    H180791   5.004   4.041   0.523  1.8319 -1.2323 -2.9938
19792TIP3    H280792   5.083   4.106   0.636 -0.7184 -2.8296 -0.1314
19793TIP3   OH280793   2.414   5.697   1.298 -0.7031 -0.1412  0.3330
19793TIP3    H180794   2.498   5.656   1.277 -1.0028 -2.1003  2.5369
19793TIP3    H280795   2.393   5.665   1.386 -1.4743  4.0783  1.9159
19794TIP3   OH280796   4.391   6.645   2.099  0.2130  0.3990  0.3136
19794TIP3    H180797   4.442   6.701   2.158 -1.2573  0.0455  2.0221
19794TIP3    H280798   4.314   6.698   2.076  0.1423  0.0610 -0.2504
19795TIP3   OH280799   3.232   2.670  14.608 -0.3439  0.4772 -0.6475
19795TIP3    H180800   3.223   2.715  14.692  1.5226 -0.2356 -0.0189
19795TIP3    H280801   3.144   2.639  14.588 -0.5404 -0.9537  1.9887
19796TIP3   OH280802   0.541   3.296   2.862  0.8072 -0.3814 -0.0691
19796TIP3    H180803   0.458   3.344   2.867  0.6166 -0.6158 -0.7775
19796TIP3    H280804   0.602   3.348   2.914  0.2884 -0.0507  0.2185
19797TIP3   OH280805   6.665   4.492   4.653  0.4482  0.6181 -0.4998
19797TIP3    H180806   6.644   4.581   4.680 -1.8482 -0.1340  0.4578
19797TIP3    H280807   6.631   4.437   4.723  2.8054 -1.0104 -0.5169
19798TIP3   OH280808   1.998   0.209  16.442  0.3478  0.0218 -0.4791
19798TIP3    H180809   2.038   0.270  16.380  0.7045 -0.0883 -0.3593
19798TIP3    H280810   1.911   0.245  16.458  0.0294 -0.2600 -1.4964
19799TIP3   OH280811   2.924   0.195   5.391  0.5852 -0.2372 -0.3703
19799TIP3    H180812   3.000   0.178   5.336  0.0810 -0.1061 -1.1364
19799TIP3    H280813   2.957   0.193   5.480  2.0949  2.7347 -0.7390
19800TIP3   OH280814   3.492   3.396   0.216 -0.1460 -1.3533  0.8620
19800TIP3    H180815   3.429   3.344   0.266  0.5050 -3.1249 -0.0882
19800TIP3    H280816   3.481   3.367   0.125 -0.6886  1.1607  0.0421
19801TIP3   OH280817   0.623   2.414   2.258 -0.0986 -0.0436 -0.0681
19801TIP3    H180818   0.698   2.470   2.239  0.5161 -0.4649  1.0218
19801TIP3    H280819   0.559   2.472   2.299 -0.4023  0.3233 -1.0287
19802TIP3   OH280820   6.461   4.620  13.145 -0.2478 -0.2525 -0.0877
19802TIP3    H180821   6.421   4.697  13.186  0.9999  0.5863 -0.3988
19802TIP3    H280822   6.517   4.583  13.213  0.5953  0.2124 -0.5182
19803TIP3   OH280823   6.348   0.438  17.125 -0.6067 -0.0369  0.1429
19803TIP3    H180824   6.358   0.506  17.192 -0.0008  0.5227 -0.4963
19803TIP3    H280825   6.259   0.406  17.137 -0.7912  0.6358  0.6814
19804TIP3   OH280826   3.865   1.122   5.530 -0.1330 -0.3012 -0.5136
19804TIP3    H180827   3.862   1.028   5.512  1.5511 -0.1500 -1.8292
19804TIP3    H280828   3.790   1.159   5.483 -0.8244 -0.9720  0.0435
19805TIP3   OH280829   3.247   4.223  16.566 -0.3161  0.1058 -0.0012
19805TIP3    H180830   3.169   4.263  16.529  0.0130  1.5813  0.7853
19805TIP3    H280831   3.278   4.287  16.631  1.1833 -0.7211  0.1525
19806TIP3   OH280832   6.513   2.376  14.929  0.5532  0.2531  0.0796
19806TIP3    H180833   6.492   2.332  14.847 -2.5302  2.4744 -0.4693
19806TIP3    H280834   6.573   2.315  14.973 -0.6837 -2.8196 -2.0922
19807TIP3   OH280835   2.366   4.989   3.677  0.4230  0.3115 -0.8415
19807TIP3    H180836   2.276   5.020   3.688  0.7770  0.8539  0.6552
19807TIP3    H280837   2.357   4.895   3.659 -0.4028  0.1581  0.3080
19808TIP3   OH280838   4.329   3.259  10.325 -0.4062 -0.6687 -0.1479
19808TIP3    H180839   4.294   3.240  10.412 -1.1883  2.5225  0.3688
19808TIP3    H280840   4.399   3.195  10.313 -0.7055 -1.6540  2.5360
19809TIP3   OH280841   5.246   4.867   5.460 -0.3894 -0.2620 -0.3388
19809TIP3    H180842   5.300   4.931   5.412 -0.8486  1.5238  1.4008
19809TIP3    H280843   5.280   4.868   5.549 -1.9176 -0.7115  0.2814
19810TIP3   OH280844   0.714   4.982   3.219 -0.5351 -0.7288  0.2208
19810TIP3    H180845   0.724   5.014   3.308 -2.7429  0.9698 -0.0698
19810TIP3    H280846   0.748   5.052   3.163  2.3048 -2.4078 -0.3388
19811TIP3   OH280847   4.953   4.325  11.605 -0.2600 -0.1364 -0.0325
19811TIP3    H180848   4.920   4.253  11.551  1.2415 -1.4679  0.7418
19811TIP3    H280849   5.045   4.333  11.581  0.1759 -0.0527  1.5469
19812TIP3   OH280850   0.026   3.865  14.954  0.5034  0.3954 -0.0953
19812TIP3    H180851  -0.049   3.855  14.895 -0.9898 -0.4214  1.8275
19812TIP3    H280852   0.043   3.959  14.956 -0.0588  0.5306 -1.0317
19813TIP3   OH280853   2.430   1.602  15.869  0.2488 -0.2588  0.2278
19813TIP3    H180854   2.468   1.675  15.820  0.5806 -0.3461  0.3481
19813TIP3    H280855   2.498   1.578  15.932  0.0335 -0.4925  0.3741
19814TIP3   OH280856   4.115   3.435  15.293 -1.3489 -0.4150 -0.9101
19814TIP3    H180857   4.149   3.500  15.354 -0.2022 -1.3232 -0.5650
19814TIP3    H280858   4.160   3.354  15.316 -0.9001 -0.7930 -2.9369
19815TIP3   OH280859   4.462   3.321  13.971 -0.0894 -0.0354 -0.2531
19815TIP3    H180860   4.505   3.407  13.969 -0.5652  0.3308  2.0648
19815TIP3    H280861   4.389   3.330  13.911 -0.1165  1.2050 -0.0796
19816TIP3   OH280862   1.130   4.584  12.302  0.2277 -0.6375  0.0335
19816TIP3    H180863   1.098   4.504  12.261 -4.8432  1.7926 -1.6582
19816TIP3    H280864   1.212   4.603  12.257  0.2388 -3.4829 -1.3665
19817TIP3   OH280865   0.106   4.936   0.985  0.2895 -0.6559 -0.2230
19817TIP3    H180866   0.082   5.009   0.927  0.9422  0.1278  0.4778
19817TIP3    H280867   0.198   4.920   0.967  1.1353  1.0746  2.1343
19818TIP3   OH280868   3.587   1.662   4.213 -0.1917  0.2331  0.0153
19818TIP3    H180869   3.627   1.575   4.205 -0.6894 -0.0657  0.6183
19818TIP3    H280870   3.493   1.644   4.216 -0.3830  0.9098 -1.2584
19819TIP3   OH280871   6.457   6.528  16.160 -0.1542  0.1538  0.6368
19819TIP3    H180872   6.431   6.580  16.236 -2.6082  1.4173 -0.9231
19819TIP3    H280873   6.485   6.444  16.196 -1.6194  0.5569  2.9297
19820TIP3   OH280874   3.853   5.524   6.231 -0.1238 -0.2120  0.1999
19820TIP3    H180875   3.789   5.596   6.237  0.0358 -0.0466 -0.0635
19820TIP3    H280876   3.937   5.568   6.222 -0.0547 -0.4385 -0.2508
19821TIP3   OH280877   3.767   6.319   5.179 -0.2253  0.6091 -0.4085
19821TIP3    H180878   3.735   6.237   5.143  1.4399 -0.2747  0.0247
19821TIP3    H280879   3.801   6.295   5.266 -0.9273  2.0144  0.2876
19822TIP3   OH280880   6.074   5.380  11.709  0.3970 -0.5596  0.2408
19822TIP3    H180881   6.146   5.319  11.728  0.8953  0.0181  0.2456
19822TIP3    H280882   6.068   5.434  11.788  0.0287 -0.5342  0.1953
19823TIP3   OH280883   3.115   6.680  14.142 -0.3706 -0.3921  0.8729
19823TIP3    H180884   3.180   6.701  14.075 -0.1260 -0.6188  1.0386
19823TIP3    H280885   3.139   6.734  14.217 -1.2195  0.5931  0.4578
19824TIP3   OH280886   3.556   4.761  13.476  0.7204 -0.2126 -0.1032
19824TIP3    H180887   3.594   4.826  13.535 -0.5094 -0.4853  1.0620
19824TIP3    H280888   3.465   4.752  13.507  0.4268 -1.3285 -1.2279
19825TIP3   OH280889   4.720   0.235  13.551  0.3533  0.3723  0.3200
19825TIP3    H180890   4.768   0.193  13.622  0.9514 -1.8887 -1.3226
19825TIP3    H280891   4.638   0.186  13.544  0.2781  0.6034 -0.5297
19826TIP3   OH280892   6.199   6.216  14.344 -0.2639 -1.0025 -0.6300
19826TIP3    H180893   6.134   6.168  14.293 -0.3520  0.4033 -1.9255
19826TIP3    H280894   6.264   6.244  14.280  0.8837 -1.1638  0.4245
19827TIP3   OH280895   3.065   6.276  13.493  0.1865 -0.0456  0.5112
19827TIP3    H180896   3.108   6.223  13.426  0.6958  0.3939  0.4800
19827TIP3    H280897   3.124   6.351  13.505 -1.1051  1.1454 -0.3287
19828TIP3   OH280898   5.260   0.620  11.801  0.1017 -0.1786  0.2090
19828TIP3    H180899   5.201   0.628  11.727  0.5265 -1.0497 -0.2374
19828TIP3    H280900   5.313   0.542  11.782  0.9275  0.1888  0.9188
19829TIP3   OH280901   2.140   5.146  13.300  0.2766  0.1550 -0.1475
19829TIP3    H180902   2.059   5.154  13.351  1.2452 -1.3992  1.7686
19829TIP3    H280903   2.145   5.228  13.250 -0.8700  1.7464  2.1461
19830TIP3   OH280904   3.475   1.537   2.543 -0.3747 -0.3481 -0.2289
19830TIP3    H180905   3.508   1.457   2.503  0.2846 -0.0736 -0.2373
19830TIP3    H280906   3.506   1.608   2.486  1.3690  0.1342  1.2114
19831TIP3   OH280907   1.610   3.285   3.228 -0.0786  0.2390  0.7420
19831TIP3    H180908   1.676   3.240   3.279 -1.3654 -1.1111  1.2865
19831TIP3    H280909   1.628   3.261   3.137 -0.3489 -0.8648  0.9701
19832TIP3   OH280910   0.355   2.448   4.608  0.4202 -0.6077 -0.1824
19832TIP3    H180911   0.447   2.474   4.602  0.0830  0.7318  0.0790
19832TIP3    H280912   0.326   2.481   4.693 -0.8194  0.8244 -1.1050
19833TIP3   OH280913   2.435   0.697  16.058 -0.3544 -0.0598 -0.1436
19833TIP3    H180914   2.460   0.713  16.149  0.4436  0.1476 -0.3910
19833TIP3    H280915   2.350   0.740  16.049 -1.5912 -2.1027  1.1330
19834TIP3   OH280916   5.014   0.658   5.485  0.8238  0.1577  0.5637
19834TIP3    H180917   4.976   0.742   5.462 -1.8558 -1.3457 -1.0837
19834TIP3    H280918   4.981   0.639   5.573 -0.5981 -0.2121 -0.0344
19835TIP3   OH280919   2.395   4.117   6.142 -0.5161  0.1053 -0.2801
19835TIP3    H180920   2.411   4.206   6.174  0.3513 -0.0578 -0.2394
19835TIP3    H280921   2.329   4.081   6.202 -0.9589  0.7524 -0.3675
19836TIP3   OH280922   0.501   3.189  15.391 -0.2362 -0.3215 -1.3255
19836TIP3    H180923   0.478   3.265  15.338  0.3763  2.7754  2.4470
19836TIP3    H280924   0.596   3.194  15.401  0.1026 -2.7718 -2.4444
19837TIP3   OH280925   2.056   0.857  15.286 -0.3180  0.5858  0.1026
19837TIP3    H180926   2.105   0.904  15.353 -0.6223  1.3815 -0.2194
19837TIP3    H280927   2.052   0.766  15.318  2.1644  0.2675 -0.3184
19838TIP3   OH280928   1.006   6.211   6.676 -0.6916 -0.1000  0.3885
19838TIP3    H180929   0.936   6.200   6.741 -0.2700  0.7447  0.9984
19838TIP3    H280930   1.082   6.169   6.716  0.5946  3.5101  2.1766
19839TIP3   OH280931   2.082   0.598  16.329 -0.0900 -0.0555  0.1129
19839TIP3    H180932   2.163   0.639  16.358 -0.2730  0.6824 -0.3915
19839TIP3    H280933   2.038   0.572  16.411 -0.0494  0.9193  0.4608
19840TIP3   OH280934   0.384   5.564   6.473 -0.1017  0.1872 -0.0250
19840TIP3    H180935   0.321   5.552   6.403 -0.9686 -0.0764  0.7848
19840TIP3    H280936   0.345   5.630   6.530  0.1123 -0.3417  0.7523
19841TIP3   OH280937   0.037   3.894  13.301 -0.1341 -0.3759 -0.4056
19841TIP3    H180938   0.035   3.847  13.384 -0.7267 -0.7600 -0.6345
19841TIP3    H280939   0.000   3.833  13.238  0.5577 -0.1849 -1.0052
19842TIP3   OH280940   0.966   6.693   4.575  0.7987  0.0403 -0.5498
19842TIP3    H180941   0.917   6.704   4.493 -0.3508  0.3789  0.1711
19842TIP3    H280942   0.930   6.613   4.613  1.5015 -0.2487 -0.4836
19843TIP3   OH280943   3.885   4.918  14.037  0.0136 -0.0811  0.0404
19843TIP3    H180944   3.935   4.891  14.114  0.7003  0.2899 -0.2656
19843TIP3    H280945   3.867   5.011  14.051  0.2168  0.0092 -0.2913
19844TIP3   OH280946   0.800   0.334   4.244 -0.2711  0.0973 -0.4160
19844TIP3    H180947   0.712   0.356   4.212  0.1671  0.5646 -1.3353
19844TIP3    H280948   0.821   0.251   4.201 -0.7800 -0.7208  0.8472
19845TIP3   OH280949   3.815   4.547   2.205 -0.3144 -0.1318 -0.5634
19845TIP3    H180950   3.818   4.456   2.233 -1.5062  0.2120  0.7917
19845TIP3    H280951   3.896   4.585   2.241  0.5166 -0.7792 -1.6993
19846TIP3   OH280952   0.876   3.933  15.251 -0.2410 -0.4484 -0.3229
19846TIP3    H180953   0.928   3.874  15.305 -0.7053  0.2135  0.8903
19846TIP3    H280954   0.875   3.892  15.164 -0.4771 -2.1742  0.4494
19847TIP3   OH280955   1.376   1.986   5.010  0.4030 -0.2626 -0.4576
19847TIP3    H180956   1.341   1.918   4.952  1.0239 -2.0164  1.0857
19847TIP3    H280957   1.457   1.948   5.044 -1.2530 -0.6788  3.6842
19848TIP3   OH280958   2.922   5.683  14.322 -0.0136 -0.4540  0.2026
19848TIP3    H180959   3.004   5.635  14.328  1.3420  1.7303  0.4660
19848TIP3    H280960   2.941   5.768  14.361 -2.7941 -0.2879  1.4268
19849TIP3   OH280961   6.693   5.807  14.021  0.2484 -0.0596  0.0850
19849TIP3    H180962   6.634   5.871  13.981 -1.8362  0.2570  3.2479
19849TIP3    H280963   6.680   5.727  13.970 -0.7694  0.7687 -1.0204
19850TIP3   OH280964   2.121   2.367  17.102  0.2882 -1.0545 -0.1757
19850TIP3    H180965   2.084   2.368  17.190 -0.0605  1.9762 -0.2484
19850TIP3    H280966   2.058   2.318  17.049 -0.8315 -0.6922  0.7816
19851TIP3   OH280967   6.072   3.323  16.691  0.2460 -0.0324  0.2621
19851TIP3    H180968   6.013   3.366  16.753 -0.9624 -1.6976  0.3376
19851TIP3    H280969   6.020   3.251  16.655  1.4109 -0.0042 -1.6036
19852TIP3   OH280970   5.193   0.388  17.034 -0.4840  0.1891 -0.2700
19852TIP3    H180971   5.157   0.409  17.121  0.9650  0.4295  0.2933
19852TIP3    H280972   5.194   0.293  17.031  0.3493  0.1691  0.3724
19853TIP3   OH280973   4.045   6.239   2.547 -0.0788  0.0269  0.5693
19853TIP3    H180974   4.125   6.255   2.596  0.1886 -1.8459  0.8236
19853TIP3    H280975   4.069   6.255   2.456  0.5956 -0.5717  0.6385
19854TIP3   OH280976   2.436   1.689   5.694  0.2158 -0.1516  0.4143
19854TIP3    H180977   2.426   1.649   5.608  0.0935  1.6339 -0.4557
19854TIP3    H280978   2.371   1.759   5.696  0.5731  0.1815  1.7434
19855TIP3   OH280979   4.349   6.098   4.902  0.7803  0.2990  0.4139
19855TIP3    H180980   4.343   6.187   4.937  0.5427  0.5527 -0.2492
19855TIP3    H280981   4.320   6.106   4.811 -0.0756 -0.6033  0.5890
19856TIP3   OH280982   3.278   6.118  15.295  0.4433  0.2011 -0.0992
19856TIP3    H180983   3.279   6.207  15.331 -0.9391 -0.0077  0.5275
19856TIP3    H280984   3.341   6.070  15.349  0.5886  0.6044  0.0985
19857TIP3   OH280985   6.114   0.705   0.480 -0.3086  0.0056 -0.5839
19857TIP3    H180986   6.026   0.740   0.469  0.2957  1.7684 -0.1461
19857TIP3    H280987   6.109   0.615   0.447 -2.1858  0.1630 -0.8124
19858TIP3   OH280988   0.489   0.175   3.150 -0.5864  0.6947  0.9375
19858TIP3    H180989   0.561   0.117   3.124 -0.1296  0.3981  2.7104
19858TIP3    H280990   0.462   0.217   3.069  0.0931 -0.8532 -0.1446
19859TIP3   OH280991   6.662   0.415   0.915  0.1164 -0.2890 -0.7657
19859TIP3    H180992   6.731   0.446   0.973 -1.0946  0.1660  0.5040
19859TIP3    H280993   6.587   0.471   0.935 -1.1990 -2.0034 -0.6858
19860TIP3   OH280994   5.858   2.427  16.801  0.1141  0.2884 -0.1002
19860TIP3    H180995   5.854   2.465  16.888  2.3742  1.2984 -0.3670
19860TIP3    H280996   5.891   2.498  16.745 -0.3903 -0.6078 -1.6146
19861TIP3   OH280997   1.657   1.366   0.969  0.0818 -0.1930 -0.4099
19861TIP3    H180998   1.691   1.325   1.048  0.3508  0.3098 -0.2660
19861TIP3    H280999   1.570   1.327   0.958 -0.3054  0.3360  0.6018
19862TIP3   OH281000   4.515   5.430  11.075 -0.5398  0.3199 -0.0139
19862TIP3    H181001   4.467   5.454  10.996  1.3016  1.5644 -0.8314
19862TIP3    H281002   4.607   5.448  11.054  0.2594 -1.3486  1.6829
19863TIP3   OH281003   0.296   1.700   3.346  0.8359  0.3383  0.1861
19863TIP3    H181004   0.327   1.613   3.320  1.5732  0.8873 -0.8268
19863TIP3    H281005   0.355   1.726   3.417  0.4856 -0.0550  0.6336
19864TIP3   OH281006   2.528   1.845   6.244 -0.2859 -0.3350 -0.9986
19864TIP3    H181007   2.541   1.910   6.314 -0.2512  0.0710 -1.3787
19864TIP3    H281008   2.559   1.763   6.282 -1.1576 -0.3089 -0.1967
19865TIP3   OH281009   3.200   3.151   2.781 -0.4678 -0.2445 -0.1599
19865TIP3    H181010   3.247   3.202   2.847 -1.8435  0.4579  0.3389
19865TIP3    H281011   3.195   3.063   2.818 -0.8357  0.0363  0.4971
19866TIP3   OH281012   4.118   6.234  16.861 -0.0421  0.3819 -0.5312
19866TIP3    H181013   4.080   6.208  16.946 -1.8435 -2.4648 -2.0310
19866TIP3    H281014   4.204   6.193  16.860 -0.6528 -0.9546 -0.6488
19867TIP3   OH281015   6.144   3.649   5.808  0.0101 -0.1459  0.4785
19867TIP3    H181016   6.145   3.568   5.758  0.2448  0.3247 -0.2933
19867TIP3    H281017   6.206   3.706   5.763  0.2977  0.2629  1.3585
19868TIP3   OH281018   2.843   6.346  11.333 -0.5564  0.3472 -0.0788
19868TIP3    H181019   2.773   6.286  11.306 -0.1038  0.7106 -2.1695
19868TIP3    H281020   2.829   6.356  11.427 -1.5948 -1.8006  0.0745
19869TIP3   OH281021   5.333   6.070  10.794 -0.6559 -0.5976 -0.6571
19869TIP3    H181022   5.345   6.039  10.884  0.0088  1.7448  0.1356
19869TIP3    H281023   5.417   6.055  10.752  0.4459  1.9491  0.3952
19870TIP3   OH281024   6.177   6.642   2.908  0.1462  1.2935 -0.0163
19870TIP3    H181025   6.259   6.593   2.917 -0.6493  0.1014  1.1814
19870TIP3    H281026   6.190   6.697   2.831  1.0485 -0.9193 -1.5596
19871TIP3   OH281027   0.133   6.404   3.146 -0.0660 -0.3432  0.2914
19871TIP3    H181028   0.108   6.484   3.101 -1.6327 -0.2755  1.2151
19871TIP3    H281029   0.097   6.333   3.093 -1.2815 -0.2924  1.0213
19872TIP3   OH281030   4.019   5.924   0.338  0.5928  0.0402  0.0277
19872TIP3    H181031   3.958   5.890   0.272  1.3762  1.0938 -1.2826
19872TIP3    H281032   4.091   5.961   0.288  1.7736 -0.1333  1.5234
19873TIP3   OH281033   6.636   4.663  11.385 -0.0303 -0.3967  0.0695
19873TIP3    H181034   6.587   4.601  11.331 -1.0998  1.4602 -1.2312
19873TIP3    H281035   6.575   4.686  11.455 -0.2231  0.2844 -0.3114
19874TIP3   OH281036   1.430   1.388   3.914  0.7929  0.3198  0.0177
19874TIP3    H181037   1.389   1.410   3.998 -1.4842 -1.9800 -0.3765
19874TIP3    H281038   1.452   1.295   3.923 -1.6266 -0.6338 -2.6542
19875TIP3   OH281039   5.342   1.320  15.652  0.4627  0.5904  0.0314
19875TIP3    H181040   5.307   1.394  15.702  0.0928  1.2810 -1.1859
19875TIP3    H281041   5.265   1.277  15.616  0.7468  0.6786 -0.7009
19876TIP3   OH281042   1.243   5.773  13.730  0.2510  0.1425  0.4661
19876TIP3    H181043   1.249   5.740  13.820  0.4703  4.9020  2.5028
19876TIP3    H281044   1.156   5.811  13.724  0.3576  0.1654 -1.2294
19877TIP3   OH281045   6.628   6.535   4.934  0.2383 -0.0105 -0.0981
19877TIP3    H181046   6.637   6.627   4.907  0.3010 -0.2948 -1.0807
19877TIP3    H281047   6.694   6.489   4.883 -0.6352 -0.7833 -0.5619
19878TIP3   OH281048   6.729   3.191  12.758  0.2415 -0.5455 -0.4597
19878TIP3    H181049   6.634   3.187  12.768  0.4377 -2.2263  1.4952
19878TIP3    H281050   6.761   3.211  12.847  1.7340 -1.0328 -0.8545
19879TIP3   OH281051   6.525   1.980   2.478  0.2531 -0.0196  0.4470
19879TIP3    H181052   6.549   2.024   2.559  2.2822  0.3072 -0.2685
19879TIP3    H281053   6.564   1.893   2.485  1.2392  0.3161 -0.5006
19880TIP3   OH281054   0.477   2.385  15.230 -0.2056  0.2364 -0.1683
19880TIP3    H181055   0.416   2.318  15.201  0.8012 -0.0936 -1.6296
19880TIP3    H281056   0.484   2.372  15.325 -1.3647 -0.5734 -0.1811
19881TIP3   OH281057   1.539   0.514  11.906 -0.0240  0.3900 -0.0522
19881TIP3    H181058   1.484   0.479  11.975 -0.5323  0.1098 -0.5899
19881TIP3    H281059   1.572   0.437  11.860 -0.7957  0.5911 -0.9669
19882TIP3   OH281060   4.033   3.297   0.097  0.2622  0.6113 -0.1614
19882TIP3    H181061   3.944   3.318   0.066  0.2389  1.8391  0.6637
19882TIP3    H281062   4.040   3.341   0.182  1.6059  0.3862 -0.1337
19883TIP3   OH281063   6.097   2.262   1.935 -0.1734 -0.0818  0.0228
19883TIP3    H181064   6.044   2.235   2.010 -2.2271  0.2950 -1.2252
19883TIP3    H281065   6.182   2.285   1.973 -1.2962  0.6060  2.3106
19884TIP3   OH281066   5.451   6.370   3.946 -0.0072 -0.1618  0.7150
19884TIP3    H181067   5.533   6.335   3.911  0.7112 -0.3407  2.4557
19884TIP3    H281068   5.412   6.296   3.992  0.5484  0.7388  2.7431
19885TIP3   OH281069   2.918   0.025  15.895 -0.2589 -0.1806  0.0506
19885TIP3    H181070   3.009   0.013  15.924 -0.1978  0.2440  0.0336
19885TIP3    H281071   2.874  -0.055  15.923 -0.1410  0.1005  1.0810
19886TIP3   OH281072   3.392   2.605  13.617  0.4572 -0.3211 -0.4459
19886TIP3    H181073   3.337   2.654  13.556  0.5401 -1.0765 -1.1597
19886TIP3    H281074   3.480   2.611  13.580  0.6263 -0.2238 -0.0311
19887TIP3   OH281075   5.907   0.182   4.457 -0.9265 -0.8799  0.1979
19887TIP3    H181076   5.821   0.142   4.470 -1.3494 -0.4884 -1.2337
19887TIP3    H281077   5.902   0.222   4.370  0.2617  0.2916  0.6325
19888TIP3   OH281078   6.615   0.997  15.731  0.6315  0.1517 -0.2634
19888TIP3    H181079   6.663   1.027  15.808  0.5261 -2.9854  1.1908
19888TIP3    H281080   6.683   0.961  15.673  0.5279  0.8607 -0.8439
19889TIP3   OH281081   3.363   5.033  14.296  0.2373  0.2182 -0.3468
19889TIP3    H181082   3.351   4.938  14.291 -4.3824  0.6128 -0.9209
19889TIP3    H281083   3.385   5.059  14.207  1.5314 -0.2383 -0.1866
19890TIP3   OH281084   0.523   0.653   0.881  0.3183 -0.3895  0.8283
19890TIP3    H181085   0.592   0.653   0.814 -0.8261  0.3977 -0.4043
19890TIP3    H281086   0.547   0.582   0.940  2.7085  0.4548  1.0160
19891TIP3   OH281087   2.761   5.387  10.308  0.4143  0.2220  0.0362
19891TIP3    H181088   2.847   5.390  10.267  0.7012 -0.4746  0.5704
19891TIP3    H281089   2.773   5.427  10.394 -0.2303  1.8629 -0.5937
19892TIP3   OH281090   4.181   0.666   0.296 -0.0606  0.0779  1.0078
19892TIP3    H181091   4.126   0.690   0.370  0.3446  2.2396  0.6748
19892TIP3    H281092   4.265   0.643   0.335  0.3938  1.9627  1.2261
19893TIP3   OH281093   1.175   3.821   1.652 -0.3747 -0.3309  0.9061
19893TIP3    H181094   1.090   3.796   1.616 -0.1491 -1.2977  0.9949
19893TIP3    H281095   1.224   3.738   1.656  1.0007  0.3684 -0.2925
19894TIP3   OH281096   3.598   2.919   1.905  0.3452 -0.0540 -0.5330
19894TIP3    H181097   3.577   2.933   1.812  1.2955 -1.9463 -1.0998
19894TIP3    H281098   3.513   2.906   1.947 -0.0317 -0.4760 -1.3943
19895TIP3   OH281099   4.565   3.824  14.290 -0.3021  0.2304  0.5015
19895TIP3    H181100   4.551   3.747  14.345 -2.2942  0.3794  0.2718
19895TIP3    H281101   4.479   3.867  14.285  0.6504  2.2366  0.2629
19896TIP3   OH281102   2.728   0.787   1.475 -0.4924  0.0947 -0.5832
19896TIP3    H181103   2.766   0.868   1.509  1.4867 -1.0699  0.1063
19896TIP3    H281104   2.648   0.816   1.430 -0.6839  2.2335  0.9654
19897TIP3   OH281105   2.188   6.124  16.216 -0.3075  0.5328 -0.6059
19897TIP3    H181106   2.159   6.057  16.277  2.3632  0.2862  0.5414
19897TIP3    H281107   2.116   6.133  16.154 -2.5594 -0.2350  1.7168
19898TIP3   OH281108   2.499   3.107   2.157  0.3679 -0.0158  0.1773
19898TIP3    H181109   2.514   3.194   2.121 -0.7688  0.7478  1.4352
19898TIP3    H281110   2.474   3.053   2.082  0.5896  0.8610 -0.5390
19899TIP3   OH281111   2.280   2.789   5.890 -0.2044  0.0867  0.2949
19899TIP3    H181112   2.290   2.703   5.932 -1.7010 -0.1015  0.3145
19899TIP3    H281113   2.204   2.828   5.933  0.0073  1.1148 -0.2411
19900TIP3   OH281114   3.585   2.906  13.390  0.3473  0.3398 -0.6935
19900TIP3    H181115   3.576   2.933  13.298 -0.5550 -1.2803 -1.1180
19900TIP3    H281116   3.545   2.977  13.440 -2.6545 -0.4626 -1.7938
19901TIP3   OH281117   3.505   4.660  13.989 -0.0514  0.0515  0.1289
19901TIP3    H181118   3.428   4.643  14.044 -0.7473  1.3003 -0.4157
19901TIP3    H281119   3.550   4.731  14.033  0.3724 -0.1600  0.0353
19902TIP3   OH281120   5.387   5.850  12.629 -0.0761 -0.3256 -0.3339
19902TIP3    H181121   5.304   5.865  12.584 -0.4271  1.6271  0.8364
19902TIP3    H281122   5.368   5.870  12.721  1.7695  0.6043 -0.1099
19903TIP3   OH281123   6.024   5.392  10.760 -0.9247  0.0608  0.1513
19903TIP3    H181124   5.975   5.348  10.830 -2.1611  2.7055  1.0893
19903TIP3    H281125   6.000   5.344  10.680 -1.0315 -1.8216  1.2620
19904TIP3   OH281126   5.638   1.178   1.737 -0.0763 -0.2541 -0.2328
19904TIP3    H181127   5.679   1.202   1.655 -1.5290  0.9543 -0.6632
19904TIP3    H281128   5.707   1.136   1.788  0.4939 -2.4229 -2.6058
19905TIP3   OH281129   1.670   6.164  11.458  0.2591 -0.0070 -0.0618
19905TIP3    H181130   1.688   6.252  11.491 -0.0656  0.4162 -1.0007
19905TIP3    H281131   1.580   6.167  11.426  0.8872 -0.0674 -1.9904
19906TIP3   OH281132   6.258   5.375  13.454  0.3923  0.6453  0.3915
19906TIP3    H181133   6.175   5.349  13.413  0.7337  1.1761 -0.6839
19906TIP3    H281134   6.233   5.409  13.539 -0.3252 -0.6933  0.7473
19907TIP3   OH281135   5.033   0.400  15.472  0.0499  0.1536  0.0914
19907TIP3    H181136   5.113   0.359  15.439 -1.3501 -1.6925 -1.2191
19907TIP3    H281137   5.017   0.357  15.556  0.8013  1.0691  0.7204
19908TIP3   OH281138   3.110   2.339   6.900 -0.3305 -0.1426 -0.1522
19908TIP3    H181139   3.096   2.261   6.845 -0.3587 -1.7259  1.9930
19908TIP3    H281140   3.204   2.340   6.918 -0.6603 -1.2803  1.9589
19909TIP3   OH281141   6.469   2.890  11.691 -0.2842  0.6152 -0.3359
19909TIP3    H181142   6.515   2.830  11.633 -2.4996 -1.2162 -0.3656
19909TIP3    H281143   6.414   2.942  11.632 -0.2489  0.9030 -0.1144
19910TIP3   OH281144   4.960   2.481  15.410 -0.0635  0.1199  0.1361
19910TIP3    H181145   4.985   2.393  15.437 -2.8657 -1.4866 -1.9658
19910TIP3    H281146   4.956   2.477  15.315 -1.3079  2.1914  0.0317
19911TIP3   OH281147   1.903   2.944  12.939 -0.1213 -0.3258  0.9357
19911TIP3    H181148   1.914   2.850  12.959  0.4522 -0.3850  0.3622
19911TIP3    H281149   1.962   2.988  13.000 -1.0536 -0.2630  1.8287
19912TIP3   OH281150   6.021   3.719  12.624 -0.7298  0.1362 -0.1000
19912TIP3    H181151   6.001   3.731  12.531 -1.0740  0.7465  0.0481
19912TIP3    H281152   6.076   3.640  12.627  0.7546  1.0836 -1.0132
19913TIP3   OH281153   4.798   5.051  11.180  0.2920 -0.2861  0.4068
19913TIP3    H181154   4.738   4.976  11.175  0.6446 -0.5779  0.4768
19913TIP3    H281155   4.869   5.021  11.237  0.5305  0.0364  0.2823
19914TIP3   OH281156   0.076   2.006   1.281 -0.2480 -0.3189 -0.4728
19914TIP3    H181157   0.094   2.034   1.370  0.1139 -0.2007 -0.5844
19914TIP3    H281158  -0.004   1.953   1.288 -1.6593  1.6893 -0.4163
19915TIP3   OH281159   2.244   4.717  16.850  0.3066  0.2175  0.1451
19915TIP3    H181160   2.331   4.747  16.824  0.7915 -1.0764  0.1815
19915TIP3    H281161   2.244   4.724  16.945 -0.2390  1.7463  0.0590
19916TIP3   OH281162   1.289   1.116   0.585  0.1438  0.2372 -0.0097
19916TIP3    H181163   1.207   1.128   0.633  0.4781 -1.3900  1.0474
19916TIP3    H281164   1.262   1.111   0.493 -0.6249  2.2807  0.0671
19917TIP3   OH281165   4.944   5.234  11.507  0.3017  0.0979  0.0033
19917TIP3    H181166   4.918   5.215  11.597 -1.3810  1.9326 -0.0440
19917TIP3    H281167   4.900   5.168  11.455  0.9019 -0.6807  0.4541
19918TIP3   OH281168   0.787   4.064  12.418 -0.6756 -0.4962 -0.7827
19918TIP3    H181169   0.808   4.156  12.429  1.2289 -0.9410 -0.2903
19918TIP3    H281170   0.794   4.048  12.324 -2.5278  0.1611 -1.0627
19919TIP3   OH281171   6.385   0.005   2.411  0.6800 -0.3475  0.2089
19919TIP3    H181172   6.383   0.004   2.507 -0.2461 -0.8481  0.1976
19919TIP3    H281173   6.300   0.041   2.385  0.5756 -1.0146 -0.4190
19920TIP3   OH281174   6.511   2.164   0.021 -0.2007 -0.2613 -0.1374
19920TIP3    H181175   6.490   2.159  -0.072 -1.0382 -0.7284  0.0628
19920TIP3    H281176   6.516   2.073   0.049  2.6347 -0.2312 -0.2470
19921TIP3   OH281177   3.613   3.228   1.171 -0.1413 -0.0872 -0.2615
19921TIP3    H181178   3.644   3.312   1.138  1.5994 -0.5208  0.2019
19921TIP3    H281179   3.637   3.165   1.103 -1.5437 -0.2335 -0.6623
19922TIP3   OH281180   6.197   3.842   0.914 -0.5336 -0.2488 -0.4915
19922TIP3    H181181   6.280   3.798   0.934 -0.3826 -0.1573 -0.9117
19922TIP3    H281182   6.210   3.931   0.945 -0.5151 -0.2628 -0.4589
19923TIP3   OH281183   4.570   1.847  14.846  0.4853  0.0505  0.2711
19923TIP3    H181184   4.638   1.873  14.784  0.8582 -0.0722  0.6271
19923TIP3    H281185   4.531   1.929  14.875  1.1953  0.1770  0.8708
19924TIP3   OH281186   5.480   5.835   3.117 -0.2057  0.6315  0.3272
19924TIP3    H181187   5.417   5.851   3.187 -0.3296  0.0114  0.3630
19924TIP3    H281188   5.432   5.857   3.037 -1.3782 -2.1879  0.1304
19925TIP3   OH281189   0.213   4.237  14.576  0.2468  0.1166 -0.1534
19925TIP3    H181190   0.140   4.187  14.612  1.3896  0.0720  2.3098
19925TIP3    H281191   0.185   4.328  14.583  0.6563  0.1499  1.5133
19926TIP3   OH281192   2.059   3.735   5.760 -0.1616 -0.3792 -0.4685
19926TIP3    H181193   2.094   3.804   5.817 -0.9217 -0.0077 -0.4459
19926TIP3    H281194   2.136   3.684   5.735  0.6881  1.4556 -1.8327
19927TIP3   OH281195   3.328   1.646  12.843  0.5731  0.4841 -0.0995
19927TIP3    H181196   3.311   1.641  12.749  0.1627  1.7577 -0.1093
19927TIP3    H281197   3.342   1.739  12.860 -0.5183  0.4163  1.2948
19928TIP3   OH281198   2.069   4.640   0.984 -0.3118 -0.0269  0.1302
19928TIP3    H181199   1.996   4.702   0.984  0.5063  0.9512 -0.1786
19928TIP3    H281200   2.037   4.566   0.934 -0.5347  1.0904 -1.4487
19929TIP3   OH281201   0.874   3.042  16.153  0.0662  0.5945  0.1348
19929TIP3    H181202   0.922   3.111  16.107  0.3027 -0.5870 -1.4813
19929TIP3    H281203   0.852   2.978  16.085 -0.9493 -0.4872  1.4154
19930TIP3   OH281204   0.683   1.695  15.628 -0.1783 -0.4865  0.0007
19930TIP3    H181205   0.680   1.646  15.546  0.8292  0.0273 -0.3460
19930TIP3    H281206   0.758   1.658  15.676 -1.1380 -1.2343  0.9948
19931TIP3   OH281207   2.824   5.449  15.774  0.3700 -0.7366  0.2004
19931TIP3    H181208   2.745   5.395  15.767  0.4065 -0.8472  0.5920
19931TIP3    H281209   2.886   5.410  15.713  0.4701 -1.2708  0.6444
19932TIP3   OH281210   3.135   0.594  11.838 -0.0570  0.2043  0.5820
19932TIP3    H181211   3.206   0.533  11.857 -0.2019 -0.0461  0.3201
19932TIP3    H281212   3.178   0.679  11.831  0.4007 -0.1163 -0.7879
19933TIP3   OH281213   2.288   4.602   0.751  0.0748  0.4542 -0.1307
19933TIP3    H181214   2.248   4.679   0.791  1.5174  0.6435  1.0496
19933TIP3    H281215   2.366   4.636   0.707  0.7838 -0.3078  0.4900
19934TIP3   OH281216   6.421   0.252  11.736 -0.7761 -0.4668 -0.2266
19934TIP3    H181217   6.327   0.238  11.746 -0.5828 -3.0894 -1.4805
19934TIP3    H281218   6.448   0.190  11.669  1.9249 -0.0154  0.3348
19935TIP3   OH281219   2.619   6.600  12.881  0.0190  0.0119 -0.1335
19935TIP3    H181220   2.541   6.650  12.859 -1.3184 -1.5466  0.7943
19935TIP3    H281221   2.644   6.556  12.800 -0.8751 -0.4887 -0.1501
19936TIP3   OH281222   4.638   1.703   3.294 -0.2902 -0.5731 -0.2191
19936TIP3    H181223   4.549   1.730   3.274  0.0116 -0.0753 -0.9805
19936TIP3    H281224   4.638   1.608   3.283 -0.7751 -0.5977  0.0012
19937TIP3   OH281225   1.437   4.297  12.017 -0.1778 -0.3222  0.2608
19937TIP3    H181226   1.403   4.352  11.946  1.3635  1.6575  0.9446
19937TIP3    H281227   1.383   4.218  12.014 -0.6224 -0.0265 -2.6303
19938TIP3   OH281228   0.078   3.112   6.498 -0.2401  0.1690 -0.2955
19938TIP3    H181229   0.049   3.021   6.486  0.2484 -0.2620  1.4253
19938TIP3    H281230   0.163   3.116   6.453  0.3252 -0.6128  0.6474
19939TIP3   OH281231   3.974   6.176   0.125  0.1663  0.1622  0.9888
19939TIP3    H181232   3.919   6.114   0.077 -0.9593  1.3451  0.6955
19939TIP3    H281233   3.925   6.196   0.205  1.4822 -0.8840  2.1027
19940TIP3   OH281234   2.664   1.540   5.025 -0.3927  0.2057  0.5340
19940TIP3    H181235   2.718   1.486   4.967  2.0579 -0.4927  3.2010
19940TIP3    H281236   2.688   1.630   5.004 -1.5470  0.1432 -1.2537
19941TIP3   OH281237   6.689   4.772   5.041  0.5180  0.1331  0.4366
19941TIP3    H181238   6.782   4.756   5.025  0.2154 -2.0754  0.5565
19941TIP3    H281239   6.685   4.799   5.133  1.0836  0.8546  0.2585
19942TIP3   OH281240   4.120   5.867  11.433 -0.2302  0.4428  0.5950
19942TIP3    H181241   4.123   5.794  11.495  2.2479  1.6813  2.0790
19942TIP3    H281242   4.051   5.924  11.466 -0.5121 -0.0262  0.8389
19943TIP3   OH281243   5.920   1.175  17.094  0.3468  0.4243 -0.6081
19943TIP3    H181244   5.965   1.095  17.122 -1.9595 -0.6371  0.3281
19943TIP3    H281245   5.961   1.244  17.146  0.8537 -0.5093  0.2727
19944TIP3   OH281246   0.789   0.526   2.106 -0.0449  0.4109  0.3042
19944TIP3    H181247   0.700   0.544   2.136 -1.1573 -2.5356 -0.8533
19944TIP3    H281248   0.786   0.542   2.011 -0.1027 -1.9485 -0.1525
19945TIP3   OH281249   3.808   2.592  13.243  0.1379  0.4142 -0.0691
19945TIP3    H181250   3.758   2.612  13.322  0.9054 -0.4253  0.6376
19945TIP3    H281251   3.794   2.499  13.228  1.8243  0.0406  0.4146
19946TIP3   OH281252   3.872   5.465  17.077 -0.4505  0.4104 -0.7519
19946TIP3    H181253   3.810   5.394  17.063 -1.2255  0.7162  0.9083
19946TIP3    H281254   3.924   5.437  17.153  0.6014  0.7319 -1.3277
19947TIP3   OH281255   1.729   1.490  11.965  0.0073 -0.1608  0.3844
19947TIP3    H181256   1.806   1.518  11.916 -0.6054 -0.5598 -0.8629
19947TIP3    H281257   1.666   1.561  11.952 -1.2513 -1.5956 -2.0787
19948TIP3   OH281258   0.547   6.744   4.889  0.6351  0.2438 -0.3574
19948TIP3    H181259   0.606   6.807   4.848  1.4744  0.0202  0.4624
19948TIP3    H281260   0.557   6.759   4.983 -1.2463  0.7410 -0.1906
19949TIP3   OH281261   4.682   1.746   2.209  0.3061 -0.5822  0.4474
19949TIP3    H181262   4.587   1.745   2.222 -0.0251  0.3017 -1.4720
19949TIP3    H281263   4.716   1.802   2.278 -0.3959 -1.9173  1.9307
19950TIP3   OH281264   4.536   0.160   0.753 -0.2591 -0.2997 -0.3142
19950TIP3    H181265   4.590   0.113   0.690  0.4741  0.3781 -0.2056
19950TIP3    H281266   4.591   0.167   0.831 -0.2974  0.8515 -0.3773
19951TIP3   OH281267   4.290   5.308  10.386  0.1163  0.1930  0.1569
19951TIP3    H181268   4.328   5.237  10.336  0.4259 -0.0291  0.6945
19951TIP3    H281269   4.230   5.265  10.447  0.8265  0.3119  0.9658
19952TIP3   OH281270   0.487   0.031  11.269  0.1434 -0.2157 -0.1808
19952TIP3    H181271   0.499   0.119  11.234  1.9752 -0.8827 -1.4449
19952TIP3    H281272   0.574   0.007  11.302 -0.2304 -1.6481 -0.1626
19953TIP3   OH281273   5.965   6.080  11.419 -0.0347 -0.6698  0.3100
19953TIP3    H181274   5.877   6.058  11.449 -0.2848 -0.1304 -0.0252
19953TIP3    H281275   5.993   6.003  11.369 -0.9186 -0.2296 -0.8918
19954TIP3   OH281276   1.184   6.354  16.879  0.2477  0.0880 -0.2894
19954TIP3    H181277   1.118   6.344  16.810  0.4373 -0.0315 -0.4555
19954TIP3    H281278   1.208   6.264  16.902 -1.4865  0.0299  1.5704
19955TIP3   OH281279   5.098   3.036   2.022  0.1866 -0.3206 -0.4852
19955TIP3    H181280   5.066   2.984   1.949 -1.2801  0.1294 -0.1977
19955TIP3    H281281   5.183   2.998   2.043 -0.1932 -1.6423 -1.2314
19956TIP3   OH281282   1.473   2.458   0.585 -0.1625  0.2039 -0.0756
19956TIP3    H181283   1.407   2.522   0.559 -1.2946 -0.7166  0.4523
19956TIP3    H281284   1.556   2.505   0.578 -0.8688  1.4039 -0.6950
19957TIP3   OH281285   1.569   2.520  14.921 -0.3129  0.2439  0.5049
19957TIP3    H181286   1.633   2.507  14.852  0.4146 -2.0333  1.5154
19957TIP3    H281287   1.487   2.537  14.875  0.4121  0.2046 -0.8616
19958TIP3   OH281288   2.266   5.894  10.618  0.1321  0.5020 -0.0999
19958TIP3    H181289   2.296   5.819  10.669  1.3246  0.8805 -0.2228
19958TIP3    H281290   2.193   5.860  10.566 -0.1570 -0.2474  0.7782
19959TIP3   OH281291   0.541   6.052   5.232 -0.0565 -0.3634  0.6505
19959TIP3    H181292   0.470   6.067   5.294 -0.1965  0.0367  0.3988
19959TIP3    H281293   0.610   6.010   5.283 -0.0207  0.3167  1.1665
19960TIP3   OH281294   2.003   0.786  15.657 -0.0133 -0.3461  0.1399
19960TIP3    H181295   1.930   0.737  15.619 -0.8662  0.1553  1.0856
19960TIP3    H281296   2.067   0.719  15.681 -0.4542 -0.8565 -0.0826
19961TIP3   OH281297   2.880   6.195  15.458 -0.6991 -0.1320  0.5126
19961TIP3    H181298   2.788   6.203  15.432 -0.6557 -2.6125 -0.6697
19961TIP3    H281299   2.880   6.218  15.551 -2.4141  0.4044  0.4235
19962TIP3   OH281300   3.718   0.785   4.831 -0.2206  0.0531 -0.3059
19962TIP3    H181301   3.808   0.790   4.864 -0.6238 -2.0831  1.2515
19962TIP3    H281302   3.697   0.692   4.830 -1.9983  0.3952 -1.9456
19963TIP3   OH281303   4.229   2.196  13.072  0.0278  0.3567 -0.5277
19963TIP3    H181304   4.231   2.274  13.016 -3.8322  0.5375 -0.7009
19963TIP3    H281305   4.150   2.207  13.125  0.1305 -2.7613  0.4710
19964TIP3   OH281306   3.093   1.289  12.414 -0.0428  0.0457 -0.1724
19964TIP3    H181307   3.073   1.275  12.321 -0.6882  2.2233 -0.4254
19964TIP3    H281308   3.008   1.283  12.458  0.1564 -0.2597  0.1710
19965TIP3   OH281309   3.337   0.895  11.225 -0.3785 -0.2172  0.1849
19965TIP3    H181310   3.373   0.984  11.223  1.9813 -1.1217  0.0749
19965TIP3    H281311   3.354   0.861  11.137  0.5741 -1.4342  0.8185
19966LIG      S81312   3.729   3.674  16.116  0.0596  0.0883  0.7085
19966LIG     N181313   3.500   3.082  16.291 -0.0203 -0.5405 -0.8501
19966LIG     N281314   3.397   2.798  16.314  0.3384  0.2134  0.3262
19966LIG     N381315   3.536   3.454  16.186  0.2230 -0.3610 -0.2334
19966LIG     C181316   3.572   3.210  16.270 -0.2108 -0.1830 -0.7652
19966LIG     C281317   3.453   3.004  16.170  0.6294 -0.8751  0.4063
19966LIG     C381318   3.560   2.988  16.378 -0.1118  0.8728 -0.6986
19966LIG     C481319   3.350   2.892  16.212 -0.3261 -0.6455  0.1915
19966LIG     C581320   3.452   2.891  16.427 -0.2743  0.5886  0.6346
19966LIG     C681321   3.481   3.314  16.203  0.4502 -0.7351 -0.6873
19966LIG     C781322   3.710   3.198  16.196  0.1756 -0.1759  0.2643
19966LIG     C881323   3.495   2.700  16.269 -0.0391  0.6457  0.2353
19966LIG     C981324   3.486   3.548  16.090 -0.9505  0.2128 -0.0452
19966LIG    C1081325   3.587   3.517  16.299  0.5149 -0.6979  0.3423
19966LIG    C1181326   3.565   2.613  16.375  0.4915 -0.4914 -0.7271
19966LIG    C1281327   3.571   3.653  16.044  0.1528  0.0189 -0.4751
19966LIG    C1381328   3.691   3.615  16.277  0.2707 -0.0419 -0.2472
19966LIG    C1481329   3.353   3.547  16.050  0.1447 -0.0026 -0.4865
19966LIG    C1581330   3.526   3.503  16.423 -0.2369  0.3172 -0.1131
19966LIG    C1681331   3.522   3.763  15.972  0.0802  0.0603  0.0418
19966LIG    C1781332   3.738   3.691  16.388  0.0703 -0.3018  0.3422
19966LIG    C1881333   3.305   3.650  15.967 -0.3450 -0.1373  0.3283
19966LIG    C1981334   3.580   3.570  16.532  0.1590 -0.7277 -0.8962
19966LIG    C2081335   3.388   3.757  15.929  0.4105 -0.5162 -0.7467
19966LIG    C2181336   3.693   3.660  16.517 -0.7246  1.0205  0.0283
19966LIG     H181337   3.600   3.253  16.369  2.3593 -0.5966 -1.2281
19966LIG     H281338   3.538   2.954  16.118 -1.2254 -3.4286 -0.3902
19966LIG     H381339   3.394   3.068  16.101  1.6751 -1.1282 -0.7587
19966LIG     H481340   3.606   3.043  16.463  0.3460  1.9908 -1.6386
19966LIG     H581341   3.634   2.929  16.321 -2.3483 -2.5277 -0.3450
19966LIG     H681342   3.265   2.950  16.253 -0.5968 -1.1538  0.3662
19966LIG     H781343   3.321   2.834  16.122 -0.6257 -0.6077  0.2636
19966LIG     H881344   3.491   2.827  16.510  0.2650 -0.4807 -0.4164
19966LIG     H981345   3.359   2.935  16.469 -0.6000 -1.2337  1.9925
19966LIG    H1081346   3.452   3.273  16.103  0.1565 -0.0537 -0.8930
19966LIG    H1181347   3.387   3.327  16.260 -0.3471 -0.5475 -1.9878
19966LIG    H1281348   3.702   3.159  16.092  1.3379 -0.6833  0.3469
19966LIG    H1381349   3.778   3.127  16.249  1.9754  2.3080  1.5053
19966LIG    H1481350   3.759   3.297  16.187  0.5451 -0.1199  2.3881
19966LIG    H1581351   3.572   2.750  16.208  0.1288 -1.8479 -1.7639
19966LIG    H1681352   3.437   2.627  16.207  2.6662 -1.1013 -0.4100
19966LIG    H1781353   3.480   2.555  16.416  0.0932  1.2432  1.0389
19966LIG    H1881354   3.613   2.669  16.458 -1.5449 -0.7440  0.6868
19966LIG    H1981355   3.637   2.543  16.327 -1.4011 -3.4007  0.4478
19966LIG    H2081356   3.282   3.474  16.084 -1.9576  2.3275  0.4685
19966LIG    H2181357   3.444   3.436  16.442 -0.4553  0.3718 -0.8547
19966LIG    H2281358   3.591   3.842  15.945  0.3109 -0.0055  0.4189
19966LIG    H2381359   3.814   3.765  16.370 -2.1702  2.2532  0.7131
19966LIG    H2481360   3.202   3.644  15.934 -0.1451  2.1417 -0.9513
19966LIG    H2581361   3.524   3.566  16.624  1.6893  0.1850  0.1095
19966LIG    H2681362   3.362   3.825  15.849 -1.9384 -1.1459 -0.5912
19966LIG    H2781363   3.728   3.713  16.604  0.6922 -1.4811  1.0932
   6.78029   6.78029  17.27555
